/*--------------------------------*- C++ -*----------------------------------*\
  =========                 |
  \\      /  F ield         | OpenFOAM: The Open Source CFD Toolbox
   \\    /   O peration     | Website:  https://openfoam.org
    \\  /    A nd           | Version:  9
     \\/     M anipulation  |
\*---------------------------------------------------------------------------*/
FoamFile
{
    format      ascii;
    class       volVectorField;
    location    "15";
    object      D_0;
}
// * * * * * * * * * * * * * * * * * * * * * * * * * * * * * * * * * * * * * //

dimensions      [0 1 0 0 0 0 0];

internalField   nonuniform List<vector> 
1000
(
(9.46738e-06 3.17899e-06 0)
(8.83308e-06 3.51202e-06 0)
(8.37212e-06 3.79152e-06 0)
(8.03895e-06 4.01021e-06 0)
(7.80124e-06 4.19872e-06 0)
(7.63355e-06 4.36099e-06 0)
(7.52002e-06 4.50712e-06 0)
(7.44792e-06 4.64023e-06 0)
(7.4073e-06 4.76439e-06 0)
(7.39291e-06 4.88204e-06 0)
(8.53179e-06 2.86625e-06 0)
(7.87314e-06 3.10834e-06 0)
(7.39773e-06 3.31991e-06 0)
(7.05563e-06 3.48349e-06 0)
(6.81191e-06 3.62692e-06 0)
(6.63939e-06 3.75034e-06 0)
(6.52118e-06 3.86222e-06 0)
(6.44383e-06 3.96453e-06 0)
(6.39707e-06 4.05949e-06 0)
(6.37395e-06 4.15199e-06 0)
(7.57628e-06 2.55285e-06 0)
(6.91158e-06 2.69804e-06 0)
(6.4347e-06 2.83883e-06 0)
(6.09337e-06 2.94665e-06 0)
(5.85101e-06 3.04574e-06 0)
(5.67944e-06 3.13193e-06 0)
(5.56111e-06 3.21174e-06 0)
(5.48227e-06 3.28566e-06 0)
(5.43256e-06 3.35416e-06 0)
(5.4047e-06 3.42263e-06 0)
(6.60564e-06 2.24384e-06 0)
(5.95406e-06 2.28997e-06 0)
(5.48957e-06 2.35976e-06 0)
(5.15946e-06 2.41299e-06 0)
(4.92648e-06 2.46991e-06 0)
(4.76212e-06 2.52151e-06 0)
(4.6487e-06 2.57229e-06 0)
(4.57238e-06 2.62081e-06 0)
(4.52338e-06 2.66615e-06 0)
(4.4938e-06 2.71317e-06 0)
(5.62237e-06 1.94385e-06 0)
(5.00363e-06 1.89279e-06 0)
(4.56605e-06 1.8944e-06 0)
(4.2584e-06 1.89657e-06 0)
(4.04335e-06 1.91541e-06 0)
(3.89276e-06 1.93669e-06 0)
(3.78928e-06 1.96273e-06 0)
(3.71941e-06 1.9899e-06 0)
(3.6742e-06 2.01615e-06 0)
(3.64555e-06 2.04508e-06 0)
(4.63054e-06 1.65504e-06 0)
(4.06289e-06 1.51264e-06 0)
(3.66715e-06 1.45265e-06 0)
(3.39366e-06 1.41023e-06 0)
(3.20537e-06 1.39743e-06 0)
(3.07511e-06 1.39444e-06 0)
(2.98639e-06 1.40137e-06 0)
(2.92656e-06 1.41235e-06 0)
(2.88779e-06 1.4244e-06 0)
(2.86222e-06 1.43954e-06 0)
(3.62659e-06 1.37724e-06 0)
(3.12972e-06 1.15362e-06 0)
(2.79192e-06 1.04334e-06 0)
(2.56514e-06 9.66892e-07 0)
(2.41267e-06 9.31838e-07 0)
(2.30902e-06 9.12612e-07 0)
(2.2394e-06 9.07296e-07 0)
(2.19258e-06 9.07957e-07 0)
(2.16226e-06 9.11109e-07 0)
(2.14142e-06 9.17186e-07 0)
(2.61717e-06 1.10251e-06 0)
(2.2077e-06 8.14295e-07 0)
(1.94523e-06 6.73256e-07 0)
(1.77723e-06 5.79114e-07 0)
(1.6682e-06 5.3474e-07 0)
(1.59563e-06 5.09415e-07 0)
(1.54768e-06 4.99652e-07 0)
(1.51548e-06 4.96311e-07 0)
(1.49457e-06 4.95917e-07 0)
(1.47948e-06 4.97731e-07 0)
(1.58016e-06 8.04072e-07 0)
(1.29066e-06 4.85201e-07 0)
(1.12463e-06 3.46569e-07 0)
(1.02603e-06 2.60719e-07 0)
(9.66199e-07 2.23708e-07 0)
(9.27055e-07 2.03431e-07 0)
(9.01733e-07 1.96335e-07 0)
(8.84416e-07 1.94001e-07 0)
(8.72975e-07 1.93861e-07 0)
(8.64001e-07 1.9484e-07 0)
(5.44725e-07 4.20369e-07 0)
(4.10256e-07 1.78252e-07 0)
(3.59268e-07 9.3129e-08 0)
(3.3223e-07 5.04775e-08 0)
(3.16512e-07 3.57338e-08 0)
(3.05548e-07 2.91322e-08 0)
(2.9836e-07 2.82038e-08 0)
(2.93099e-07 2.87791e-08 0)
(2.89482e-07 2.9877e-08 0)
(2.86305e-07 3.10822e-08 0)
(1.66949e-05 5.1519e-06 0)
(1.66671e-05 5.79313e-06 0)
(1.66478e-05 6.39073e-06 0)
(1.66481e-05 6.93792e-06 0)
(1.66728e-05 7.44017e-06 0)
(1.67237e-05 7.90376e-06 0)
(1.68013e-05 8.33588e-06 0)
(1.69038e-05 8.74282e-06 0)
(1.70304e-05 9.12954e-06 0)
(1.71779e-05 9.50149e-06 0)
(1.61711e-05 5.10953e-06 0)
(1.60967e-05 5.74895e-06 0)
(1.60459e-05 6.33926e-06 0)
(1.60232e-05 6.87542e-06 0)
(1.60311e-05 7.36418e-06 0)
(1.60681e-05 7.81225e-06 0)
(1.6133e-05 8.2275e-06 0)
(1.62228e-05 8.61658e-06 0)
(1.63362e-05 8.98467e-06 0)
(1.64688e-05 9.33795e-06 0)
(1.56158e-05 5.02358e-06 0)
(1.54861e-05 5.66146e-06 0)
(1.53923e-05 6.23972e-06 0)
(1.53357e-05 6.7586e-06 0)
(1.53168e-05 7.22836e-06 0)
(1.53313e-05 7.65666e-06 0)
(1.53765e-05 8.05192e-06 0)
(1.54478e-05 8.42089e-06 0)
(1.55434e-05 8.76896e-06 0)
(1.56575e-05 9.10247e-06 0)
(1.50157e-05 4.89861e-06 0)
(1.4824e-05 5.53356e-06 0)
(1.46802e-05 6.09705e-06 0)
(1.45835e-05 6.59476e-06 0)
(1.45317e-05 7.04163e-06 0)
(1.45183e-05 7.44648e-06 0)
(1.45392e-05 7.8185e-06 0)
(1.45881e-05 8.16452e-06 0)
(1.46629e-05 8.49012e-06 0)
(1.47561e-05 8.80158e-06 0)
(1.4364e-05 4.73585e-06 0)
(1.41041e-05 5.36282e-06 0)
(1.3907e-05 5.90689e-06 0)
(1.37679e-05 6.37858e-06 0)
(1.36815e-05 6.79809e-06 0)
(1.36386e-05 7.17545e-06 0)
(1.36336e-05 7.52079e-06 0)
(1.36591e-05 7.84086e-06 0)
(1.37123e-05 8.14156e-06 0)
(1.37841e-05 8.42874e-06 0)
(1.36597e-05 4.53907e-06 0)
(1.33278e-05 5.14939e-06 0)
(1.30762e-05 5.66841e-06 0)
(1.28948e-05 6.1096e-06 0)
(1.2774e-05 6.49804e-06 0)
(1.27021e-05 6.84465e-06 0)
(1.26718e-05 7.16042e-06 0)
(1.26743e-05 7.45198e-06 0)
(1.27063e-05 7.72555e-06 0)
(1.27574e-05 7.98628e-06 0)
(1.29045e-05 4.31126e-06 0)
(1.24996e-05 4.89329e-06 0)
(1.21947e-05 5.38011e-06 0)
(1.1973e-05 5.78593e-06 0)
(1.182e-05 6.13974e-06 0)
(1.17211e-05 6.45272e-06 0)
(1.16674e-05 6.73656e-06 0)
(1.16487e-05 6.99757e-06 0)
(1.16611e-05 7.24224e-06 0)
(1.16932e-05 7.47488e-06 0)
(1.21024e-05 4.05667e-06 0)
(1.16269e-05 4.59689e-06 0)
(1.12722e-05 5.04361e-06 0)
(1.10137e-05 5.4092e-06 0)
(1.08319e-05 5.72524e-06 0)
(1.07093e-05 6.00234e-06 0)
(1.06349e-05 6.25258e-06 0)
(1.05977e-05 6.48158e-06 0)
(1.05927e-05 6.69615e-06 0)
(1.06083e-05 6.89926e-06 0)
(1.12584e-05 3.77967e-06 0)
(1.07187e-05 4.2639e-06 0)
(1.032e-05 4.6623e-06 0)
(1.00297e-05 4.98291e-06 0)
(9.82363e-06 5.25839e-06 0)
(9.68112e-06 5.49796e-06 0)
(9.58956e-06 5.71348e-06 0)
(9.53698e-06 5.90991e-06 0)
(9.51716e-06 6.09353e-06 0)
(9.51935e-06 6.26671e-06 0)
(1.03781e-05 3.48531e-06 0)
(9.78439e-06 3.89992e-06 0)
(9.3495e-06 4.24223e-06 0)
(9.03391e-06 4.5136e-06 0)
(8.80885e-06 4.74636e-06 0)
(8.65105e-06 4.94738e-06 0)
(8.54624e-06 5.128e-06 0)
(8.48178e-06 5.29183e-06 0)
(8.45014e-06 5.44501e-06 0)
(8.44276e-06 5.58642e-06 0)
(1.73542e-05 9.85932e-06 0)
(1.75567e-05 1.02144e-05 0)
(1.77748e-05 1.05637e-05 0)
(1.80067e-05 1.0909e-05 0)
(1.82513e-05 1.1252e-05 0)
(1.8507e-05 1.15937e-05 0)
(1.87729e-05 1.19353e-05 0)
(1.90479e-05 1.22776e-05 0)
(1.93309e-05 1.26213e-05 0)
(1.9621e-05 1.2967e-05 0)
(1.99174e-05 1.33152e-05 0)
(2.02194e-05 1.36665e-05 0)
(2.05261e-05 1.40211e-05 0)
(2.08368e-05 1.43793e-05 0)
(2.11509e-05 1.47414e-05 0)
(2.14677e-05 1.51075e-05 0)
(2.17863e-05 1.54774e-05 0)
(2.21062e-05 1.58509e-05 0)
(2.24268e-05 1.62274e-05 0)
(2.27474e-05 1.66057e-05 0)
(1.66526e-05 9.68225e-06 0)
(1.68802e-05 1.00314e-05 0)
(1.71199e-05 1.03752e-05 0)
(1.73699e-05 1.07155e-05 0)
(1.76298e-05 1.10543e-05 0)
(1.78985e-05 1.13925e-05 0)
(1.81753e-05 1.17312e-05 0)
(1.84593e-05 1.20711e-05 0)
(1.87499e-05 1.24131e-05 0)
(1.90464e-05 1.27576e-05 0)
(1.93482e-05 1.31052e-05 0)
(1.96547e-05 1.34563e-05 0)
(1.99654e-05 1.38112e-05 0)
(2.02796e-05 1.41702e-05 0)
(2.0597e-05 1.45336e-05 0)
(2.0917e-05 1.49013e-05 0)
(2.12391e-05 1.52734e-05 0)
(2.15627e-05 1.56495e-05 0)
(2.18875e-05 1.60292e-05 0)
(2.22126e-05 1.64113e-05 0)
(1.58515e-05 9.43657e-06 0)
(1.61113e-05 9.7863e-06 0)
(1.63798e-05 1.01308e-05 0)
(1.66548e-05 1.04719e-05 0)
(1.69367e-05 1.08116e-05 0)
(1.72244e-05 1.11507e-05 0)
(1.75179e-05 1.14907e-05 0)
(1.78165e-05 1.18321e-05 0)
(1.81201e-05 1.21757e-05 0)
(1.8428e-05 1.25222e-05 0)
(1.87399e-05 1.2872e-05 0)
(1.90556e-05 1.32255e-05 0)
(1.93745e-05 1.35832e-05 0)
(1.96965e-05 1.39453e-05 0)
(2.00212e-05 1.4312e-05 0)
(2.03482e-05 1.46836e-05 0)
(2.06773e-05 1.50599e-05 0)
(2.10079e-05 1.5441e-05 0)
(2.13398e-05 1.58264e-05 0)
(2.1672e-05 1.62156e-05 0)
(1.49629e-05 9.12748e-06 0)
(1.5261e-05 9.48288e-06 0)
(1.55645e-05 9.83331e-06 0)
(1.58702e-05 1.01796e-05 0)
(1.61797e-05 1.05245e-05 0)
(1.64919e-05 1.08685e-05 0)
(1.68073e-05 1.12133e-05 0)
(1.71255e-05 1.15595e-05 0)
(1.74465e-05 1.19079e-05 0)
(1.77703e-05 1.22592e-05 0)
(1.80966e-05 1.26139e-05 0)
(1.84253e-05 1.29725e-05 0)
(1.87564e-05 1.33353e-05 0)
(1.90896e-05 1.37028e-05 0)
(1.94249e-05 1.40751e-05 0)
(1.97621e-05 1.44526e-05 0)
(2.01009e-05 1.48354e-05 0)
(2.04411e-05 1.52236e-05 0)
(2.07824e-05 1.56173e-05 0)
(2.11238e-05 1.60163e-05 0)
(1.4006e-05 8.74921e-06 0)
(1.4347e-05 9.11603e-06 0)
(1.46902e-05 9.47814e-06 0)
(1.50309e-05 9.83477e-06 0)
(1.53723e-05 1.01897e-05 0)
(1.5713e-05 1.05431e-05 0)
(1.60543e-05 1.08968e-05 0)
(1.63958e-05 1.12514e-05 0)
(1.6738e-05 1.16081e-05 0)
(1.70809e-05 1.19673e-05 0)
(1.74248e-05 1.23298e-05 0)
(1.77696e-05 1.26961e-05 0)
(1.81156e-05 1.30667e-05 0)
(1.84628e-05 1.34419e-05 0)
(1.88112e-05 1.38222e-05 0)
(1.91607e-05 1.42078e-05 0)
(1.95115e-05 1.45992e-05 0)
(1.98632e-05 1.49967e-05 0)
(2.02157e-05 1.54007e-05 0)
(2.05682e-05 1.58115e-05 0)
(1.29966e-05 8.30389e-06 0)
(1.33837e-05 8.68747e-06 0)
(1.377e-05 9.0667e-06 0)
(1.4149e-05 9.43858e-06 0)
(1.45256e-05 9.80808e-06 0)
(1.48979e-05 1.0175e-05 0)
(1.52681e-05 1.05415e-05 0)
(1.56358e-05 1.09082e-05 0)
(1.60019e-05 1.12764e-05 0)
(1.63667e-05 1.16468e-05 0)
(1.67307e-05 1.202e-05 0)
(1.7094e-05 1.23967e-05 0)
(1.74571e-05 1.27775e-05 0)
(1.78203e-05 1.31628e-05 0)
(1.81836e-05 1.35532e-05 0)
(1.85473e-05 1.39491e-05 0)
(1.89116e-05 1.4351e-05 0)
(1.92763e-05 1.47596e-05 0)
(1.96415e-05 1.51756e-05 0)
(2.00066e-05 1.55997e-05 0)
(1.19513e-05 7.79239e-06 0)
(1.23861e-05 8.19814e-06 0)
(1.28177e-05 8.59974e-06 0)
(1.3237e-05 8.99184e-06 0)
(1.36509e-05 9.38032e-06 0)
(1.40571e-05 9.76493e-06 0)
(1.44583e-05 1.0148e-05 0)
(1.48543e-05 1.05304e-05 0)
(1.52464e-05 1.09135e-05 0)
(1.5635e-05 1.1298e-05 0)
(1.60208e-05 1.16848e-05 0)
(1.64044e-05 1.20747e-05 0)
(1.67862e-05 1.24682e-05 0)
(1.71667e-05 1.2866e-05 0)
(1.75464e-05 1.32686e-05 0)
(1.79255e-05 1.36767e-05 0)
(1.83044e-05 1.4091e-05 0)
(1.86832e-05 1.45122e-05 0)
(1.90621e-05 1.49416e-05 0)
(1.94409e-05 1.53799e-05 0)
(1.08859e-05 7.21928e-06 0)
(1.13686e-05 7.65225e-06 0)
(1.18459e-05 8.08049e-06 0)
(1.23066e-05 8.49735e-06 0)
(1.27587e-05 8.90881e-06 0)
(1.32001e-05 9.31513e-06 0)
(1.36336e-05 9.71847e-06 0)
(1.40593e-05 1.012e-05 0)
(1.44788e-05 1.05211e-05 0)
(1.48925e-05 1.09228e-05 0)
(1.53015e-05 1.1326e-05 0)
(1.57065e-05 1.17315e-05 0)
(1.61082e-05 1.21401e-05 0)
(1.65071e-05 1.25526e-05 0)
(1.6904e-05 1.29695e-05 0)
(1.72993e-05 1.33916e-05 0)
(1.76936e-05 1.38198e-05 0)
(1.80872e-05 1.4255e-05 0)
(1.84804e-05 1.46987e-05 0)
(1.88737e-05 1.51518e-05 0)
(9.81624e-06 6.59e-06 0)
(1.03456e-05 7.05546e-06 0)
(1.08674e-05 7.51362e-06 0)
(1.13696e-05 7.95947e-06 0)
(1.18599e-05 8.39724e-06 0)
(1.23369e-05 8.82846e-06 0)
(1.2803e-05 9.25507e-06 0)
(1.32591e-05 9.67867e-06 0)
(1.37064e-05 1.01007e-05 0)
(1.4146e-05 1.05222e-05 0)
(1.45788e-05 1.09444e-05 0)
(1.50059e-05 1.13682e-05 0)
(1.5428e-05 1.17943e-05 0)
(1.5846e-05 1.22236e-05 0)
(1.62606e-05 1.26568e-05 0)
(1.66726e-05 1.30948e-05 0)
(1.70826e-05 1.35384e-05 0)
(1.74914e-05 1.39887e-05 0)
(1.78993e-05 1.44474e-05 0)
(1.83074e-05 1.49154e-05 0)
(8.75505e-06 5.91419e-06 0)
(9.32851e-06 6.41544e-06 0)
(9.89029e-06 6.90454e-06 0)
(1.0433e-05 7.38242e-06 0)
(1.09607e-05 7.85e-06 0)
(1.14734e-05 8.30949e-06 0)
(1.19727e-05 8.76262e-06 0)
(1.24597e-05 9.21115e-06 0)
(1.29355e-05 9.65666e-06 0)
(1.34014e-05 1.01005e-05 0)
(1.38586e-05 1.05439e-05 0)
(1.43081e-05 1.09879e-05 0)
(1.4751e-05 1.14335e-05 0)
(1.51883e-05 1.18815e-05 0)
(1.56208e-05 1.23326e-05 0)
(1.60495e-05 1.27879e-05 0)
(1.64753e-05 1.32481e-05 0)
(1.68992e-05 1.37145e-05 0)
(1.73217e-05 1.41886e-05 0)
(1.77447e-05 1.46715e-05 0)
(7.93661e-06 5.40749e-06 0)
(8.53446e-06 5.93463e-06 0)
(9.11727e-06 6.44125e-06 0)
(9.68202e-06 6.93743e-06 0)
(1.0231e-05 7.42324e-06 0)
(1.07642e-05 7.90079e-06 0)
(1.12832e-05 8.37164e-06 0)
(1.17887e-05 8.83737e-06 0)
(1.22821e-05 9.2994e-06 0)
(1.27643e-05 9.75905e-06 0)
(1.32366e-05 1.02174e-05 0)
(1.37e-05 1.06756e-05 0)
(1.41557e-05 1.11345e-05 0)
(1.46046e-05 1.15948e-05 0)
(1.50479e-05 1.20574e-05 0)
(1.54865e-05 1.25231e-05 0)
(1.59214e-05 1.29928e-05 0)
(1.63538e-05 1.34674e-05 0)
(1.67845e-05 1.39484e-05 0)
(1.72157e-05 1.44368e-05 0)
(7.39054e-06 5.10427e-06 0)
(7.98842e-06 5.63135e-06 0)
(8.57139e-06 6.14209e-06 0)
(9.13798e-06 6.64386e-06 0)
(9.68971e-06 7.13658e-06 0)
(1.02265e-05 7.6217e-06 0)
(1.07494e-05 8.10048e-06 0)
(1.12592e-05 8.57416e-06 0)
(1.17568e-05 9.04395e-06 0)
(1.22432e-05 9.51094e-06 0)
(1.27194e-05 9.97612e-06 0)
(1.31865e-05 1.04404e-05 0)
(1.36454e-05 1.09045e-05 0)
(1.40972e-05 1.13693e-05 0)
(1.45429e-05 1.18354e-05 0)
(1.49836e-05 1.23034e-05 0)
(1.54202e-05 1.27743e-05 0)
(1.58541e-05 1.32486e-05 0)
(1.62862e-05 1.37277e-05 0)
(1.67189e-05 1.42121e-05 0)
(6.90847e-06 4.81317e-06 0)
(7.49562e-06 5.33863e-06 0)
(8.07261e-06 5.85082e-06 0)
(8.63488e-06 6.35598e-06 0)
(9.18436e-06 6.85367e-06 0)
(9.72013e-06 7.34479e-06 0)
(1.02431e-05 7.83026e-06 0)
(1.07537e-05 8.31095e-06 0)
(1.12525e-05 8.78781e-06 0)
(1.17405e-05 9.26166e-06 0)
(1.22184e-05 9.73332e-06 0)
(1.26872e-05 1.02035e-05 0)
(1.31477e-05 1.06729e-05 0)
(1.36011e-05 1.1142e-05 0)
(1.40482e-05 1.16116e-05 0)
(1.44901e-05 1.2082e-05 0)
(1.49278e-05 1.25538e-05 0)
(1.53627e-05 1.30278e-05 0)
(1.57957e-05 1.35045e-05 0)
(1.62294e-05 1.39844e-05 0)
(6.47648e-06 4.53283e-06 0)
(7.04957e-06 5.05401e-06 0)
(7.61618e-06 5.5657e-06 0)
(8.17006e-06 6.07284e-06 0)
(8.71335e-06 6.5743e-06 0)
(9.24444e-06 7.07047e-06 0)
(9.76413e-06 7.56182e-06 0)
(1.02723e-05 8.04887e-06 0)
(1.07697e-05 8.53225e-06 0)
(1.12568e-05 9.01254e-06 0)
(1.17343e-05 9.49034e-06 0)
(1.2203e-05 9.96619e-06 0)
(1.26637e-05 1.04406e-05 0)
(1.31174e-05 1.0914e-05 0)
(1.35648e-05 1.13868e-05 0)
(1.40071e-05 1.18595e-05 0)
(1.44452e-05 1.23322e-05 0)
(1.48804e-05 1.28056e-05 0)
(1.53139e-05 1.32797e-05 0)
(1.57482e-05 1.37548e-05 0)
(6.08951e-06 4.26618e-06 0)
(6.64539e-06 4.7815e-06 0)
(7.19808e-06 5.29103e-06 0)
(7.74019e-06 5.79843e-06 0)
(8.27399e-06 6.30209e-06 0)
(8.79734e-06 6.80192e-06 0)
(9.31084e-06 7.29795e-06 0)
(9.81413e-06 7.79034e-06 0)
(1.03077e-05 8.27939e-06 0)
(1.07918e-05 8.76544e-06 0)
(1.1267e-05 9.24883e-06 0)
(1.1734e-05 9.7299e-06 0)
(1.21934e-05 1.0209e-05 0)
(1.26461e-05 1.06864e-05 0)
(1.30929e-05 1.11623e-05 0)
(1.35346e-05 1.1637e-05 0)
(1.39725e-05 1.21105e-05 0)
(1.44074e-05 1.25831e-05 0)
(1.48411e-05 1.30544e-05 0)
(1.52757e-05 1.35245e-05 0)
(5.74015e-06 4.01306e-06 0)
(6.27709e-06 4.52108e-06 0)
(6.81355e-06 5.027e-06 0)
(7.34154e-06 5.53329e-06 0)
(7.86336e-06 6.03786e-06 0)
(8.37651e-06 6.54018e-06 0)
(8.88147e-06 7.03983e-06 0)
(9.37762e-06 7.53663e-06 0)
(9.86524e-06 8.03054e-06 0)
(1.03445e-05 8.52161e-06 0)
(1.08157e-05 9.00997e-06 0)
(1.12795e-05 9.49575e-06 0)
(1.17364e-05 9.97909e-06 0)
(1.21871e-05 1.04601e-05 0)
(1.26323e-05 1.09388e-05 0)
(1.30729e-05 1.14153e-05 0)
(1.35098e-05 1.18895e-05 0)
(1.39443e-05 1.2361e-05 0)
(1.43772e-05 1.28295e-05 0)
(1.4811e-05 1.32949e-05 0)
(5.42234e-06 3.77367e-06 0)
(5.93926e-06 4.27352e-06 0)
(6.45784e-06 4.77477e-06 0)
(6.97e-06 5.27878e-06 0)
(7.47794e-06 5.78307e-06 0)
(7.979e-06 6.28674e-06 0)
(8.47353e-06 6.78895e-06 0)
(8.96072e-06 7.28915e-06 0)
(9.44072e-06 7.78701e-06 0)
(9.9135e-06 8.28232e-06 0)
(1.03794e-05 8.77495e-06 0)
(1.08387e-05 9.26482e-06 0)
(1.12919e-05 9.75189e-06 0)
(1.17396e-05 1.02361e-05 0)
(1.21825e-05 1.07173e-05 0)
(1.26212e-05 1.11953e-05 0)
(1.30567e-05 1.16699e-05 0)
(1.349e-05 1.21405e-05 0)
(1.39219e-05 1.26064e-05 0)
(1.43546e-05 1.30671e-05 0)
(5.13014e-06 3.54739e-06 0)
(5.6265e-06 4.03854e-06 0)
(6.12624e-06 4.53435e-06 0)
(6.6214e-06 5.03517e-06 0)
(7.11411e-06 5.53824e-06 0)
(7.60166e-06 6.04229e-06 0)
(8.08427e-06 6.54609e-06 0)
(8.56106e-06 7.04879e-06 0)
(9.03205e-06 7.54975e-06 0)
(9.49708e-06 8.0485e-06 0)
(9.95636e-06 8.54467e-06 0)
(1.04101e-05 9.038e-06 0)
(1.08587e-05 9.52822e-06 0)
(1.13026e-05 1.00151e-05 0)
(1.17424e-05 1.04984e-05 0)
(1.21787e-05 1.09777e-05 0)
(1.26122e-05 1.14525e-05 0)
(1.30439e-05 1.19222e-05 0)
(1.34744e-05 1.23857e-05 0)
(1.39057e-05 1.28423e-05 0)
(4.85826e-06 3.33357e-06 0)
(5.33386e-06 3.81586e-06 0)
(5.81416e-06 4.30576e-06 0)
(6.29157e-06 4.80275e-06 0)
(6.76809e-06 5.30384e-06 0)
(7.24107e-06 5.80743e-06 0)
(7.71067e-06 6.31197e-06 0)
(8.17594e-06 6.81631e-06 0)
(8.63681e-06 7.31955e-06 0)
(9.09306e-06 7.82095e-06 0)
(9.54476e-06 8.31993e-06 0)
(9.99205e-06 8.81603e-06 0)
(1.04352e-05 9.30882e-06 0)
(1.08746e-05 9.79791e-06 0)
(1.13107e-05 1.02828e-05 0)
(1.17441e-05 1.07631e-05 0)
(1.21752e-05 1.12381e-05 0)
(1.26049e-05 1.1707e-05 0)
(1.30337e-05 1.21683e-05 0)
(1.34632e-05 1.26213e-05 0)
(4.60179e-06 3.13138e-06 0)
(5.05663e-06 3.60491e-06 0)
(5.51719e-06 4.08868e-06 0)
(5.97637e-06 4.58142e-06 0)
(6.43606e-06 5.07998e-06 0)
(6.89374e-06 5.58244e-06 0)
(7.34952e-06 6.08698e-06 0)
(7.80243e-06 6.5922e-06 0)
(8.25236e-06 7.09693e-06 0)
(8.69901e-06 7.60023e-06 0)
(9.14238e-06 8.10131e-06 0)
(9.58253e-06 8.59952e-06 0)
(1.00197e-05 9.09427e-06 0)
(1.0454e-05 9.58502e-06 0)
(1.08859e-05 1.00712e-05 0)
(1.13159e-05 1.05522e-05 0)
(1.17442e-05 1.10272e-05 0)
(1.21717e-05 1.14953e-05 0)
(1.25985e-05 1.19548e-05 0)
(1.3026e-05 1.24049e-05 0)
(4.35623e-06 2.94003e-06 0)
(4.79039e-06 3.40514e-06 0)
(5.23106e-06 3.88278e-06 0)
(5.67173e-06 4.37105e-06 0)
(6.11417e-06 4.86665e-06 0)
(6.55606e-06 5.36746e-06 0)
(6.99745e-06 5.87137e-06 0)
(7.43744e-06 6.37679e-06 0)
(7.87583e-06 6.8823e-06 0)
(8.31231e-06 7.38678e-06 0)
(8.74681e-06 7.88926e-06 0)
(9.1793e-06 8.38891e-06 0)
(9.6099e-06 8.88502e-06 0)
(1.00388e-05 9.37691e-06 0)
(1.04662e-05 9.86391e-06 0)
(1.08924e-05 1.03453e-05 0)
(1.13177e-05 1.08202e-05 0)
(1.17427e-05 1.12876e-05 0)
(1.21673e-05 1.17458e-05 0)
(1.25926e-05 1.21939e-05 0)
(4.11736e-06 2.75886e-06 0)
(4.5309e-06 3.21601e-06 0)
(4.95161e-06 3.68766e-06 0)
(5.37361e-06 4.17138e-06 0)
(5.79856e-06 4.66377e-06 0)
(6.22435e-06 5.16249e-06 0)
(6.65102e-06 5.66524e-06 0)
(7.07771e-06 6.17024e-06 0)
(7.50421e-06 6.67588e-06 0)
(7.93016e-06 7.18087e-06 0)
(8.35543e-06 7.68407e-06 0)
(8.77995e-06 8.18452e-06 0)
(9.20373e-06 8.68139e-06 0)
(9.62687e-06 9.17389e-06 0)
(1.00495e-05 9.66127e-06 0)
(1.04718e-05 1.01428e-05 0)
(1.08939e-05 1.06174e-05 0)
(1.13162e-05 1.10843e-05 0)
(1.17386e-05 1.15416e-05 0)
(1.21615e-05 1.19885e-05 0)
(3.88111e-06 2.58722e-06 0)
(4.27403e-06 3.03702e-06 0)
(4.67471e-06 3.50292e-06 0)
(5.07795e-06 3.98211e-06 0)
(5.48529e-06 4.47111e-06 0)
(5.89483e-06 4.96739e-06 0)
(6.30663e-06 5.46853e-06 0)
(6.71987e-06 5.97255e-06 0)
(7.13432e-06 6.47772e-06 0)
(7.54959e-06 6.98258e-06 0)
(7.96551e-06 7.48587e-06 0)
(8.38193e-06 7.98651e-06 0)
(8.79878e-06 8.48356e-06 0)
(9.21606e-06 8.97616e-06 0)
(9.63381e-06 9.46349e-06 0)
(1.00521e-05 9.94476e-06 0)
(1.0471e-05 1.04191e-05 0)
(1.08905e-05 1.08854e-05 0)
(1.13106e-05 1.13423e-05 0)
(1.1731e-05 1.17889e-05 0)
(3.64345e-06 2.42488e-06 0)
(4.01565e-06 2.86791e-06 0)
(4.39623e-06 3.32834e-06 0)
(4.78066e-06 3.80306e-06 0)
(5.17035e-06 4.28851e-06 0)
(5.56366e-06 4.78206e-06 0)
(5.96061e-06 5.28114e-06 0)
(6.36044e-06 5.78368e-06 0)
(6.7629e-06 6.28779e-06 0)
(7.16757e-06 6.79191e-06 0)
(7.57422e-06 7.29468e-06 0)
(7.98261e-06 7.79491e-06 0)
(8.39261e-06 8.29158e-06 0)
(8.80411e-06 8.78378e-06 0)
(9.21703e-06 9.27064e-06 0)
(9.63134e-06 9.75138e-06 0)
(1.0047e-05 1.02251e-05 0)
(1.04638e-05 1.06911e-05 0)
(1.08816e-05 1.11479e-05 0)
(1.12998e-05 1.15949e-05 0)
(3.40021e-06 2.27139e-06 0)
(3.75146e-06 2.70824e-06 0)
(4.11182e-06 3.16348e-06 0)
(4.47743e-06 3.63379e-06 0)
(4.84956e-06 4.11557e-06 0)
(5.22678e-06 4.60611e-06 0)
(5.60909e-06 5.10274e-06 0)
(5.99578e-06 5.60329e-06 0)
(6.38654e-06 6.1058e-06 0)
(6.78092e-06 6.60862e-06 0)
(7.17862e-06 7.11028e-06 0)
(7.57931e-06 7.60955e-06 0)
(7.98276e-06 8.10533e-06 0)
(8.38874e-06 8.59664e-06 0)
(8.79709e-06 9.08265e-06 0)
(9.20762e-06 9.56255e-06 0)
(9.62016e-06 1.00356e-05 0)
(1.00344e-05 1.05011e-05 0)
(1.04501e-05 1.09581e-05 0)
(1.08662e-05 1.14061e-05 0)
(3.14707e-06 2.12723e-06 0)
(3.47705e-06 2.55834e-06 0)
(3.81703e-06 3.00852e-06 0)
(4.16388e-06 3.47436e-06 0)
(4.51863e-06 3.95225e-06 0)
(4.88008e-06 4.4394e-06 0)
(5.24816e-06 4.93311e-06 0)
(5.62219e-06 5.43115e-06 0)
(6.00179e-06 5.93148e-06 0)
(6.38646e-06 6.4324e-06 0)
(6.77578e-06 6.93239e-06 0)
(7.16935e-06 7.43014e-06 0)
(7.56681e-06 7.92451e-06 0)
(7.9678e-06 8.41451e-06 0)
(8.37202e-06 8.89926e-06 0)
(8.77917e-06 9.37804e-06 0)
(9.18894e-06 9.85018e-06 0)
(9.60091e-06 1.03152e-05 0)
(1.00146e-05 1.07725e-05 0)
(1.0429e-05 1.12219e-05 0)
(2.87903e-06 1.99171e-06 0)
(3.18733e-06 2.41741e-06 0)
(3.50684e-06 2.86261e-06 0)
(3.83506e-06 3.3239e-06 0)
(4.17279e-06 3.79765e-06 0)
(4.51901e-06 4.28106e-06 0)
(4.87353e-06 4.77141e-06 0)
(5.23567e-06 5.26643e-06 0)
(5.60495e-06 5.76406e-06 0)
(5.98078e-06 6.26254e-06 0)
(6.36264e-06 6.76033e-06 0)
(6.74999e-06 7.25608e-06 0)
(7.14233e-06 7.7486e-06 0)
(7.53915e-06 8.23689e-06 0)
(7.94001e-06 8.72008e-06 0)
(8.34443e-06 9.19745e-06 0)
(8.75198e-06 9.66848e-06 0)
(9.1621e-06 1.01328e-05 0)
(9.57422e-06 1.05904e-05 0)
(9.98721e-06 1.10415e-05 0)
(2.59108e-06 1.86687e-06 0)
(2.8773e-06 2.28704e-06 0)
(3.17628e-06 2.72693e-06 0)
(3.48617e-06 3.18319e-06 0)
(3.80746e-06 3.65223e-06 0)
(4.13922e-06 4.13126e-06 0)
(4.48112e-06 4.61756e-06 0)
(4.83243e-06 5.10887e-06 0)
(5.19253e-06 5.60311e-06 0)
(5.56073e-06 6.0985e-06 0)
(5.93636e-06 6.59348e-06 0)
(6.31872e-06 7.08667e-06 0)
(6.70714e-06 7.57688e-06 0)
(7.10096e-06 8.06307e-06 0)
(7.49952e-06 8.54439e-06 0)
(7.9022e-06 9.02014e-06 0)
(8.30836e-06 9.48988e-06 0)
(8.71731e-06 9.95343e-06 0)
(9.12838e-06 1.04111e-05 0)
(9.54045e-06 1.08636e-05 0)
(2.27601e-06 1.74983e-06 0)
(2.53985e-06 2.16438e-06 0)
(2.8185e-06 2.59869e-06 0)
(3.11068e-06 3.04958e-06 0)
(3.41646e-06 3.51348e-06 0)
(3.73494e-06 3.98766e-06 0)
(4.0656e-06 4.46942e-06 0)
(4.40758e-06 4.9565e-06 0)
(4.76012e-06 5.44685e-06 0)
(5.12235e-06 5.93868e-06 0)
(5.49343e-06 6.4304e-06 0)
(5.87249e-06 6.92065e-06 0)
(6.25869e-06 7.40822e-06 0)
(6.65117e-06 7.89207e-06 0)
(7.04906e-06 8.37133e-06 0)
(7.45149e-06 8.84533e-06 0)
(7.85762e-06 9.31366e-06 0)
(8.26651e-06 9.77627e-06 0)
(8.67735e-06 1.02337e-05 0)
(9.08903e-06 1.06872e-05 0)
(1.92957e-06 1.64735e-06 0)
(2.17087e-06 2.05494e-06 0)
(2.4297e-06 2.48231e-06 0)
(2.705e-06 2.92645e-06 0)
(2.9965e-06 3.38391e-06 0)
(3.30316e-06 3.85199e-06 0)
(3.62422e-06 4.32802e-06 0)
(3.95865e-06 4.80979e-06 0)
(4.30548e-06 5.29523e-06 0)
(4.66365e-06 5.78258e-06 0)
(5.03213e-06 6.27025e-06 0)
(5.40987e-06 6.75688e-06 0)
(5.79582e-06 7.24126e-06 0)
(6.18891e-06 7.72235e-06 0)
(6.58807e-06 8.19929e-06 0)
(6.99215e-06 8.67144e-06 0)
(7.40003e-06 9.13838e-06 0)
(7.81045e-06 9.60009e-06 0)
(8.22232e-06 1.00571e-05 0)
(8.63429e-06 1.05109e-05 0)
(2.76768e-07 2.96681e-08 0)
(8.36152e-07 1.83656e-07 0)
(1.43068e-06 4.70514e-07 0)
(2.06804e-06 8.71551e-07 0)
(2.76035e-06 1.37573e-06 0)
(3.51152e-06 1.96522e-06 0)
(4.32451e-06 2.62083e-06 0)
(5.19795e-06 3.32245e-06 0)
(6.12919e-06 4.04983e-06 0)
(7.11334e-06 4.78606e-06 0)
(2.60703e-07 2.64832e-08 0)
(7.88189e-07 1.64818e-07 0)
(1.34739e-06 4.25244e-07 0)
(1.94427e-06 7.92672e-07 0)
(2.58988e-06 1.25876e-06 0)
(3.28784e-06 1.80852e-06 0)
(4.04117e-06 2.4253e-06 0)
(4.84864e-06 3.09135e-06 0)
(5.70725e-06 3.7873e-06 0)
(6.61193e-06 4.4996e-06 0)
(2.46262e-07 2.27331e-08 0)
(7.45156e-07 1.45779e-07 0)
(1.2731e-06 3.81523e-07 0)
(1.83411e-06 7.17621e-07 0)
(2.43804e-06 1.14778e-06 0)
(3.08794e-06 1.6593e-06 0)
(3.78706e-06 2.23769e-06 0)
(4.53491e-06 2.86764e-06 0)
(5.33031e-06 3.53159e-06 0)
(6.16784e-06 4.21972e-06 0)
(2.33044e-07 1.83844e-08 0)
(7.05943e-07 1.26652e-07 0)
(1.2062e-06 3.40081e-07 0)
(1.73607e-06 6.48285e-07 0)
(2.30433e-06 1.04649e-06 0)
(2.91325e-06 1.52375e-06 0)
(3.56583e-06 2.06713e-06 0)
(4.26124e-06 2.66295e-06 0)
(4.99954e-06 3.29462e-06 0)
(5.77418e-06 3.95356e-06 0)
(2.20691e-07 1.33966e-08 0)
(6.69357e-07 1.068e-07 0)
(1.14422e-06 2.99083e-07 0)
(1.64589e-06 5.8132e-07 0)
(2.18222e-06 9.49851e-07 0)
(2.75474e-06 1.39514e-06 0)
(3.3664e-06 1.90563e-06 0)
(4.01604e-06 2.46916e-06 0)
(4.70495e-06 3.07055e-06 0)
(5.42455e-06 3.70118e-06 0)
(2.09092e-07 7.84765e-09 0)
(6.35062e-07 8.63282e-08 0)
(1.08653e-06 2.58693e-07 0)
(1.56264e-06 5.1708e-07 0)
(2.07042e-06 8.58635e-07 0)
(2.61061e-06 1.27484e-06 0)
(3.18604e-06 1.75515e-06 0)
(3.79496e-06 2.28839e-06 0)
(4.43986e-06 2.86073e-06 0)
(5.11077e-06 3.46304e-06 0)
(1.98022e-07 1.71518e-09 0)
(6.02352e-07 6.49583e-08 0)
(1.03178e-06 2.18093e-07 0)
(1.48415e-06 4.54044e-07 0)
(1.96581e-06 7.70552e-07 0)
(2.47679e-06 1.15989e-06 0)
(3.01982e-06 1.61239e-06 0)
(3.59266e-06 2.11762e-06 0)
(4.19856e-06 2.66307e-06 0)
(4.82661e-06 3.23874e-06 0)
(1.87387e-07 -4.9263e-09 0)
(5.70942e-07 4.2767e-08 0)
(9.79433e-07 1.77282e-07 0)
(1.40951e-06 3.92122e-07 0)
(1.86695e-06 6.85439e-07 0)
(2.35115e-06 1.05005e-06 0)
(2.86474e-06 1.47699e-06 0)
(3.40505e-06 1.9563e-06 0)
(3.97587e-06 2.47668e-06 0)
(4.56597e-06 3.02742e-06 0)
(1.77056e-07 -1.20766e-08 0)
(5.40429e-07 1.96442e-08 0)
(9.28734e-07 1.35895e-07 0)
(1.33754e-06 3.30612e-07 0)
(1.77216e-06 6.02232e-07 0)
(2.23143e-06 9.43968e-07 0)
(2.71787e-06 1.3474e-06 0)
(3.22858e-06 1.80292e-06 0)
(3.76754e-06 2.30023e-06 0)
(4.32368e-06 2.82808e-06 0)
(1.66949e-07 -1.96899e-08 0)
(5.10578e-07 -4.37465e-09 0)
(8.7924e-07 9.38825e-08 0)
(1.26751e-06 2.69346e-07 0)
(1.68028e-06 5.20617e-07 0)
(2.11592e-06 8.41152e-07 0)
(2.57687e-06 1.22295e-06 0)
(3.06014e-06 1.65661e-06 0)
(3.56971e-06 2.1327e-06 0)
(4.09506e-06 2.63967e-06 0)
(1.56985e-07 -2.77603e-08 0)
(4.81154e-07 -2.93408e-08 0)
(8.30512e-07 5.10643e-08 0)
(1.19869e-06 2.07987e-07 0)
(1.59019e-06 4.40077e-07 0)
(2.00307e-06 7.40922e-07 0)
(2.43965e-06 1.1028e-06 0)
(2.89701e-06 1.51649e-06 0)
(3.37901e-06 1.97317e-06 0)
(3.87593e-06 2.46122e-06 0)
(1.47111e-07 -3.62748e-08 0)
(4.52007e-07 -5.52615e-08 0)
(7.82248e-07 7.38104e-09 0)
(1.13054e-06 1.46422e-07 0)
(1.50102e-06 3.60422e-07 0)
(1.89154e-06 6.42983e-07 0)
(2.30434e-06 9.86535e-07 0)
(2.73672e-06 1.38197e-06 0)
(3.19234e-06 1.82096e-06 0)
(3.66244e-06 2.29195e-06 0)
(1.37295e-07 -4.52537e-08 0)
(4.23072e-07 -8.22157e-08 0)
(7.34255e-07 -3.73061e-08 0)
(1.06263e-06 8.44705e-08 0)
(1.41198e-06 2.81417e-07 0)
(1.78009e-06 5.4703e-07 0)
(2.16919e-06 8.73763e-07 0)
(2.57693e-06 1.25258e-06 0)
(3.00674e-06 1.6755e-06 0)
(3.45092e-06 2.13119e-06 0)
(1.27536e-07 -5.47722e-08 0)
(3.94392e-07 -1.10299e-07 0)
(6.8647e-07 -8.30488e-08 0)
(9.94644e-07 2.21775e-08 0)
(1.32239e-06 2.03167e-07 0)
(1.66758e-06 4.53173e-07 0)
(2.03253e-06 7.64546e-07 0)
(2.41535e-06 1.12829e-06 0)
(2.81931e-06 1.53669e-06 0)
(3.2378e-06 1.97869e-06 0)
(1.17919e-07 -6.49702e-08 0)
(3.66314e-07 -1.39756e-07 0)
(6.39147e-07 -1.30064e-07 0)
(9.26525e-07 -4.0595e-08 0)
(1.23168e-06 1.25603e-07 0)
(1.55287e-06 3.61354e-07 0)
(1.8926e-06 6.58793e-07 0)
(2.24961e-06 1.00894e-06 0)
(2.627e-06 1.40426e-06 0)
(3.01934e-06 1.83405e-06 0)
(1.08633e-07 -7.63195e-08 0)
(3.39422e-07 -1.70943e-07 0)
(5.92731e-07 -1.78286e-07 0)
(8.58301e-07 -1.03311e-07 0)
(1.13933e-06 4.95638e-08 0)
(1.4348e-06 2.72559e-07 0)
(1.74761e-06 5.57508e-07 0)
(2.07723e-06 8.95445e-07 0)
(2.42668e-06 1.27902e-06 0)
(2.79172e-06 1.69794e-06 0)
(1.00359e-07 -8.93861e-08 0)
(3.15487e-07 -2.04568e-07 0)
(5.48683e-07 -2.28164e-07 0)
(7.90594e-07 -1.66259e-07 0)
(1.04497e-06 -2.50987e-08 0)
(1.31205e-06 1.86653e-07 0)
(1.59535e-06 4.60504e-07 0)
(1.89518e-06 7.87526e-07 0)
(2.21453e-06 1.16055e-06 0)
(2.55036e-06 1.56975e-06 0)
(9.45817e-08 -1.06586e-07 0)
(2.96627e-07 -2.41725e-07 0)
(5.0848e-07 -2.78735e-07 0)
(7.23751e-07 -2.26996e-07 0)
(9.47958e-07 -9.52625e-08 0)
(1.18304e-06 1.07002e-07 0)
(1.43343e-06 3.71107e-07 0)
(1.7003e-06 6.8832e-07 0)
(1.98669e-06 1.05171e-06 0)
(2.29069e-06 1.45201e-06 0)
(9.83756e-08 -1.29728e-07 0)
(2.9048e-07 -2.83776e-07 0)
(4.76971e-07 -3.30917e-07 0)
(6.59458e-07 -2.86857e-07 0)
(8.47515e-07 -1.62535e-07 0)
(1.04522e-06 3.16674e-08 0)
(1.25795e-06 2.87105e-07 0)
(1.48761e-06 5.95362e-07 0)
(1.73725e-06 9.49853e-07 0)
(2.0059e-06 1.34187e-06 0)
(1.27161e-07 -1.71641e-07 0)
(3.0213e-07 -3.317e-07 0)
(4.56566e-07 -3.78148e-07 0)
(5.97503e-07 -3.35696e-07 0)
(7.42443e-07 -2.16143e-07 0)
(8.96578e-07 -2.86902e-08 0)
(1.06636e-06 2.1863e-07 0)
(1.25402e-06 5.18136e-07 0)
(1.46269e-06 8.63677e-07 0)
(1.69193e-06 1.24722e-06 0)
)
;

boundaryField
{
    left
    {
        type            fixedDisplacement;
        value           uniform (0 0 0);
    }
    right
    {
        type            solidTraction;
        tractionSeries  
{
        file            "$FOAM_CASE/constant/timeVsTraction";
        outOfBounds     clamp;
}
        pressure        uniform 0;
        secondOrder     false;
        setEffectiveTraction false;
        relaxationFactor 1;
        value           nonuniform List<vector> 
30
(
(2.2907e-05 1.67944e-05 4.14643e-22)
(2.23732e-05 1.66019e-05 4.50934e-23)
(2.18347e-05 1.64107e-05 -1.67685e-25)
(2.12899e-05 1.62173e-05 4.32565e-22)
(2.0739e-05 1.60195e-05 -1.94397e-22)
(2.01832e-05 1.58153e-05 -1.70521e-22)
(1.96245e-05 1.56035e-05 -8.88538e-23)
(1.90652e-05 1.53834e-05 -2.767e-22)
(1.85078e-05 1.5155e-05 2.82472e-22)
(1.79546e-05 1.49191e-05 1.93892e-22)
(1.74315e-05 1.46869e-05 3.25686e-24)
(1.69354e-05 1.44587e-05 1.00313e-36)
(1.64465e-05 1.42271e-05 1.04195e-22)
(1.59655e-05 1.39933e-05 1.02365e-22)
(1.54931e-05 1.37588e-05 -2.01198e-22)
(1.5028e-05 1.35252e-05 6.60619e-37)
(1.45712e-05 1.32934e-05 1.308e-36)
(1.41216e-05 1.30651e-05 -9.56785e-23)
(1.36782e-05 1.28412e-05 9.44277e-23)
(1.32399e-05 1.26226e-05 6.37271e-37)
(1.28053e-05 1.241e-05 6.39375e-37)
(1.23729e-05 1.22039e-05 6.37144e-37)
(1.19413e-05 1.20043e-05 3.18626e-37)
(1.15089e-05 1.18111e-05 -1.14451e-38)
(1.10742e-05 1.16238e-05 -3.41646e-37)
(1.06361e-05 1.14417e-05 -9.83755e-37)