/*--------------------------------*- C++ -*----------------------------------*\
  =========                 |
  \\      /  F ield         | OpenFOAM: The Open Source CFD Toolbox
   \\    /   O peration     | Website:  https://openfoam.org
    \\  /    A nd           | Version:  9
     \\/     M anipulation  |
\*---------------------------------------------------------------------------*/
FoamFile
{
    format      ascii;
    class       surfaceSymmTensorField;
    location    "15";
    object      epsilonPf;
}
// * * * * * * * * * * * * * * * * * * * * * * * * * * * * * * * * * * * * * //

dimensions      [0 0 0 0 0 0 0];

internalField   uniform (0 0 0 0 0 0);

boundaryField
{
    left
    {
        type            calculated;
        value           uniform (0 0 0 0 0 0);
    }
    right
    {
        type            calculated;
        value           uniform (0 0 0 0 0 0);
    }
    down
    {
        type            calculated;
        value           uniform (0 0 0 0 0 0);
    }
    up
    {
        type            calculated;
        value           uniform (0 0 0 0 0 0);
    }
    hole
    {
        type            calculated;
        value           uniform (0 0 0 0 0 0);
    }
    frontAndBack
    {
        type            empty;
        value           nonuniform List<symmTensor> 0();
    }
}


// ************************************************************************* //
