/*--------------------------------*- C++ -*----------------------------------*\
  =========                 |
  \\      /  F ield         | OpenFOAM: The Open Source CFD Toolbox
   \\    /   O peration     | Website:  https://openfoam.org
    \\  /    A nd           | Version:  9
     \\/     M anipulation  |
\*---------------------------------------------------------------------------*/
FoamFile
{
    format      ascii;
    class       volScalarField;
    location    "15";
    object      epsilonEq;
}
// * * * * * * * * * * * * * * * * * * * * * * * * * * * * * * * * * * * * * //

dimensions      [0 0 0 0 0 0 0];

internalField   nonuniform List<scalar> 
1000
(
1.02251e-05
9.70594e-06
9.55846e-06
9.63008e-06
9.64034e-06
9.61968e-06
9.55263e-06
9.45077e-06
9.33664e-06
9.19527e-06
1.19192e-05
1.08202e-05
1.02902e-05
1.0125e-05
9.97868e-06
9.85273e-06
9.70701e-06
9.55217e-06
9.37753e-06
9.22294e-06
1.35754e-05
1.18938e-05
1.09528e-05
1.05177e-05
1.0189e-05
9.93845e-06
9.70071e-06
9.47971e-06
9.24821e-06
9.06255e-06
1.51609e-05
1.29134e-05
1.15477e-05
1.0817e-05
1.02836e-05
9.89241e-06
9.55316e-06
9.26149e-06
8.97489e-06
8.7563e-06
1.66271e-05
1.38548e-05
1.20639e-05
1.10209e-05
1.02645e-05
9.71915e-06
9.27098e-06
8.9045e-06
8.56588e-06
8.3123e-06
1.79794e-05
1.47104e-05
1.24938e-05
1.11283e-05
1.01363e-05
9.42894e-06
8.86856e-06
8.42667e-06
8.03924e-06
7.74975e-06
1.91437e-05
1.54245e-05
1.2777e-05
1.1094e-05
9.87463e-06
9.01529e-06
8.35376e-06
7.8456e-06
7.41912e-06
7.097e-06
2.02382e-05
1.59663e-05
1.2859e-05
1.08899e-05
9.47742e-06
8.50027e-06
7.76728e-06
7.21599e-06
6.76922e-06
6.425e-06
2.0998e-05
1.60225e-05
1.24563e-05
1.03167e-05
8.85382e-06
7.86188e-06
7.13279e-06
6.58619e-06
6.15006e-06
5.80115e-06
2.1657e-05
1.51001e-05
1.14991e-05
9.49298e-06
8.22438e-06
7.34579e-06
6.69816e-06
6.1937e-06
5.78522e-06
5.43831e-06
2.83331e-08
8.2089e-08
3.67844e-07
7.63513e-07
1.1991e-06
1.64932e-06
2.08717e-06
2.50456e-06
2.8881e-06
3.24358e-06
9.63961e-08
5.11882e-07
1.09211e-06
1.66372e-06
2.17155e-06
2.62277e-06
3.0169e-06
3.36936e-06
3.67233e-06
3.95669e-06
4.21921e-07
1.21931e-06
1.95193e-06
2.61567e-06
3.16999e-06
3.63066e-06
4.00545e-06
4.31964e-06
4.56631e-06
4.799e-06
9.70821e-07
2.08455e-06
2.91115e-06
3.61124e-06
4.16959e-06
4.61733e-06
4.96566e-06
5.24426e-06
5.44464e-06
5.63635e-06
1.75166e-06
3.0596e-06
3.9408e-06
4.64633e-06
5.17876e-06
5.59089e-06
5.89814e-06
6.13287e-06
6.28571e-06
6.43578e-06
2.76117e-06
4.09783e-06
4.98033e-06
5.66554e-06
6.15315e-06
6.51552e-06
6.77194e-06
6.95642e-06
7.0606e-06
7.16681e-06
3.97842e-06
5.18148e-06
6.00112e-06
6.6381e-06
7.06588e-06
7.36889e-06
7.56817e-06
7.69827e-06
7.75343e-06
7.81333e-06
5.37388e-06
6.29567e-06
6.97875e-06
7.53348e-06
7.88593e-06
8.12182e-06
8.261e-06
8.33502e-06
8.34519e-06
8.35628e-06
6.90848e-06
7.42964e-06
7.90181e-06
8.33613e-06
8.5955e-06
8.75628e-06
8.83141e-06
8.84925e-06
8.8166e-06
8.78547e-06
8.54077e-06
8.57106e-06
8.76244e-06
9.03487e-06
9.17997e-06
9.2541e-06
9.26038e-06
9.21689e-06
9.15509e-06
9.05791e-06
3.5636e-06
3.83903e-06
4.09434e-06
4.32528e-06
4.53412e-06
4.72204e-06
4.89077e-06
5.04159e-06
5.17598e-06
5.295e-06
5.3997e-06
5.49082e-06
5.56894e-06
5.63445e-06
5.68753e-06
5.72842e-06
5.75698e-06
5.77411e-06
5.77957e-06
5.77624e-06
4.17668e-06
4.33739e-06
4.4993e-06
4.64987e-06
4.79114e-06
4.92245e-06
5.04383e-06
5.15522e-06
5.25698e-06
5.3492e-06
5.43228e-06
5.50641e-06
5.57185e-06
5.62878e-06
5.6772e-06
5.71715e-06
5.74805e-06
5.76954e-06
5.77873e-06
5.77369e-06
4.92919e-06
4.98104e-06
5.04682e-06
5.1104e-06
5.17506e-06
5.23947e-06
5.3032e-06
5.36514e-06
5.42503e-06
5.48208e-06
5.53612e-06
5.58672e-06
5.63372e-06
5.67682e-06
5.71563e-06
5.74957e-06
5.77712e-06
5.79654e-06
5.80194e-06
5.78979e-06
5.69215e-06
5.65323e-06
5.6362e-06
5.62282e-06
5.61682e-06
5.61731e-06
5.62417e-06
5.63579e-06
5.65194e-06
5.67117e-06
5.69307e-06
5.71668e-06
5.74145e-06
5.76664e-06
5.79134e-06
5.81445e-06
5.83368e-06
5.84674e-06
5.84662e-06
5.83009e-06
6.42595e-06
6.31228e-06
6.22406e-06
6.14456e-06
6.07641e-06
6.01889e-06
5.97301e-06
5.93649e-06
5.90976e-06
5.89094e-06
5.87967e-06
5.87466e-06
5.87514e-06
5.88002e-06
5.88806e-06
5.89784e-06
5.9067e-06
5.91219e-06
5.90755e-06
5.89012e-06
7.09908e-06
6.92585e-06
6.77868e-06
6.64377e-06
6.52355e-06
6.41578e-06
6.32378e-06
6.24402e-06
6.17795e-06
6.1233e-06
6.07997e-06
6.04652e-06
6.02219e-06
6.00575e-06
5.9959e-06
5.99112e-06
5.98894e-06
5.98708e-06
5.98017e-06
5.96586e-06
7.69536e-06
7.47732e-06
7.28531e-06
7.1048e-06
6.9431e-06
6.79248e-06
6.66059e-06
6.54235e-06
6.44055e-06
6.35285e-06
6.27942e-06
6.2189e-06
6.17054e-06
6.13319e-06
6.10564e-06
6.08646e-06
6.07376e-06
6.06556e-06
6.05867e-06
6.05073e-06
8.19842e-06
7.94907e-06
7.7296e-06
7.51168e-06
7.31952e-06
7.13558e-06
6.97202e-06
6.82236e-06
6.69003e-06
6.57316e-06
6.4722e-06
6.38624e-06
6.31481e-06
6.25702e-06
6.21204e-06
6.17874e-06
6.15609e-06
6.14256e-06
6.13758e-06
6.1386e-06
8.60624e-06
8.32924e-06
8.10968e-06
7.86582e-06
7.65047e-06
7.43949e-06
7.24803e-06
7.0714e-06
6.91256e-06
6.77058e-06
6.64575e-06
6.53756e-06
6.44572e-06
6.36966e-06
6.30897e-06
6.26294e-06
6.2316e-06
6.21392e-06
6.21221e-06
6.22358e-06
8.91017e-06
8.61388e-06
8.40845e-06
8.16661e-06
7.94202e-06
7.71924e-06
7.50835e-06
7.31019e-06
7.12766e-06
6.96176e-06
6.81337e-06
6.68274e-06
6.57002e-06
6.47507e-06
6.39802e-06
6.33866e-06
6.29809e-06
6.27596e-06
6.27756e-06
6.29988e-06
9.02834e-06
8.75028e-06
8.54772e-06
8.31977e-06
8.09571e-06
7.87305e-06
7.65825e-06
7.45349e-06
7.26209e-06
7.08562e-06
6.92562e-06
6.78288e-06
6.65813e-06
6.55174e-06
6.46447e-06
6.39667e-06
6.35053e-06
6.32619e-06
6.33134e-06
6.36289e-06
8.79645e-06
8.65353e-06
8.46854e-06
8.27058e-06
8.06832e-06
7.86413e-06
7.66411e-06
7.47061e-06
7.28732e-06
7.11616e-06
6.95918e-06
6.81763e-06
6.69273e-06
6.58537e-06
6.49686e-06
6.42811e-06
6.38207e-06
6.35944e-06
6.36966e-06
6.40924e-06
8.60965e-06
8.50155e-06
8.35979e-06
8.19036e-06
8.0142e-06
7.82974e-06
7.64593e-06
7.46482e-06
7.29093e-06
7.12649e-06
6.97404e-06
6.83524e-06
6.71177e-06
6.60495e-06
6.51655e-06
6.44799e-06
6.40286e-06
6.38199e-06
6.3959e-06
6.4409e-06
8.38738e-06
8.32251e-06
8.21626e-06
8.07459e-06
7.92342e-06
7.7591e-06
7.5926e-06
7.42562e-06
7.26338e-06
7.10821e-06
6.96306e-06
6.82986e-06
6.7106e-06
6.60693e-06
6.52089e-06
6.45441e-06
6.41092e-06
6.3924e-06
6.41006e-06
6.458e-06
8.13429e-06
8.10365e-06
8.03085e-06
7.91827e-06
7.79373e-06
7.65199e-06
7.50523e-06
7.35496e-06
7.20693e-06
7.06363e-06
6.92835e-06
6.80324e-06
6.69053e-06
6.59218e-06
6.51017e-06
6.44727e-06
6.40532e-06
6.39158e-06
6.40038e-06
6.45938e-06
7.86494e-06
7.86477e-06
7.82206e-06
7.73679e-06
7.63739e-06
7.51798e-06
7.39125e-06
7.25862e-06
7.12612e-06
6.99636e-06
6.87282e-06
6.75779e-06
6.6537e-06
6.56252e-06
6.48668e-06
6.42813e-06
6.39095e-06
6.37722e-06
6.39551e-06
6.44162e-06
7.58412e-06
7.60911e-06
7.59268e-06
7.53292e-06
7.45738e-06
7.36011e-06
7.25369e-06
7.13949e-06
7.02363e-06
6.90878e-06
6.79851e-06
6.6952e-06
6.60135e-06
6.51894e-06
6.45038e-06
6.39748e-06
6.36415e-06
6.35122e-06
6.3681e-06
6.41138e-06
7.29754e-06
7.34337e-06
7.34983e-06
7.3131e-06
7.25952e-06
7.18341e-06
7.09683e-06
7.0012e-06
6.90253e-06
6.80348e-06
6.70761e-06
6.6173e-06
6.53502e-06
6.46267e-06
6.40252e-06
6.35614e-06
6.32692e-06
6.31576e-06
6.33051e-06
6.36787e-06
7.00772e-06
7.07009e-06
7.09598e-06
7.07981e-06
7.04637e-06
6.99037e-06
6.92314e-06
6.84609e-06
6.76497e-06
6.68241e-06
6.60186e-06
6.52561e-06
6.45603e-06
6.39488e-06
6.34417e-06
6.30519e-06
6.28069e-06
6.27109e-06
6.28298e-06
6.31328e-06
6.71594e-06
6.79126e-06
6.83355e-06
6.83559e-06
6.82056e-06
6.78356e-06
6.73506e-06
6.67645e-06
6.61312e-06
6.54755e-06
6.48302e-06
6.4217e-06
6.36576e-06
6.31679e-06
6.27647e-06
6.24574e-06
6.22658e-06
6.21905e-06
6.22773e-06
6.24983e-06
6.42172e-06
6.50698e-06
6.56305e-06
6.58135e-06
6.58332e-06
6.56445e-06
6.53426e-06
6.49404e-06
6.44874e-06
6.40066e-06
6.35281e-06
6.30717e-06
6.26571e-06
6.22979e-06
6.20072e-06
6.1791e-06
6.16604e-06
6.16109e-06
6.1667e-06
6.18032e-06
6.12367e-06
6.21661e-06
6.2845e-06
6.31763e-06
6.33566e-06
6.3344e-06
6.32237e-06
6.30069e-06
6.27378e-06
6.24371e-06
6.21317e-06
6.18392e-06
6.15767e-06
6.13556e-06
6.11852e-06
6.10682e-06
6.10069e-06
6.09915e-06
6.10232e-06
6.10776e-06
5.81888e-06
5.91817e-06
5.99674e-06
6.04405e-06
6.07788e-06
6.09431e-06
6.10076e-06
6.09814e-06
6.09028e-06
6.07893e-06
6.06642e-06
6.05426e-06
6.04388e-06
6.03621e-06
6.03186e-06
6.03077e-06
6.03242e-06
6.03526e-06
6.03709e-06
6.03535e-06
5.50452e-06
5.60987e-06
5.69893e-06
5.76068e-06
5.81082e-06
5.84566e-06
5.87147e-06
5.88885e-06
5.90099e-06
5.90926e-06
5.91558e-06
5.92119e-06
5.92726e-06
5.93449e-06
5.94326e-06
5.9533e-06
5.96344e-06
5.97166e-06
5.97363e-06
5.96636e-06
5.17567e-06
5.28826e-06
5.38899e-06
5.46671e-06
5.53481e-06
5.58977e-06
5.63662e-06
5.6756e-06
5.70916e-06
5.73829e-06
5.76446e-06
5.78859e-06
5.8116e-06
5.83404e-06
5.85609e-06
5.87738e-06
5.89643e-06
5.91086e-06
5.91467e-06
5.9041e-06
4.83039e-06
4.95297e-06
5.06789e-06
5.1643e-06
5.25298e-06
5.33055e-06
5.40069e-06
5.46325e-06
5.51992e-06
5.57125e-06
5.61825e-06
5.66155e-06
5.70179e-06
5.73939e-06
5.77446e-06
5.80667e-06
5.83449e-06
5.85548e-06
5.86276e-06
5.85154e-06
4.46196e-06
4.59987e-06
4.73385e-06
4.85372e-06
4.9673e-06
5.0713e-06
5.16805e-06
5.25696e-06
5.33897e-06
5.41423e-06
5.48328e-06
5.54645e-06
5.60416e-06
5.65668e-06
5.70411e-06
5.74624e-06
5.78185e-06
5.80882e-06
5.82064e-06
5.81164e-06
4.07757e-06
4.23798e-06
4.39712e-06
4.54596e-06
4.68908e-06
4.82332e-06
4.94968e-06
5.0672e-06
5.17618e-06
5.27639e-06
5.36803e-06
5.45117e-06
5.52599e-06
5.59266e-06
5.65123e-06
5.70166e-06
5.7432e-06
5.77444e-06
5.79048e-06
5.78568e-06
3.66962e-06
3.86452e-06
4.05882e-06
4.24495e-06
4.42433e-06
4.594e-06
4.75393e-06
4.90294e-06
5.04089e-06
5.16738e-06
5.28238e-06
5.38579e-06
5.47761e-06
5.55781e-06
5.62628e-06
5.68292e-06
5.72724e-06
5.75893e-06
5.77574e-06
5.77533e-06
3.28603e-06
3.5252e-06
3.76142e-06
3.98867e-06
4.20664e-06
4.41238e-06
4.60554e-06
4.78481e-06
4.95006e-06
5.10085e-06
5.23716e-06
5.35888e-06
5.46589e-06
5.55799e-06
5.63472e-06
5.69571e-06
5.7401e-06
5.76822e-06
5.77931e-06
5.77749e-06
5.14499e-06
5.49351e-06
6.08683e-06
6.74032e-06
7.39e-06
7.96203e-06
8.42513e-06
8.75754e-06
8.96313e-06
9.00625e-06
4.87316e-06
5.19818e-06
5.74576e-06
6.36334e-06
6.99873e-06
7.58197e-06
8.0812e-06
8.46491e-06
8.73115e-06
8.83614e-06
4.62971e-06
4.93971e-06
5.44925e-06
6.02778e-06
6.6332e-06
7.20113e-06
7.70467e-06
8.1173e-06
8.43906e-06
8.63729e-06
4.40696e-06
4.70687e-06
5.1849e-06
5.72871e-06
6.30609e-06
6.85741e-06
7.35643e-06
7.77794e-06
8.11551e-06
8.37053e-06
4.19808e-06
4.49111e-06
4.94241e-06
5.45357e-06
6.00112e-06
6.53172e-06
7.02144e-06
7.4502e-06
7.79851e-06
8.08623e-06
4.00191e-06
4.29058e-06
4.71986e-06
5.20208e-06
5.72081e-06
6.22808e-06
6.70102e-06
7.12608e-06
7.47463e-06
7.78342e-06
3.81498e-06
4.10067e-06
4.51132e-06
4.96773e-06
5.45938e-06
5.94367e-06
6.39866e-06
6.81637e-06
7.15995e-06
7.4757e-06
3.63657e-06
3.91988e-06
4.31446e-06
4.74764e-06
5.21359e-06
5.67437e-06
6.1092e-06
6.51519e-06
6.85116e-06
7.16721e-06
3.46551e-06
3.74639e-06
4.12657e-06
4.53862e-06
4.98053e-06
5.41839e-06
5.83283e-06
6.22439e-06
6.55042e-06
6.86107e-06
3.30179e-06
3.57945e-06
3.9459e-06
4.33791e-06
4.75667e-06
5.17162e-06
5.56528e-06
5.94049e-06
6.25549e-06
6.55774e-06
3.14582e-06
3.41875e-06
3.77113e-06
4.14329e-06
4.53924e-06
4.93121e-06
5.3039e-06
5.66132e-06
5.96423e-06
6.25605e-06
2.99886e-06
3.26466e-06
3.6014e-06
3.95265e-06
4.32511e-06
4.69336e-06
5.04458e-06
5.38317e-06
5.6733e-06
5.95366e-06
2.86338e-06
3.11833e-06
3.43593e-06
3.76351e-06
4.11052e-06
4.45368e-06
4.78261e-06
5.10148e-06
5.37828e-06
5.64675e-06
2.74315e-06
2.98157e-06
3.27439e-06
3.57378e-06
3.89202e-06
4.20789e-06
4.51327e-06
4.81164e-06
5.07477e-06
5.33142e-06
2.64526e-06
2.85724e-06
3.11469e-06
3.3779e-06
3.66208e-06
3.94777e-06
4.22831e-06
4.50584e-06
4.75566e-06
5.00137e-06
2.57825e-06
2.74679e-06
2.95453e-06
3.17222e-06
3.41611e-06
3.66835e-06
3.92277e-06
4.17952e-06
4.41696e-06
4.65329e-06
2.56074e-06
2.65282e-06
2.7818e-06
2.93799e-06
3.13405e-06
3.35069e-06
3.57983e-06
3.81825e-06
4.04675e-06
4.27766e-06
2.59662e-06
2.55774e-06
2.58291e-06
2.66861e-06
2.81309e-06
2.99421e-06
3.20074e-06
3.42493e-06
3.64948e-06
3.88016e-06
2.73125e-06
2.43746e-06
2.297e-06
2.29663e-06
2.39545e-06
2.55216e-06
2.74891e-06
2.97182e-06
3.20498e-06
3.44714e-06
2.78946e-06
2.13683e-06
1.9031e-06
1.83627e-06
1.9129e-06
2.0628e-06
2.26698e-06
2.50495e-06
2.76122e-06
3.02793e-06
)
;

boundaryField
{
    left
    {
        type            calculated;
        value           nonuniform List<scalar> 
30
(
5.08547e-06
4.81686e-06
4.57643e-06
4.35634e-06
4.15037e-06
3.95738e-06
3.77422e-06
3.60035e-06
3.43487e-06
3.278e-06
3.13045e-06
2.99375e-06
2.87065e-06
2.76529e-06
2.68514e-06
2.64128e-06
2.65597e-06
2.7567e-06
3.0349e-06
3.47183e-06
2.30573e-05
1.47782e-05
1.1127e-05
9.24834e-06
8.07798e-06
7.24773e-06
6.625e-06
6.13065e-06
5.72687e-06
5.37863e-06
)
;
    }
    right
    {
        type            calculated;
        value           nonuniform List<scalar> 
30
(
5.77525e-06
5.77371e-06
5.78928e-06
5.82927e-06
5.88912e-06
5.96491e-06
6.05001e-06
6.1383e-06
6.22375e-06
6.30076e-06
6.36403e-06
6.41112e-06
6.44299e-06
6.46021e-06
6.45998e-06
6.44351e-06
6.41337e-06
6.36953e-06
6.31454e-06
6.25064e-06
6.18069e-06
6.10772e-06
6.03499e-06
5.96577e-06
5.90345e-06
5.85096e-06
5.81131e-06
5.78563e-06
5.77556e-06
5.77636e-06
)
;
    }
    down
    {
        type            calculated;
        value           nonuniform List<scalar> 
30
(
2.48992e-08
2.31861e-08
2.64722e-07
6.46712e-07
1.08741e-06
1.54842e-06
1.9991e-06
2.42886e-06
2.8233e-06
3.18877e-06
3.51769e-06
3.80455e-06
4.06796e-06
4.30487e-06
4.5186e-06
4.71015e-06
4.88188e-06
5.03498e-06
5.17124e-06
5.2917e-06
5.39755e-06
5.48954e-06
5.5683e-06
5.63426e-06
5.68757e-06
5.72853e-06
5.757e-06
5.77402e-06
5.77951e-06
5.77765e-06
)
;
    }
    up
    {
        type            calculated;
        value           nonuniform List<scalar> 
30
(
2.7489e-06
2.11172e-06
1.89003e-06
1.82186e-06
1.8964e-06
2.04406e-06
2.24686e-06
2.48443e-06
2.7405e-06
3.00835e-06
3.26728e-06
3.50837e-06
3.7469e-06
3.97607e-06
4.19602e-06
4.40349e-06
4.59827e-06
4.77897e-06
4.9455e-06
5.09741e-06
5.23471e-06
5.35725e-06
5.46495e-06
5.55759e-06
5.6347e-06
5.6959e-06
5.7403e-06
5.7683e-06
5.7792e-06
5.77837e-06
)
;
    }
    hole
    {
        type            calculated;
        value           nonuniform List<scalar> 
20
(
1.03e-05
1.20825e-05
1.38249e-05
1.54924e-05
1.70333e-05
1.84551e-05
1.96825e-05
2.08659e-05
2.17754e-05
2.28463e-05
5.97172e-09
6.51044e-09
2.04071e-07
6.92031e-07
1.45367e-06
2.48219e-06
3.74366e-06
5.20224e-06
6.81233e-06
8.52815e-06
)
;
    }
    frontAndBack
    {
        type            empty;
    }
}


// ************************************************************************* //
