/*--------------------------------*- C++ -*----------------------------------*\
  =========                 |
  \\      /  F ield         | OpenFOAM: The Open Source CFD Toolbox
   \\    /   O peration     | Website:  https://openfoam.org
    \\  /    A nd           | Version:  9
     \\/     M anipulation  |
\*---------------------------------------------------------------------------*/
FoamFile
{
    format      ascii;
    class       pointVectorField;
    location    "15";
    object      pointD;
}
// * * * * * * * * * * * * * * * * * * * * * * * * * * * * * * * * * * * * * //

dimensions      [0 1 0 0 0 0 0];

internalField   nonuniform List<vector> 
2142
(
(1.11166e-05 3.25584e-06 -6.36285e-23)
(1.03026e-05 3.77039e-06 0)
(9.73372e-06 4.13722e-06 0)
(9.31997e-06 4.43504e-06 0)
(9.02223e-06 4.67915e-06 0)
(8.81109e-06 4.88931e-06 0)
(8.66541e-06 5.07414e-06 0)
(8.57035e-06 5.2412e-06 0)
(8.51441e-06 5.39503e-06 0)
(8.48923e-06 5.53871e-06 0)
(8.49439e-06 5.69468e-06 0)
(1.01578e-05 2.9869e-06 -4.31316e-22)
(9.29614e-06 3.39255e-06 0)
(8.69898e-06 3.67814e-06 0)
(8.26728e-06 3.91207e-06 0)
(7.95745e-06 4.10338e-06 0)
(7.73735e-06 4.26882e-06 0)
(7.58415e-06 4.41446e-06 0)
(7.48204e-06 4.54663e-06 0)
(7.4186e-06 4.66838e-06 0)
(7.38515e-06 4.78337e-06 0)
(7.2379e-06 4.78897e-06 0)
(9.16002e-06 2.72248e-06 -3.7278e-22)
(8.27491e-06 3.00681e-06 0)
(7.66534e-06 3.20493e-06 0)
(7.22719e-06 3.37201e-06 0)
(6.91392e-06 3.50967e-06 0)
(6.69155e-06 3.63078e-06 0)
(6.53602e-06 3.73827e-06 0)
(6.43082e-06 3.83682e-06 0)
(6.36314e-06 3.92781e-06 0)
(6.32365e-06 4.01471e-06 0)
(6.19173e-06 4.0057e-06 0)
(8.12724e-06 2.46495e-06 -1.62305e-22)
(7.24493e-06 2.62089e-06 0)
(6.64019e-06 2.72854e-06 0)
(6.20817e-06 2.82809e-06 0)
(5.90099e-06 2.91302e-06 0)
(5.68369e-06 2.99172e-06 0)
(5.53163e-06 3.06361e-06 0)
(5.42798e-06 3.13138e-06 0)
(5.35998e-06 3.19467e-06 0)
(5.31816e-06 3.2561e-06 0)
(5.2042e-06 3.23719e-06 0)
(7.0632e-06 2.21571e-06 -2.62552e-22)
(6.21051e-06 2.24209e-06 0)
(5.6286e-06 2.25989e-06 0)
(5.21613e-06 2.29385e-06 0)
(4.92529e-06 2.32898e-06 0)
(4.72092e-06 2.3688e-06 0)
(4.57845e-06 2.4089e-06 0)
(4.48119e-06 2.44975e-06 0)
(4.4168e-06 2.4892e-06 0)
(4.37597e-06 2.52872e-06 0)
(4.28082e-06 2.5043e-06 0)
(5.9728e-06 1.97469e-06 -3.07861e-22)
(5.1749e-06 1.87617e-06 0)
(4.63388e-06 1.8087e-06 0)
(4.255e-06 1.78228e-06 0)
(3.99129e-06 1.77312e-06 0)
(3.80802e-06 1.77963e-06 0)
(3.68131e-06 1.79336e-06 0)
(3.59509e-06 1.81242e-06 0)
(3.53785e-06 1.83289e-06 0)
(3.50083e-06 1.85496e-06 0)
(3.42441e-06 1.82929e-06 0)
(4.85934e-06 1.73924e-06 8.21383e-23)
(4.13837e-06 1.52641e-06 0)
(3.65672e-06 1.38275e-06 0)
(3.32623e-06 1.3053e-06 0)
(3.10095e-06 1.26064e-06 0)
(2.94702e-06 1.24187e-06 0)
(2.84195e-06 1.23635e-06 0)
(2.77097e-06 1.2399e-06 0)
(2.72389e-06 1.24709e-06 0)
(2.69296e-06 1.25685e-06 0)
(2.63452e-06 1.2339e-06 0)
(3.73222e-06 1.50234e-06 6.1918e-22)
(3.10214e-06 1.19136e-06 0)
(2.69857e-06 9.86931e-07 0)
(2.43203e-06 8.73916e-07 0)
(2.25623e-06 8.06944e-07 0)
(2.13899e-06 7.73735e-07 0)
(2.06029e-06 7.57762e-07 0)
(2.00763e-06 7.53004e-07 0)
(1.97274e-06 7.53025e-07 0)
(1.94939e-06 7.55878e-07 0)
(1.90768e-06 7.38883e-07 0)
(2.5977e-06 1.24295e-06 3.97717e-22)
(2.06137e-06 8.58794e-07 0)
(1.75936e-06 6.21257e-07 0)
(1.57317e-06 4.98129e-07 0)
(1.45652e-06 4.28113e-07 0)
(1.38137e-06 3.94098e-07 0)
(1.33182e-06 3.77367e-07 0)
(1.29892e-06 3.7133e-07 0)
(1.27699e-06 3.69667e-07 0)
(1.26188e-06 3.70272e-07 0)
(1.2353e-06 3.60926e-07 0)
(1.52698e-06 9.1519e-07 1.3293e-22)
(1.02478e-06 5.05708e-07 0)
(8.53081e-07 2.95495e-07 0)
(7.61296e-07 2.01137e-07 0)
(7.07405e-07 1.52851e-07 0)
(6.73746e-07 1.31788e-07 0)
(6.51616e-07 1.22438e-07 0)
(6.3686e-07 1.19818e-07 0)
(6.26778e-07 1.19603e-07 0)
(6.1949e-07 1.20445e-07 0)
(6.06408e-07 1.17706e-07 0)
(5.13578e-07 3.6373e-07 6.47029e-23)
(0 0 0)
(0 0 0)
(0 0 0)
(0 0 0)
(0 0 0)
(0 0 0)
(0 0 0)
(0 0 0)
(0 0 0)
(0 0 0)
(1.11166e-05 3.25584e-06 -6.36285e-23)
(1.03026e-05 3.77039e-06 0)
(9.73372e-06 4.13722e-06 0)
(9.31997e-06 4.43504e-06 0)
(9.02223e-06 4.67915e-06 0)
(8.81109e-06 4.88931e-06 0)
(8.66541e-06 5.07414e-06 0)
(8.57035e-06 5.2412e-06 0)
(8.51441e-06 5.39503e-06 0)
(8.48923e-06 5.53871e-06 0)
(8.49439e-06 5.69468e-06 0)
(1.01578e-05 2.9869e-06 -4.31316e-22)
(9.29614e-06 3.39255e-06 0)
(8.69898e-06 3.67814e-06 0)
(8.26728e-06 3.91207e-06 0)
(7.95745e-06 4.10338e-06 0)
(7.73735e-06 4.26882e-06 0)
(7.58415e-06 4.41446e-06 0)
(7.48204e-06 4.54663e-06 0)
(7.4186e-06 4.66838e-06 0)
(7.38515e-06 4.78337e-06 0)
(7.2379e-06 4.78897e-06 0)
(9.16002e-06 2.72248e-06 -3.7278e-22)
(8.27491e-06 3.00681e-06 0)
(7.66534e-06 3.20493e-06 0)
(7.22719e-06 3.37201e-06 0)
(6.91392e-06 3.50967e-06 0)
(6.69155e-06 3.63078e-06 0)
(6.53602e-06 3.73827e-06 0)
(6.43082e-06 3.83682e-06 0)
(6.36314e-06 3.92781e-06 0)
(6.32365e-06 4.01471e-06 0)
(6.19173e-06 4.0057e-06 0)
(8.12724e-06 2.46495e-06 -1.62305e-22)
(7.24493e-06 2.62089e-06 0)
(6.64019e-06 2.72854e-06 0)
(6.20817e-06 2.82809e-06 0)
(5.90099e-06 2.91302e-06 0)
(5.68369e-06 2.99172e-06 0)
(5.53163e-06 3.06361e-06 0)
(5.42798e-06 3.13138e-06 0)
(5.35998e-06 3.19467e-06 0)
(5.31816e-06 3.2561e-06 0)
(5.2042e-06 3.23719e-06 0)
(7.0632e-06 2.21571e-06 -2.62552e-22)
(6.21051e-06 2.24209e-06 0)
(5.6286e-06 2.25989e-06 0)
(5.21613e-06 2.29385e-06 0)
(4.92529e-06 2.32898e-06 0)
(4.72092e-06 2.3688e-06 0)
(4.57845e-06 2.4089e-06 0)
(4.48119e-06 2.44975e-06 0)
(4.4168e-06 2.4892e-06 0)
(4.37597e-06 2.52872e-06 0)
(4.28082e-06 2.5043e-06 0)
(5.9728e-06 1.97469e-06 -3.07861e-22)
(5.1749e-06 1.87617e-06 0)
(4.63388e-06 1.8087e-06 0)
(4.255e-06 1.78228e-06 0)
(3.99129e-06 1.77312e-06 0)
(3.80802e-06 1.77963e-06 0)
(3.68131e-06 1.79336e-06 0)
(3.59509e-06 1.81242e-06 0)
(3.53785e-06 1.83289e-06 0)
(3.50083e-06 1.85496e-06 0)
(3.42441e-06 1.82929e-06 0)
(4.85934e-06 1.73924e-06 8.21383e-23)
(4.13837e-06 1.52641e-06 0)
(3.65672e-06 1.38275e-06 0)
(3.32623e-06 1.3053e-06 0)
(3.10095e-06 1.26064e-06 0)
(2.94702e-06 1.24187e-06 0)
(2.84195e-06 1.23635e-06 0)
(2.77097e-06 1.2399e-06 0)
(2.72389e-06 1.24709e-06 0)
(2.69296e-06 1.25685e-06 0)
(2.63452e-06 1.2339e-06 0)
(3.73222e-06 1.50234e-06 6.1918e-22)
(3.10214e-06 1.19136e-06 0)
(2.69857e-06 9.86931e-07 0)
(2.43203e-06 8.73916e-07 0)
(2.25623e-06 8.06944e-07 0)
(2.13899e-06 7.73735e-07 0)
(2.06029e-06 7.57762e-07 0)
(2.00763e-06 7.53004e-07 0)
(1.97274e-06 7.53025e-07 0)
(1.94939e-06 7.55878e-07 0)
(1.90768e-06 7.38883e-07 0)
(2.5977e-06 1.24295e-06 3.97717e-22)
(2.06137e-06 8.58794e-07 0)
(1.75936e-06 6.21257e-07 0)
(1.57317e-06 4.98129e-07 0)
(1.45652e-06 4.28113e-07 0)
(1.38137e-06 3.94098e-07 0)
(1.33182e-06 3.77367e-07 0)
(1.29892e-06 3.7133e-07 0)
(1.27699e-06 3.69667e-07 0)
(1.26188e-06 3.70272e-07 0)
(1.2353e-06 3.60926e-07 0)
(1.52698e-06 9.1519e-07 1.3293e-22)
(1.02478e-06 5.05708e-07 0)
(8.53081e-07 2.95495e-07 0)
(7.61296e-07 2.01137e-07 0)
(7.07405e-07 1.52851e-07 0)
(6.73746e-07 1.31788e-07 0)
(6.51616e-07 1.22438e-07 0)
(6.3686e-07 1.19818e-07 0)
(6.26778e-07 1.19603e-07 0)
(6.1949e-07 1.20445e-07 0)
(6.06408e-07 1.17706e-07 0)
(5.13578e-07 3.6373e-07 6.47029e-23)
(0 0 0)
(0 0 0)
(0 0 0)
(0 0 0)
(0 0 0)
(0 0 0)
(0 0 0)
(0 0 0)
(0 0 0)
(0 0 0)
(1.80356e-05 5.34595e-06 -1.40016e-23)
(1.81642e-05 5.86341e-06 3.87635e-22)
(1.81482e-05 6.52884e-06 7.53404e-23)
(1.81373e-05 7.14633e-06 -9.14518e-23)
(1.81477e-05 7.71471e-06 -1.63844e-22)
(1.81856e-05 8.23971e-06 -1.8571e-22)
(1.82531e-05 8.72811e-06 1.40074e-22)
(1.83499e-05 9.1868e-06 2.1632e-22)
(1.84751e-05 9.62153e-06 1.51046e-22)
(1.86257e-05 1.00377e-05 1.43662e-22)
(1.88004e-05 1.04376e-05 2.3006e-22)
(1.76346e-05 5.14544e-06 -4.75462e-22)
(1.75794e-05 5.84017e-06 0)
(1.75332e-05 6.5014e-06 0)
(1.75084e-05 7.10978e-06 0)
(1.75112e-05 7.66542e-06 0)
(1.75435e-05 8.17507e-06 0)
(1.76052e-05 8.64624e-06 0)
(1.76949e-05 9.08644e-06 0)
(1.78107e-05 9.50184e-06 0)
(1.795e-05 9.89828e-06 0)
(1.81213e-05 1.02806e-05 0)
(1.70888e-05 5.06054e-06 -3.71416e-22)
(1.6974e-05 5.77053e-06 0)
(1.68806e-05 6.42569e-06 0)
(1.68206e-05 7.0213e-06 0)
(1.67964e-05 7.56066e-06 0)
(1.68073e-05 8.05215e-06 0)
(1.68506e-05 8.504e-06 0)
(1.69232e-05 8.92415e-06 0)
(1.70224e-05 9.31903e-06 0)
(1.71444e-05 9.69482e-06 0)
(1.73112e-05 1.00604e-05 0)
(1.65106e-05 4.92309e-06 1.5608e-22)
(1.63237e-05 5.65634e-06 0)
(1.61739e-05 6.30312e-06 0)
(1.60692e-05 6.88125e-06 0)
(1.60092e-05 7.39909e-06 0)
(1.59906e-05 7.86778e-06 0)
(1.60086e-05 8.29647e-06 0)
(1.60584e-05 8.69351e-06 0)
(1.61363e-05 9.06547e-06 0)
(1.62375e-05 9.41868e-06 0)
(1.63995e-05 9.76795e-06 0)
(1.58894e-05 4.74575e-06 -3.08573e-23)
(1.56182e-05 5.49928e-06 0)
(1.54059e-05 6.13397e-06 0)
(1.52514e-05 6.69031e-06 0)
(1.51512e-05 7.18204e-06 0)
(1.50991e-05 7.62363e-06 0)
(1.50883e-05 8.02531e-06 0)
(1.51125e-05 8.39588e-06 0)
(1.51667e-05 8.74205e-06 0)
(1.52452e-05 9.07016e-06 0)
(1.54029e-05 9.40316e-06 0)
(1.52196e-05 4.53709e-06 -8.05206e-22)
(1.48542e-05 5.30007e-06 0)
(1.45755e-05 5.91626e-06 0)
(1.43694e-05 6.44554e-06 0)
(1.42281e-05 6.90649e-06 0)
(1.41418e-05 7.31683e-06 0)
(1.41016e-05 7.68783e-06 0)
(1.40997e-05 8.02875e-06 0)
(1.413e-05 8.3464e-06 0)
(1.41857e-05 8.64699e-06 0)
(1.43404e-05 8.9639e-06 0)
(1.44987e-05 4.30481e-06 -4.74086e-22)
(1.40335e-05 5.06058e-06 0)
(1.3687e-05 5.64939e-06 0)
(1.343e-05 6.1457e-06 0)
(1.32487e-05 6.5714e-06 0)
(1.31296e-05 6.9469e-06 0)
(1.30614e-05 7.28419e-06 0)
(1.30345e-05 7.59281e-06 0)
(1.30421e-05 7.87963e-06 0)
(1.30763e-05 8.1506e-06 0)
(1.32295e-05 8.45179e-06 0)
(1.37264e-05 4.05523e-06 5.95257e-22)
(1.31607e-05 4.78338e-06 0)
(1.27483e-05 5.33405e-06 0)
(1.2443e-05 5.79074e-06 0)
(1.22246e-05 6.17679e-06 0)
(1.20756e-05 6.51428e-06 0)
(1.1982e-05 6.8154e-06 0)
(1.19327e-05 7.08971e-06 0)
(1.19197e-05 7.34397e-06 0)
(1.19345e-05 7.5837e-06 0)
(1.20881e-05 7.86974e-06 0)
(1.29039e-05 3.79404e-06 1.11465e-21)
(1.22428e-05 4.4724e-06 0)
(1.17691e-05 4.97319e-06 0)
(1.14203e-05 5.38337e-06 0)
(1.11694e-05 5.72562e-06 0)
(1.09945e-05 6.02246e-06 0)
(1.0879e-05 6.28562e-06 0)
(1.08105e-05 6.52433e-06 0)
(1.07798e-05 6.74495e-06 0)
(1.07779e-05 6.9524e-06 0)
(1.09335e-05 7.22365e-06 0)
(1.2033e-05 3.52613e-06 5.28121e-22)
(1.12874e-05 4.13268e-06 0)
(1.07606e-05 4.57185e-06 0)
(1.0375e-05 4.92883e-06 0)
(1.00972e-05 5.22354e-06 0)
(9.90126e-06 5.47769e-06 0)
(9.76821e-06 5.70182e-06 0)
(9.68426e-06 5.90443e-06 0)
(9.63913e-06 6.09114e-06 0)
(9.62395e-06 6.26562e-06 0)
(9.78223e-06 6.52199e-06 0)
(1.80356e-05 5.34595e-06 -1.40016e-23)
(1.81642e-05 5.86341e-06 3.87635e-22)
(1.81482e-05 6.52884e-06 7.53404e-23)
(1.81373e-05 7.14633e-06 -9.14518e-23)
(1.81477e-05 7.71471e-06 -1.63844e-22)
(1.81856e-05 8.23971e-06 -1.8571e-22)
(1.82531e-05 8.72811e-06 1.40074e-22)
(1.83499e-05 9.1868e-06 2.1632e-22)
(1.84751e-05 9.62153e-06 1.51046e-22)
(1.86257e-05 1.00377e-05 1.43662e-22)
(1.88004e-05 1.04376e-05 2.3006e-22)
(1.76346e-05 5.14544e-06 -4.75462e-22)
(1.75794e-05 5.84017e-06 0)
(1.75332e-05 6.5014e-06 0)
(1.75084e-05 7.10978e-06 0)
(1.75112e-05 7.66542e-06 0)
(1.75435e-05 8.17507e-06 0)
(1.76052e-05 8.64624e-06 0)
(1.76949e-05 9.08644e-06 0)
(1.78107e-05 9.50184e-06 0)
(1.795e-05 9.89828e-06 0)
(1.81213e-05 1.02806e-05 0)
(1.70888e-05 5.06054e-06 -3.71416e-22)
(1.6974e-05 5.77053e-06 0)
(1.68806e-05 6.42569e-06 0)
(1.68206e-05 7.0213e-06 0)
(1.67964e-05 7.56066e-06 0)
(1.68073e-05 8.05215e-06 0)
(1.68506e-05 8.504e-06 0)
(1.69232e-05 8.92415e-06 0)
(1.70224e-05 9.31903e-06 0)
(1.71444e-05 9.69482e-06 0)
(1.73112e-05 1.00604e-05 0)
(1.65106e-05 4.92309e-06 1.5608e-22)
(1.63237e-05 5.65634e-06 0)
(1.61739e-05 6.30312e-06 0)
(1.60692e-05 6.88125e-06 0)
(1.60092e-05 7.39909e-06 0)
(1.59906e-05 7.86778e-06 0)
(1.60086e-05 8.29647e-06 0)
(1.60584e-05 8.69351e-06 0)
(1.61363e-05 9.06547e-06 0)
(1.62375e-05 9.41868e-06 0)
(1.63995e-05 9.76795e-06 0)
(1.58894e-05 4.74575e-06 -3.08573e-23)
(1.56182e-05 5.49928e-06 0)
(1.54059e-05 6.13397e-06 0)
(1.52514e-05 6.69031e-06 0)
(1.51512e-05 7.18204e-06 0)
(1.50991e-05 7.62363e-06 0)
(1.50883e-05 8.02531e-06 0)
(1.51125e-05 8.39588e-06 0)
(1.51667e-05 8.74205e-06 0)
(1.52452e-05 9.07016e-06 0)
(1.54029e-05 9.40316e-06 0)
(1.52196e-05 4.53709e-06 -8.05206e-22)
(1.48542e-05 5.30007e-06 0)
(1.45755e-05 5.91626e-06 0)
(1.43694e-05 6.44554e-06 0)
(1.42281e-05 6.90649e-06 0)
(1.41418e-05 7.31683e-06 0)
(1.41016e-05 7.68783e-06 0)
(1.40997e-05 8.02875e-06 0)
(1.413e-05 8.3464e-06 0)
(1.41857e-05 8.64699e-06 0)
(1.43404e-05 8.9639e-06 0)
(1.44987e-05 4.30481e-06 -4.74086e-22)
(1.40335e-05 5.06058e-06 0)
(1.3687e-05 5.64939e-06 0)
(1.343e-05 6.1457e-06 0)
(1.32487e-05 6.5714e-06 0)
(1.31296e-05 6.9469e-06 0)
(1.30614e-05 7.28419e-06 0)
(1.30345e-05 7.59281e-06 0)
(1.30421e-05 7.87963e-06 0)
(1.30763e-05 8.1506e-06 0)
(1.32295e-05 8.45179e-06 0)
(1.37264e-05 4.05523e-06 5.95257e-22)
(1.31607e-05 4.78338e-06 0)
(1.27483e-05 5.33405e-06 0)
(1.2443e-05 5.79074e-06 0)
(1.22246e-05 6.17679e-06 0)
(1.20756e-05 6.51428e-06 0)
(1.1982e-05 6.8154e-06 0)
(1.19327e-05 7.08971e-06 0)
(1.19197e-05 7.34397e-06 0)
(1.19345e-05 7.5837e-06 0)
(1.20881e-05 7.86974e-06 0)
(1.29039e-05 3.79404e-06 1.11465e-21)
(1.22428e-05 4.4724e-06 0)
(1.17691e-05 4.97319e-06 0)
(1.14203e-05 5.38337e-06 0)
(1.11694e-05 5.72562e-06 0)
(1.09945e-05 6.02246e-06 0)
(1.0879e-05 6.28562e-06 0)
(1.08105e-05 6.52433e-06 0)
(1.07798e-05 6.74495e-06 0)
(1.07779e-05 6.9524e-06 0)
(1.09335e-05 7.22365e-06 0)
(1.2033e-05 3.52613e-06 5.28121e-22)
(1.12874e-05 4.13268e-06 0)
(1.07606e-05 4.57185e-06 0)
(1.0375e-05 4.92883e-06 0)
(1.00972e-05 5.22354e-06 0)
(9.90126e-06 5.47769e-06 0)
(9.76821e-06 5.70182e-06 0)
(9.68426e-06 5.90443e-06 0)
(9.63913e-06 6.09114e-06 0)
(9.62395e-06 6.26562e-06 0)
(9.78223e-06 6.52199e-06 0)
(1.8999e-05 1.08261e-05 2.17685e-22)
(1.92182e-05 1.12086e-05 -1.86917e-22)
(1.94544e-05 1.15852e-05 -3.00248e-22)
(1.97062e-05 1.19579e-05 -1.35979e-22)
(1.99717e-05 1.23282e-05 -5.72706e-23)
(2.02496e-05 1.26973e-05 0)
(2.05384e-05 1.30663e-05 7.68602e-23)
(2.0837e-05 1.34361e-05 9.74517e-23)
(2.11442e-05 1.38073e-05 1.74513e-22)
(2.1459e-05 1.41807e-05 2.16946e-22)
(2.17805e-05 1.45568e-05 4.18848e-23)
(2.21077e-05 1.4936e-05 4.25269e-23)
(2.24399e-05 1.53187e-05 -1.71023e-22)
(2.27761e-05 1.57051e-05 -1.7727e-22)
(2.31156e-05 1.60955e-05 5.742e-23)
(2.34574e-05 1.64898e-05 -7.9459e-23)
(2.38007e-05 1.6888e-05 2.70913e-25)
(2.41444e-05 1.72894e-05 -1.78652e-23)
(2.44875e-05 1.76932e-05 -3.76879e-22)
(2.46011e-05 1.79447e-05 -5.8389e-23)
(1.83332e-05 1.06574e-05 0)
(1.85711e-05 1.10317e-05 0)
(1.88228e-05 1.1401e-05 0)
(1.9087e-05 1.17673e-05 0)
(1.93626e-05 1.2132e-05 0)
(1.96484e-05 1.24964e-05 0)
(1.99435e-05 1.28613e-05 0)
(2.02468e-05 1.32277e-05 0)
(2.05576e-05 1.35962e-05 0)
(2.0875e-05 1.39675e-05 0)
(2.11982e-05 1.4342e-05 0)
(2.15266e-05 1.47202e-05 0)
(2.18593e-05 1.51023e-05 0)
(2.21959e-05 1.54888e-05 0)
(2.25356e-05 1.58796e-05 0)
(2.28777e-05 1.62749e-05 0)
(2.32217e-05 1.66745e-05 0)
(2.3567e-05 1.70778e-05 0)
(2.39128e-05 1.7484e-05 0)
(2.42572e-05 1.78909e-05 2.46287e-22)
(1.75436e-05 1.04296e-05 0)
(1.78103e-05 1.08011e-05 0)
(1.8087e-05 1.1168e-05 0)
(1.83728e-05 1.15323e-05 0)
(1.86669e-05 1.18954e-05 0)
(1.89687e-05 1.22586e-05 0)
(1.92775e-05 1.26229e-05 0)
(1.95927e-05 1.2989e-05 0)
(1.99138e-05 1.33577e-05 0)
(2.024e-05 1.37296e-05 0)
(2.05711e-05 1.41052e-05 0)
(2.09064e-05 1.44848e-05 0)
(2.12454e-05 1.48688e-05 0)
(2.15878e-05 1.52575e-05 0)
(2.19331e-05 1.56511e-05 0)
(2.22808e-05 1.60496e-05 0)
(2.26305e-05 1.64528e-05 0)
(2.29816e-05 1.68606e-05 0)
(2.33336e-05 1.72721e-05 0)
(2.36828e-05 1.76853e-05 2.40674e-23)
(1.66573e-05 1.01341e-05 0)
(1.696e-05 1.05091e-05 0)
(1.72687e-05 1.08793e-05 0)
(1.75827e-05 1.12468e-05 0)
(1.79017e-05 1.16132e-05 0)
(1.82255e-05 1.19796e-05 0)
(1.85539e-05 1.23471e-05 0)
(1.88864e-05 1.27167e-05 0)
(1.92228e-05 1.30889e-05 0)
(1.9563e-05 1.34645e-05 0)
(1.99065e-05 1.3844e-05 0)
(2.02532e-05 1.42277e-05 0)
(2.06029e-05 1.46161e-05 0)
(2.09551e-05 1.50095e-05 0)
(2.13098e-05 1.54081e-05 0)
(2.16666e-05 1.58121e-05 0)
(2.20252e-05 1.62214e-05 0)
(2.23852e-05 1.66362e-05 0)
(2.27459e-05 1.7056e-05 0)
(2.31025e-05 1.74793e-05 2.31641e-22)
(1.56905e-05 9.77043e-06 0)
(1.60349e-05 1.01547e-05 0)
(1.63812e-05 1.05338e-05 0)
(1.67287e-05 1.09096e-05 0)
(1.70779e-05 1.12838e-05 0)
(1.74287e-05 1.16577e-05 0)
(1.77813e-05 1.20325e-05 0)
(1.81356e-05 1.24091e-05 0)
(1.84918e-05 1.27883e-05 0)
(1.88499e-05 1.31707e-05 0)
(1.92098e-05 1.3557e-05 0)
(1.95716e-05 1.39476e-05 0)
(1.99352e-05 1.43429e-05 0)
(2.03006e-05 1.47435e-05 0)
(2.06677e-05 1.51495e-05 0)
(2.10363e-05 1.55612e-05 0)
(2.14063e-05 1.5979e-05 0)
(2.17775e-05 1.64032e-05 0)
(2.21492e-05 1.68337e-05 0)
(2.25155e-05 1.72697e-05 1.2759e-22)
(1.4661e-05 9.33681e-06 0)
(1.50514e-05 9.73637e-06 0)
(1.54396e-05 1.01301e-05 0)
(1.58246e-05 1.05192e-05 0)
(1.6208e-05 1.09062e-05 0)
(1.65895e-05 1.1292e-05 0)
(1.697e-05 1.16781e-05 0)
(1.73497e-05 1.20655e-05 0)
(1.7729e-05 1.24551e-05 0)
(1.81081e-05 1.28476e-05 0)
(1.84874e-05 1.32437e-05 0)
(1.8867e-05 1.3644e-05 0)
(1.92472e-05 1.40489e-05 0)
(1.96281e-05 1.4459e-05 0)
(2.00098e-05 1.48748e-05 0)
(2.03924e-05 1.52966e-05 0)
(2.07758e-05 1.5725e-05 0)
(2.11599e-05 1.61606e-05 0)
(2.15444e-05 1.66039e-05 0)
(2.19226e-05 1.70544e-05 -1.95491e-22)
(1.35855e-05 8.8347e-06 0)
(1.40247e-05 9.25526e-06 0)
(1.44575e-05 9.66903e-06 0)
(1.48831e-05 1.00767e-05 0)
(1.53034e-05 1.0481e-05 0)
(1.57185e-05 1.0883e-05 0)
(1.61297e-05 1.12845e-05 0)
(1.65373e-05 1.16864e-05 0)
(1.69422e-05 1.20898e-05 0)
(1.73448e-05 1.24955e-05 0)
(1.77457e-05 1.29044e-05 0)
(1.81453e-05 1.33172e-05 0)
(1.8544e-05 1.37343e-05 0)
(1.89422e-05 1.41565e-05 0)
(1.93402e-05 1.45843e-05 0)
(1.97382e-05 1.50182e-05 0)
(2.01364e-05 1.54591e-05 0)
(2.05348e-05 1.59078e-05 0)
(2.09334e-05 1.63653e-05 0)
(2.13256e-05 1.68315e-05 -1.38951e-22)
(1.24804e-05 8.26695e-06 0)
(1.29696e-05 8.71386e-06 0)
(1.34487e-05 9.15279e-06 0)
(1.39164e-05 9.58372e-06 0)
(1.43754e-05 1.00098e-05 0)
(1.48259e-05 1.04323e-05 0)
(1.52696e-05 1.08529e-05 0)
(1.57071e-05 1.1273e-05 0)
(1.61393e-05 1.16936e-05 0)
(1.65671e-05 1.21157e-05 0)
(1.69912e-05 1.25404e-05 0)
(1.74123e-05 1.29683e-05 0)
(1.78309e-05 1.34002e-05 0)
(1.82477e-05 1.38367e-05 0)
(1.86632e-05 1.42786e-05 0)
(1.90777e-05 1.47266e-05 0)
(1.94916e-05 1.51817e-05 0)
(1.99053e-05 1.56449e-05 0)
(2.0319e-05 1.61176e-05 0)
(2.07267e-05 1.66001e-05 -1.95832e-22)
(1.1362e-05 7.63887e-06 0)
(1.19007e-05 8.11691e-06 0)
(1.24262e-05 8.58539e-06 0)
(1.29365e-05 9.04391e-06 0)
(1.34349e-05 9.4957e-06 0)
(1.39218e-05 9.94233e-06 0)
(1.4399e-05 1.03856e-05 0)
(1.48673e-05 1.08271e-05 0)
(1.5328e-05 1.12681e-05 0)
(1.57821e-05 1.17096e-05 0)
(1.62304e-05 1.21528e-05 0)
(1.66739e-05 1.25986e-05 0)
(1.71134e-05 1.30476e-05 0)
(1.75496e-05 1.35008e-05 0)
(1.79832e-05 1.39589e-05 0)
(1.84148e-05 1.44228e-05 0)
(1.88452e-05 1.48934e-05 0)
(1.92746e-05 1.53723e-05 0)
(1.97039e-05 1.58607e-05 0)
(2.01284e-05 1.63599e-05 3.09261e-24)
(1.02449e-05 6.95807e-06 0)
(1.08305e-05 7.47069e-06 0)
(1.14006e-05 7.97182e-06 0)
(1.19531e-05 8.46171e-06 0)
(1.24908e-05 8.94276e-06 0)
(1.30145e-05 9.41696e-06 0)
(1.35256e-05 9.88619e-06 0)
(1.40255e-05 1.03521e-05 0)
(1.45153e-05 1.08163e-05 0)
(1.49962e-05 1.12799e-05 0)
(1.54694e-05 1.17442e-05 0)
(1.59358e-05 1.22101e-05 0)
(1.63966e-05 1.26786e-05 0)
(1.68526e-05 1.31504e-05 0)
(1.73047e-05 1.36265e-05 0)
(1.77537e-05 1.41079e-05 0)
(1.82006e-05 1.45955e-05 0)
(1.86461e-05 1.50909e-05 0)
(1.90911e-05 1.55955e-05 0)
(1.95334e-05 1.61111e-05 2.55195e-22)
(9.25322e-06 6.33863e-06 0)
(9.87377e-06 6.88099e-06 0)
(1.04772e-05 7.40877e-06 0)
(1.10625e-05 7.9252e-06 0)
(1.16312e-05 8.43171e-06 0)
(1.21843e-05 8.93032e-06 0)
(1.2723e-05 9.42282e-06 0)
(1.32486e-05 9.91091e-06 0)
(1.37623e-05 1.03961e-05 0)
(1.42654e-05 1.08798e-05 0)
(1.4759e-05 1.13631e-05 0)
(1.52443e-05 1.18471e-05 0)
(1.57225e-05 1.23327e-05 0)
(1.61945e-05 1.28208e-05 0)
(1.66615e-05 1.33123e-05 0)
(1.71244e-05 1.38082e-05 0)
(1.75844e-05 1.43094e-05 0)
(1.80424e-05 1.48173e-05 0)
(1.84998e-05 1.53334e-05 0)
(1.89566e-05 1.58602e-05 1.05533e-22)
(1.8999e-05 1.08261e-05 2.17685e-22)
(1.92182e-05 1.12086e-05 -1.86917e-22)
(1.94544e-05 1.15852e-05 -3.00248e-22)
(1.97062e-05 1.19579e-05 -1.35979e-22)
(1.99717e-05 1.23282e-05 -5.72706e-23)
(2.02496e-05 1.26973e-05 0)
(2.05384e-05 1.30663e-05 7.68602e-23)
(2.0837e-05 1.34361e-05 9.74517e-23)
(2.11442e-05 1.38073e-05 1.74513e-22)
(2.1459e-05 1.41807e-05 2.16946e-22)
(2.17805e-05 1.45568e-05 4.18848e-23)
(2.21077e-05 1.4936e-05 4.25269e-23)
(2.24399e-05 1.53187e-05 -1.71023e-22)
(2.27761e-05 1.57051e-05 -1.7727e-22)
(2.31156e-05 1.60955e-05 5.742e-23)
(2.34574e-05 1.64898e-05 -7.9459e-23)
(2.38007e-05 1.6888e-05 2.70913e-25)
(2.41444e-05 1.72894e-05 -1.78652e-23)
(2.44875e-05 1.76932e-05 -3.76879e-22)
(2.46011e-05 1.79447e-05 -5.8389e-23)
(1.83332e-05 1.06574e-05 0)
(1.85711e-05 1.10317e-05 0)
(1.88228e-05 1.1401e-05 0)
(1.9087e-05 1.17673e-05 0)
(1.93626e-05 1.2132e-05 0)
(1.96484e-05 1.24964e-05 0)
(1.99435e-05 1.28613e-05 0)
(2.02468e-05 1.32277e-05 0)
(2.05576e-05 1.35962e-05 0)
(2.0875e-05 1.39675e-05 0)
(2.11982e-05 1.4342e-05 0)
(2.15266e-05 1.47202e-05 0)
(2.18593e-05 1.51023e-05 0)
(2.21959e-05 1.54888e-05 0)
(2.25356e-05 1.58796e-05 0)
(2.28777e-05 1.62749e-05 0)
(2.32217e-05 1.66745e-05 0)
(2.3567e-05 1.70778e-05 0)
(2.39128e-05 1.7484e-05 0)
(2.42572e-05 1.78909e-05 2.46287e-22)
(1.75436e-05 1.04296e-05 0)
(1.78103e-05 1.08011e-05 0)
(1.8087e-05 1.1168e-05 0)
(1.83728e-05 1.15323e-05 0)
(1.86669e-05 1.18954e-05 0)
(1.89687e-05 1.22586e-05 0)
(1.92775e-05 1.26229e-05 0)
(1.95927e-05 1.2989e-05 0)
(1.99138e-05 1.33577e-05 0)
(2.024e-05 1.37296e-05 0)
(2.05711e-05 1.41052e-05 0)
(2.09064e-05 1.44848e-05 0)
(2.12454e-05 1.48688e-05 0)
(2.15878e-05 1.52575e-05 0)
(2.19331e-05 1.56511e-05 0)
(2.22808e-05 1.60496e-05 0)
(2.26305e-05 1.64528e-05 0)
(2.29816e-05 1.68606e-05 0)
(2.33336e-05 1.72721e-05 0)
(2.36828e-05 1.76853e-05 2.40674e-23)
(1.66573e-05 1.01341e-05 0)
(1.696e-05 1.05091e-05 0)
(1.72687e-05 1.08793e-05 0)
(1.75827e-05 1.12468e-05 0)
(1.79017e-05 1.16132e-05 0)
(1.82255e-05 1.19796e-05 0)
(1.85539e-05 1.23471e-05 0)
(1.88864e-05 1.27167e-05 0)
(1.92228e-05 1.30889e-05 0)
(1.9563e-05 1.34645e-05 0)
(1.99065e-05 1.3844e-05 0)
(2.02532e-05 1.42277e-05 0)
(2.06029e-05 1.46161e-05 0)
(2.09551e-05 1.50095e-05 0)
(2.13098e-05 1.54081e-05 0)
(2.16666e-05 1.58121e-05 0)
(2.20252e-05 1.62214e-05 0)
(2.23852e-05 1.66362e-05 0)
(2.27459e-05 1.7056e-05 0)
(2.31025e-05 1.74793e-05 2.31641e-22)
(1.56905e-05 9.77043e-06 0)
(1.60349e-05 1.01547e-05 0)
(1.63812e-05 1.05338e-05 0)
(1.67287e-05 1.09096e-05 0)
(1.70779e-05 1.12838e-05 0)
(1.74287e-05 1.16577e-05 0)
(1.77813e-05 1.20325e-05 0)
(1.81356e-05 1.24091e-05 0)
(1.84918e-05 1.27883e-05 0)
(1.88499e-05 1.31707e-05 0)
(1.92098e-05 1.3557e-05 0)
(1.95716e-05 1.39476e-05 0)
(1.99352e-05 1.43429e-05 0)
(2.03006e-05 1.47435e-05 0)
(2.06677e-05 1.51495e-05 0)
(2.10363e-05 1.55612e-05 0)
(2.14063e-05 1.5979e-05 0)
(2.17775e-05 1.64032e-05 0)
(2.21492e-05 1.68337e-05 0)
(2.25155e-05 1.72697e-05 1.2759e-22)
(1.4661e-05 9.33681e-06 0)
(1.50514e-05 9.73637e-06 0)
(1.54396e-05 1.01301e-05 0)
(1.58246e-05 1.05192e-05 0)
(1.6208e-05 1.09062e-05 0)
(1.65895e-05 1.1292e-05 0)
(1.697e-05 1.16781e-05 0)
(1.73497e-05 1.20655e-05 0)
(1.7729e-05 1.24551e-05 0)
(1.81081e-05 1.28476e-05 0)
(1.84874e-05 1.32437e-05 0)
(1.8867e-05 1.3644e-05 0)
(1.92472e-05 1.40489e-05 0)
(1.96281e-05 1.4459e-05 0)
(2.00098e-05 1.48748e-05 0)
(2.03924e-05 1.52966e-05 0)
(2.07758e-05 1.5725e-05 0)
(2.11599e-05 1.61606e-05 0)
(2.15444e-05 1.66039e-05 0)
(2.19226e-05 1.70544e-05 -1.95491e-22)
(1.35855e-05 8.8347e-06 0)
(1.40247e-05 9.25526e-06 0)
(1.44575e-05 9.66903e-06 0)
(1.48831e-05 1.00767e-05 0)
(1.53034e-05 1.0481e-05 0)
(1.57185e-05 1.0883e-05 0)
(1.61297e-05 1.12845e-05 0)
(1.65373e-05 1.16864e-05 0)
(1.69422e-05 1.20898e-05 0)
(1.73448e-05 1.24955e-05 0)
(1.77457e-05 1.29044e-05 0)
(1.81453e-05 1.33172e-05 0)
(1.8544e-05 1.37343e-05 0)
(1.89422e-05 1.41565e-05 0)
(1.93402e-05 1.45843e-05 0)
(1.97382e-05 1.50182e-05 0)
(2.01364e-05 1.54591e-05 0)
(2.05348e-05 1.59078e-05 0)
(2.09334e-05 1.63653e-05 0)
(2.13256e-05 1.68315e-05 -1.38951e-22)
(1.24804e-05 8.26695e-06 0)
(1.29696e-05 8.71386e-06 0)
(1.34487e-05 9.15279e-06 0)
(1.39164e-05 9.58372e-06 0)
(1.43754e-05 1.00098e-05 0)
(1.48259e-05 1.04323e-05 0)
(1.52696e-05 1.08529e-05 0)
(1.57071e-05 1.1273e-05 0)
(1.61393e-05 1.16936e-05 0)
(1.65671e-05 1.21157e-05 0)
(1.69912e-05 1.25404e-05 0)
(1.74123e-05 1.29683e-05 0)
(1.78309e-05 1.34002e-05 0)
(1.82477e-05 1.38367e-05 0)
(1.86632e-05 1.42786e-05 0)
(1.90777e-05 1.47266e-05 0)
(1.94916e-05 1.51817e-05 0)
(1.99053e-05 1.56449e-05 0)
(2.0319e-05 1.61176e-05 0)
(2.07267e-05 1.66001e-05 -1.95832e-22)
(1.1362e-05 7.63887e-06 0)
(1.19007e-05 8.11691e-06 0)
(1.24262e-05 8.58539e-06 0)
(1.29365e-05 9.04391e-06 0)
(1.34349e-05 9.4957e-06 0)
(1.39218e-05 9.94233e-06 0)
(1.4399e-05 1.03856e-05 0)
(1.48673e-05 1.08271e-05 0)
(1.5328e-05 1.12681e-05 0)
(1.57821e-05 1.17096e-05 0)
(1.62304e-05 1.21528e-05 0)
(1.66739e-05 1.25986e-05 0)
(1.71134e-05 1.30476e-05 0)
(1.75496e-05 1.35008e-05 0)
(1.79832e-05 1.39589e-05 0)
(1.84148e-05 1.44228e-05 0)
(1.88452e-05 1.48934e-05 0)
(1.92746e-05 1.53723e-05 0)
(1.97039e-05 1.58607e-05 0)
(2.01284e-05 1.63599e-05 3.09261e-24)
(1.02449e-05 6.95807e-06 0)
(1.08305e-05 7.47069e-06 0)
(1.14006e-05 7.97182e-06 0)
(1.19531e-05 8.46171e-06 0)
(1.24908e-05 8.94276e-06 0)
(1.30145e-05 9.41696e-06 0)
(1.35256e-05 9.88619e-06 0)
(1.40255e-05 1.03521e-05 0)
(1.45153e-05 1.08163e-05 0)
(1.49962e-05 1.12799e-05 0)
(1.54694e-05 1.17442e-05 0)
(1.59358e-05 1.22101e-05 0)
(1.63966e-05 1.26786e-05 0)
(1.68526e-05 1.31504e-05 0)
(1.73047e-05 1.36265e-05 0)
(1.77537e-05 1.41079e-05 0)
(1.82006e-05 1.45955e-05 0)
(1.86461e-05 1.50909e-05 0)
(1.90911e-05 1.55955e-05 0)
(1.95334e-05 1.61111e-05 2.55195e-22)
(9.25322e-06 6.33863e-06 0)
(9.87377e-06 6.88099e-06 0)
(1.04772e-05 7.40877e-06 0)
(1.10625e-05 7.9252e-06 0)
(1.16312e-05 8.43171e-06 0)
(1.21843e-05 8.93032e-06 0)
(1.2723e-05 9.42282e-06 0)
(1.32486e-05 9.91091e-06 0)
(1.37623e-05 1.03961e-05 0)
(1.42654e-05 1.08798e-05 0)
(1.4759e-05 1.13631e-05 0)
(1.52443e-05 1.18471e-05 0)
(1.57225e-05 1.23327e-05 0)
(1.61945e-05 1.28208e-05 0)
(1.66615e-05 1.33123e-05 0)
(1.71244e-05 1.38082e-05 0)
(1.75844e-05 1.43094e-05 0)
(1.80424e-05 1.48173e-05 0)
(1.84998e-05 1.53334e-05 0)
(1.89566e-05 1.58602e-05 1.05533e-22)
(7.78414e-06 5.30427e-06 0)
(8.53126e-06 5.91368e-06 0)
(9.1638e-06 6.46857e-06 0)
(9.7791e-06 7.00838e-06 0)
(1.0377e-05 7.5378e-06 0)
(1.09584e-05 8.05776e-06 0)
(1.15241e-05 8.56998e-06 0)
(1.20752e-05 9.07598e-06 0)
(1.26125e-05 9.5772e-06 0)
(1.31374e-05 1.0075e-05 0)
(1.36509e-05 1.05706e-05 0)
(1.41542e-05 1.10651e-05 0)
(1.46485e-05 1.15594e-05 0)
(1.51347e-05 1.20544e-05 0)
(1.56141e-05 1.2551e-05 0)
(1.60877e-05 1.30498e-05 0)
(1.65567e-05 1.35519e-05 0)
(1.70222e-05 1.4058e-05 0)
(1.74853e-05 1.45693e-05 0)
(1.79478e-05 1.50871e-05 0)
(1.84108e-05 1.56137e-05 1.74475e-24)
(7.25512e-06 4.99325e-06 0)
(7.9776e-06 5.59484e-06 0)
(8.60572e-06 6.15077e-06 0)
(9.2188e-06 6.69448e-06 0)
(9.81614e-06 7.22949e-06 0)
(1.03984e-05 7.75627e-06 0)
(1.09659e-05 8.27604e-06 0)
(1.15193e-05 8.78996e-06 0)
(1.20595e-05 9.29916e-06 0)
(1.25874e-05 9.80474e-06 0)
(1.3104e-05 1.03077e-05 0)
(1.36102e-05 1.08089e-05 0)
(1.41072e-05 1.13093e-05 0)
(1.45959e-05 1.18095e-05 0)
(1.50775e-05 1.23102e-05 0)
(1.55531e-05 1.28122e-05 0)
(1.60237e-05 1.33161e-05 0)
(1.64906e-05 1.38226e-05 0)
(1.6955e-05 1.43327e-05 0)
(1.74188e-05 1.4847e-05 0)
(1.78832e-05 1.53674e-05 5.58189e-23)
(6.78558e-06 4.69378e-06 0)
(7.48129e-06 5.28713e-06 0)
(8.09839e-06 5.84174e-06 0)
(8.70368e-06 6.38714e-06 0)
(9.29535e-06 6.92593e-06 0)
(9.87383e-06 7.45801e-06 0)
(1.04389e-05 7.98411e-06 0)
(1.09911e-05 8.50497e-06 0)
(1.15308e-05 9.0214e-06 0)
(1.20588e-05 9.53417e-06 0)
(1.25759e-05 1.00441e-05 0)
(1.30829e-05 1.05518e-05 0)
(1.35808e-05 1.1058e-05 0)
(1.40705e-05 1.15633e-05 0)
(1.45531e-05 1.20682e-05 0)
(1.50295e-05 1.25732e-05 0)
(1.55009e-05 1.30788e-05 0)
(1.59686e-05 1.35856e-05 0)
(1.64338e-05 1.4094e-05 0)
(1.68983e-05 1.46045e-05 0)
(1.73636e-05 1.51181e-05 1.10657e-22)
(6.36686e-06 4.40823e-06 0)
(7.03418e-06 4.99139e-06 0)
(7.6364e-06 5.54256e-06 0)
(8.22978e-06 6.08786e-06 0)
(8.81186e-06 6.62884e-06 0)
(9.3828e-06 7.16485e-06 0)
(9.94199e-06 7.69611e-06 0)
(1.04897e-05 8.22294e-06 0)
(1.1026e-05 8.74576e-06 0)
(1.15516e-05 9.26508e-06 0)
(1.20669e-05 9.78138e-06 0)
(1.25728e-05 1.02952e-05 0)
(1.30699e-05 1.08069e-05 0)
(1.35591e-05 1.1317e-05 0)
(1.40414e-05 1.18258e-05 0)
(1.45177e-05 1.23337e-05 0)
(1.49891e-05 1.28409e-05 0)
(1.54568e-05 1.33477e-05 0)
(1.59222e-05 1.38543e-05 0)
(1.63872e-05 1.43607e-05 0)
(1.68528e-05 1.48672e-05 -5.29463e-23)
(5.99171e-06 4.1375e-06 0)
(6.63004e-06 4.70942e-06 0)
(7.2145e-06 5.25552e-06 0)
(7.79287e-06 5.79904e-06 0)
(8.36226e-06 6.34062e-06 0)
(8.92264e-06 6.87912e-06 0)
(9.47308e-06 7.41425e-06 0)
(1.00136e-05 7.94592e-06 0)
(1.05441e-05 8.47417e-06 0)
(1.10649e-05 8.99919e-06 0)
(1.15765e-05 9.52121e-06 0)
(1.20793e-05 1.00405e-05 0)
(1.25741e-05 1.05573e-05 0)
(1.30615e-05 1.10718e-05 0)
(1.35424e-05 1.15842e-05 0)
(1.40177e-05 1.20947e-05 0)
(1.44884e-05 1.26033e-05 0)
(1.49555e-05 1.311e-05 0)
(1.54205e-05 1.36146e-05 0)
(1.58853e-05 1.4117e-05 0)
(1.63506e-05 1.46164e-05 -1.07785e-22)
(5.65267e-06 3.8816e-06 0)
(6.26219e-06 4.44143e-06 0)
(6.82707e-06 4.98117e-06 0)
(7.38828e-06 5.52156e-06 0)
(7.94272e-06 6.06241e-06 0)
(8.49022e-06 6.6021e-06 0)
(9.0296e-06 7.13992e-06 0)
(9.56071e-06 7.67533e-06 0)
(1.00833e-05 8.20803e-06 0)
(1.05975e-05 8.7379e-06 0)
(1.11035e-05 9.26487e-06 0)
(1.16018e-05 9.78897e-06 0)
(1.20928e-05 1.03102e-05 0)
(1.25772e-05 1.08287e-05 0)
(1.30558e-05 1.13444e-05 0)
(1.35292e-05 1.18572e-05 0)
(1.39984e-05 1.2367e-05 0)