/*--------------------------------*- C++ -*----------------------------------*\
  =========                 |
  \\      /  F ield         | OpenFOAM: The Open Source CFD Toolbox
   \\    /   O peration     | Website:  https://openfoam.org
    \\  /    A nd           | Version:  9
     \\/     M anipulation  |
\*---------------------------------------------------------------------------*/
FoamFile
{
    format      ascii;
    class       volScalarField;
    location    "15";
    object      sigmaHyd;
}
// * * * * * * * * * * * * * * * * * * * * * * * * * * * * * * * * * * * * * //

dimensions      [1 -1 -2 0 0 0 0];

internalField   nonuniform List<scalar> 
1000
(
1.26377e+06
1.19145e+06
1.16168e+06
1.11327e+06
1.07831e+06
1.03999e+06
1.00746e+06
975417
948154
916103
1.4824e+06
1.37241e+06
1.31924e+06
1.24893e+06
1.1975e+06
1.14423e+06
1.09932e+06
1.05557e+06
1.0184e+06
975041
1.69617e+06
1.55031e+06
1.47468e+06
1.3829e+06
1.31525e+06
1.2472e+06
1.19029e+06
1.13518e+06
1.08898e+06
1.03544e+06
1.90091e+06
1.72213e+06
1.62571e+06
1.51304e+06
1.42936e+06
1.3466e+06
1.27751e+06
1.21147e+06
1.15596e+06
1.0946e+06
2.09024e+06
1.88402e+06
1.76936e+06
1.63697e+06
1.53784e+06
1.44079e+06
1.35987e+06
1.28337e+06
1.21883e+06
1.15051e+06
2.26631e+06
2.03738e+06
1.90708e+06
1.75514e+06
1.64047e+06
1.52905e+06
1.43632e+06
1.34976e+06
1.27646e+06
1.20207e+06
2.42092e+06
2.17904e+06
2.03526e+06
1.8636e+06
1.73317e+06
1.60756e+06
1.50341e+06
1.40748e+06
1.32608e+06
1.24648e+06
2.58435e+06
2.32555e+06
2.16546e+06
1.96943e+06
1.81976e+06
1.67848e+06
1.56226e+06
1.4573e+06
1.36843e+06
1.28455e+06
2.75106e+06
2.47636e+06
2.285e+06
2.05665e+06
1.88544e+06
1.72918e+06
1.60248e+06
1.49044e+06
1.39603e+06
1.3094e+06
3.13335e+06
2.71944e+06
2.43064e+06
2.15559e+06
1.94946e+06
1.77449e+06
1.63516e+06
1.5165e+06
1.41756e+06
1.32936e+06
-5824.72
3189.95
27647.6
68392.5
116800
168101
218707
267311
311825
353927
4406.5
55446
105649
153148
201074
246898
290109
330815
366805
402717
31125.2
110160
175987
226363
272519
313348
350400
384715
413912
444963
90386.5
183090
256992
308389
352378
388449
419585
447684
469975
496084
182326
275029
348225
395696
434764
464706
489380
511104
526699
548016
307277
388846
454802
494209
525931
548216
565492
580179
588680
604750
460971
522166
575206
602352
624132
636941
645761
652524
653652
663669
639194
672967
708883
720375
730037
731760
731035
729074
722243
725452
836253
837441
853136
846275
842124
831322
820344
808455
793883
787646
1.04649e+06
1.01171e+06
1.00514e+06
977997
958673
934347
912250
890485
867436
853575
390950
424283
454685
481908
506512
528476
548186
565714
581311
595072
607151
617625
626571
634035
640035
644608
647739
649599
650223
650519
430132
454316
478046
499023
518743
536363
552557
567055
580165
591842
602239
611385
619366
626238
632062
636940
640937
644327
647206
650448
464767
480626
499050
514625
530379
544334
557629
569581
580603
590499
599431
607377
614423
620623
626061
630880
635192
639362
643511
648631
508062
514456
527001
536225
547360
556936
566759
575626
584105
591816
598934
605366
611187
616427
621159
625525
629616
633815
638134
643689
552760
549251
556428
559226
565928
571167
577586
583402
589343
594846
600087
604901
609341
613402
617133
620653
624025
627595
631305
636238
602292
587728
589495
585383
587374
588001
590731
593267
596437
599540
602713
605732
608601
611271
613750
616107
618369
620791
623297
626760
654551
628089
624438
613311
610390
606463
605434
604730
605096
605769
606800
607923
609085
610190
611205
612134
612979
613857
614743
616120
709393
670839
661188
643446
635054
626517
621355
617231
614600
612746
611574
610778
610220
609742
609255
608676
607983
607121
606166
605077
766351
716244
698263
674712
660470
647852
638781
631483
625956
621579
618132
615292
612863
610640
608488
606242
603860
601103
598176
594418
818629
769525
739648
710816
688838
670743
656679
645488
636743
629774
624176
619520
615501
611816
608259
604559
600646
596085
591216
584778
856556
810398
772701
740383
714444
692704
675256
660947
649392
639907
632071
625420
619612
614290
609206
604008
598602
592383
585776
576971
853646
807771
772261
741526
716745
695743
678613
664293
652480
642554
634155
626856
620345
614276
608411
602379
596093
588879
581214
571034
856423
810479
777421
746847
722324
701011
683489
668612
656204
645646
636614
628687
621554
614867
608371
601696
594711
586761
578378
567098
848838
804637
774423
745307
722077
701520
684505
669865
657526
646898
637706
629551
622148
615159
608344
601327
593991
585707
576810
564971
836286
795067
768064
740802
719174
699651
683426
669307
657328
646923
637863
629771
622378
615374
608487
601443
593843
585734
576022
565432
818762
780944
757152
732245
712630
694649
679678
666532
655327
645527
636949
629242
622174
615439
608839
601991
594883
586653
578290
567093
797705
763744
743204
720943
703566
687408
673963
662075
651922
643004
635177
628121
621630
615430
609336
603026
596437
588944
581173
570735
773643
743667
726339
706946
692007
677955
666313
655974
647156
639395
632583
626430
620764
615336
610001
604446
598685
592058
585225
576171
747232
721347
707218
690845
678487
666742
657108
648539
641278
634896
629315
624279
619642
615193
610810
606239
601491
596041
590429
583000
718830
697056
686111
672873
663222
653962
646523
639929
634425
629624
625468
621734
618307
615008
611748
608323
604766
600665
596477
590953
688800
671158
663404
653396
646560
639932
634842
630387
626807
623752
621181
618902
616825
614811
612798
610644
608391
605770
603142
599673
657280
643805
639282
632604
628696
624839
622245
620084
618580
617416
616567
615869
615256
614626
613943
613129
612240
611149
610135
608785
624565
615314
614079
610826
609952
608989
609015
609275
609968
610812
611789
612764
613691
614501
615186
615726
616195
616605
617172
617880
590501
585616
587788
588104
590404
592482
595269
598086
601102
604067
606967
609692
612214
614493
616544
618400
620158
621950
623970
626544
555666
555282
560964
564967
570549
575776
581423
586888
592308
597461
602338
606848
610976
614707
618074
621150
624056
627021
630252
634343
519202
523641
533079
541016
550096
558672
567356
575627
583585
591038
597978
604331
610090
615257
619873
624038
627892
631729
635810
640897
482972
492405
505689
517645
530282
542250
553999
565090
575590
585337
594321
602483
609821
616342
622088
627162
631703
636027
640456
645812
443736
458791
476434
492882
509487
525210
540342
554527
567802
580036
591218
601303
610286
618170
624982
630801
635744
640103
644240
648967
408116
428718
450555
471276
491626
510857
529127
546161
561977
576476
589653
601475
611937
621031
628753
635135
640206
644165
647206
650161
364077
391588
418895
445037
470165
493829
516057
536664
555654
572968
588611
602564
614816
625338
634073
640975
645933
649021
650172
650417
1.25474e+06
1.23647e+06
1.2153e+06
1.18265e+06
1.14467e+06
1.09982e+06
1.05042e+06
997364
942575
892741
1.18677e+06
1.17059e+06
1.15474e+06
1.13029e+06
1.10302e+06
1.07105e+06
1.03597e+06
997491
954314
904945
1.12498e+06
1.10903e+06
1.09496e+06
1.07353e+06
1.05024e+06
1.02299e+06
993353
961960
928322
895437
1.06815e+06
1.0525e+06
1.04076e+06
1.02324e+06
1.00526e+06
984432
961633
937223
908643
882831
1.01479e+06
998803
988065
972537
957502
940538
922322
903946
881459
865095
964499
948158
938472
924963
912880
899657
885453
871757
853174
843307
916226
899283
890114
877851
867801
857390
846475
837020
822449
818258
869613
852044
843308
832131
823881
815907
807747
801661
790374
790477
824009
805703
797154
786721
779880
773927
768204
765097
756964
760516
779073
759981
751503
741652
736025
731819
728247
727661
722417
728707
734383
714410
705834
696383
691783
689123
687556
689249
686793
695360
689659
668678
659825
650624
646918
645662
645990
649775
650023
660567
644628
622457
613105
604036
601141
601234
603442
609256
612204
624581
599131
575412
565176
556045
553866
555284
559404
567263
572975
587168
552991
527305
515778
506564
505148
508015
514184
524206
532805
548893
506404
477679
463883
454209
453493
457919
466346
478762
490511
508729
458968
426189
409593
399935
400362
406812
417862
432981
448117
468670
413025
371780
349915
339293
340936
349746
363959
382349
401495
424967
368591
311629
286798
278201
282804
295148
313149
335221
358518
384928
349050
240133
209530
200070
208215
224864
247887
274977
303955
334705
)
;

boundaryField
{
    left
    {
        type            zeroGradient;
    }
    right
    {
        type            zeroGradient;
    }
    down
    {
        type            zeroGradient;
    }
    up
    {
        type            zeroGradient;
    }
    hole
    {
        type            zeroGradient;
    }
    frontAndBack
    {
        type            empty;
    }
}


// ************************************************************************* //
