/*--------------------------------*- C++ -*----------------------------------*\
  =========                 |
  \\      /  F ield         | OpenFOAM: The Open Source CFD Toolbox
   \\    /   O peration     | Website:  https://openfoam.org
    \\  /    A nd           | Version:  9
     \\/     M anipulation  |
\*---------------------------------------------------------------------------*/
FoamFile
{
    format      ascii;
    class       volScalarField;
    location    "15";
    object      sigmaEq;
}
// * * * * * * * * * * * * * * * * * * * * * * * * * * * * * * * * * * * * * //

dimensions      [1 -1 -2 0 0 0 0];

internalField   nonuniform List<scalar> 
1000
(
2.35964e+06
2.23983e+06
2.2058e+06
2.22233e+06
2.22469e+06
2.21993e+06
2.20445e+06
2.18095e+06
2.15461e+06
2.12199e+06
2.75058e+06
2.49697e+06
2.37467e+06
2.33655e+06
2.30277e+06
2.27371e+06
2.24008e+06
2.20435e+06
2.16404e+06
2.12837e+06
3.13278e+06
2.74473e+06
2.52756e+06
2.42716e+06
2.35132e+06
2.29349e+06
2.23862e+06
2.18762e+06
2.1342e+06
2.09136e+06
3.49868e+06
2.98001e+06
2.66485e+06
2.49624e+06
2.37313e+06
2.28286e+06
2.20458e+06
2.13727e+06
2.07113e+06
2.02068e+06
3.83702e+06
3.19726e+06
2.78398e+06
2.5433e+06
2.36872e+06
2.24288e+06
2.13946e+06
2.05488e+06
1.97674e+06
1.91822e+06
4.14909e+06
3.39471e+06
2.88318e+06
2.56807e+06
2.33914e+06
2.17591e+06
2.04659e+06
1.94462e+06
1.85521e+06
1.7884e+06
4.41778e+06
3.5595e+06
2.94854e+06
2.56014e+06
2.27876e+06
2.08045e+06
1.92779e+06
1.81052e+06
1.7121e+06
1.63777e+06
4.67035e+06
3.68453e+06
2.96747e+06
2.51306e+06
2.1871e+06
1.9616e+06
1.79245e+06
1.66523e+06
1.56213e+06
1.48269e+06
4.8457e+06
3.6975e+06
2.87453e+06
2.38077e+06
2.04319e+06
1.81428e+06
1.64603e+06
1.51989e+06
1.41925e+06
1.33873e+06
4.99777e+06
3.48464e+06
2.65364e+06
2.19069e+06
1.89793e+06
1.69518e+06
1.54573e+06
1.42932e+06
1.33505e+06
1.255e+06
6538.41
18943.6
84887.2
176195
276716
380613
481654
577974
666484
748519
22245.3
118127
252025
383936
501128
605254
696209
777544
847461
913082
97366.4
281380
450445
603616
731536
837845
924335
996840
1.05376e+06
1.10746e+06
224036
481050
671805
833364
962214
1.06554e+06
1.14592e+06
1.21021e+06
1.25645e+06
1.3007e+06
404230
706062
909417
1.07223e+06
1.1951e+06
1.29021e+06
1.36111e+06
1.41528e+06
1.45055e+06
1.48518e+06
637194
945653
1.14931e+06
1.30743e+06
1.41996e+06
1.50358e+06
1.56276e+06
1.60533e+06
1.62937e+06
1.65388e+06
918097
1.19573e+06
1.38487e+06
1.53187e+06
1.63059e+06
1.70051e+06
1.7465e+06
1.77652e+06
1.78925e+06
1.80308e+06
1.24013e+06
1.45285e+06
1.61048e+06
1.73849e+06
1.81983e+06
1.87427e+06
1.90638e+06
1.92347e+06
1.92581e+06
1.92837e+06
1.59426e+06
1.71453e+06
1.82349e+06
1.92372e+06
1.98358e+06
2.02068e+06
2.03802e+06
2.04213e+06
2.0346e+06
2.02742e+06
1.97095e+06
1.97794e+06
2.0221e+06
2.08497e+06
2.11845e+06
2.13556e+06
2.13701e+06
2.12697e+06
2.11271e+06
2.09029e+06
822370
885930
944848
998142
1.04633e+06
1.0897e+06
1.12864e+06
1.16344e+06
1.19446e+06
1.22192e+06
1.24609e+06
1.26711e+06
1.28514e+06
1.30026e+06
1.31251e+06
1.32194e+06
1.32853e+06
1.33249e+06
1.33375e+06
1.33298e+06
963849
1.00094e+06
1.0383e+06
1.07305e+06
1.10565e+06
1.13595e+06
1.16396e+06
1.18967e+06
1.21315e+06
1.23443e+06
1.2536e+06
1.27071e+06
1.28581e+06
1.29895e+06
1.31012e+06
1.31934e+06
1.32647e+06
1.33143e+06
1.33355e+06
1.33239e+06
1.13751e+06
1.14947e+06
1.16465e+06
1.17932e+06
1.19424e+06
1.20911e+06
1.22382e+06
1.23811e+06
1.25193e+06
1.2651e+06
1.27757e+06
1.28924e+06
1.30009e+06
1.31004e+06
1.31899e+06
1.32682e+06
1.33318e+06
1.33766e+06
1.33891e+06
1.33611e+06
1.31357e+06
1.30459e+06
1.30066e+06
1.29757e+06
1.29619e+06
1.2963e+06
1.29789e+06
1.30057e+06
1.30429e+06
1.30873e+06
1.31379e+06
1.31923e+06
1.32495e+06
1.33076e+06
1.33646e+06
1.3418e+06
1.34623e+06
1.34925e+06
1.34922e+06
1.34541e+06
1.48291e+06
1.45668e+06
1.43632e+06
1.41798e+06
1.40225e+06
1.38897e+06
1.37839e+06
1.36996e+06
1.36379e+06
1.35945e+06
1.35685e+06
1.35569e+06
1.3558e+06
1.35693e+06
1.35878e+06
1.36104e+06
1.36308e+06
1.36435e+06
1.36328e+06
1.35926e+06
1.63825e+06
1.59827e+06
1.56431e+06
1.53318e+06
1.50543e+06
1.48056e+06
1.45933e+06
1.44093e+06
1.42568e+06
1.41307e+06
1.40307e+06
1.39535e+06
1.38974e+06
1.38594e+06
1.38367e+06
1.38257e+06
1.38206e+06
1.38163e+06
1.38004e+06
1.37674e+06
1.77585e+06
1.72554e+06
1.68123e+06
1.63957e+06
1.60225e+06
1.5675e+06
1.53706e+06
1.50977e+06
1.48628e+06
1.46604e+06
1.4491e+06
1.43513e+06
1.42397e+06
1.41535e+06
1.40899e+06
1.40457e+06
1.40164e+06
1.39975e+06
1.39815e+06
1.39632e+06
1.89194e+06
1.8344e+06
1.78375e+06
1.73346e+06
1.68912e+06
1.64667e+06
1.60893e+06
1.57439e+06
1.54385e+06
1.51688e+06
1.49358e+06
1.47375e+06
1.45726e+06
1.44393e+06
1.43355e+06
1.42586e+06
1.42064e+06
1.41751e+06
1.41636e+06
1.4166e+06
1.98606e+06
1.92213e+06
1.87146e+06
1.81519e+06
1.76549e+06
1.71681e+06
1.67262e+06
1.63186e+06
1.59521e+06
1.56244e+06
1.53363e+06
1.50867e+06
1.48747e+06
1.46992e+06
1.45592e+06
1.44529e+06
1.43806e+06
1.43398e+06
1.43359e+06
1.43621e+06
2.05619e+06
1.98782e+06
1.94041e+06
1.8846e+06
1.83277e+06
1.78136e+06
1.7327e+06
1.68697e+06
1.64485e+06
1.60656e+06
1.57232e+06
1.54217e+06
1.51616e+06
1.49425e+06
1.47647e+06
1.46277e+06
1.45341e+06
1.4483e+06
1.44867e+06
1.45382e+06
2.08346e+06
2.0193e+06
1.97255e+06
1.91995e+06
1.86824e+06
1.81686e+06
1.76729e+06
1.72004e+06
1.67587e+06
1.63514e+06
1.59822e+06
1.56528e+06
1.53649e+06
1.51194e+06
1.4918e+06
1.47615e+06
1.46551e+06
1.45989e+06
1.46108e+06
1.46836e+06
2.02995e+06
1.99697e+06
1.95428e+06
1.9086e+06
1.86192e+06
1.8148e+06
1.76864e+06
1.72399e+06
1.68169e+06
1.64219e+06
1.60596e+06
1.5733e+06
1.54448e+06
1.5197e+06
1.49928e+06
1.48341e+06
1.47279e+06
1.46756e+06
1.46992e+06
1.47905e+06
1.98684e+06
1.9619e+06
1.92918e+06
1.89008e+06
1.84943e+06
1.80686e+06
1.76445e+06
1.72265e+06
1.68252e+06
1.64457e+06
1.60939e+06
1.57736e+06
1.54887e+06
1.52422e+06
1.50382e+06
1.488e+06
1.47758e+06
1.47277e+06
1.47598e+06
1.48636e+06
1.93555e+06
1.92058e+06
1.89606e+06
1.86337e+06
1.82848e+06
1.79056e+06
1.75214e+06
1.71361e+06
1.67616e+06
1.64036e+06
1.60686e+06
1.57612e+06
1.5486e+06
1.52468e+06
1.50482e+06
1.48948e+06
1.47944e+06
1.47517e+06
1.47925e+06
1.49031e+06
1.87714e+06
1.87007e+06
1.85327e+06
1.82729e+06
1.79855e+06
1.76584e+06
1.73198e+06
1.6973e+06
1.66314e+06
1.63007e+06
1.59885e+06
1.56998e+06
1.54397e+06
1.52127e+06
1.50235e+06
1.48783e+06
1.47815e+06
1.47498e+06
1.47701e+06
1.49063e+06
1.81499e+06
1.81495e+06
1.80509e+06
1.78541e+06
1.76247e+06
1.73492e+06
1.70567e+06
1.67507e+06
1.64449e+06
1.61454e+06
1.58603e+06
1.55949e+06
1.53547e+06
1.51443e+06
1.49693e+06
1.48341e+06
1.47483e+06
1.47167e+06
1.47589e+06
1.48653e+06
1.75018e+06
1.75595e+06
1.75216e+06
1.73837e+06
1.72093e+06
1.69849e+06
1.67393e+06
1.64757e+06
1.62084e+06
1.59433e+06
1.56889e+06
1.54505e+06
1.52339e+06
1.50437e+06
1.48855e+06
1.47634e+06
1.46865e+06
1.46567e+06
1.46956e+06
1.47955e+06
1.68405e+06
1.69462e+06
1.69611e+06
1.68764e+06
1.67527e+06
1.65771e+06
1.63773e+06
1.61566e+06
1.59289e+06
1.57003e+06
1.54791e+06
1.52707e+06
1.50808e+06
1.49139e+06
1.47751e+06
1.4668e+06
1.46006e+06
1.45748e+06
1.46089e+06
1.46951e+06
1.61717e+06
1.63156e+06
1.63753e+06
1.6338e+06
1.62609e+06
1.61316e+06
1.59765e+06
1.57987e+06
1.56115e+06
1.5421e+06
1.52351e+06
1.50591e+06
1.48985e+06
1.47574e+06
1.46404e+06
1.45504e+06
1.44939e+06
1.44717e+06
1.44992e+06
1.45691e+06
1.54983e+06
1.56721e+06
1.57697e+06
1.57744e+06
1.57398e+06
1.56544e+06
1.55425e+06
1.54072e+06
1.5261e+06
1.51097e+06
1.49608e+06
1.48193e+06
1.46902e+06
1.45772e+06
1.44842e+06
1.44133e+06
1.4369e+06
1.43516e+06
1.43717e+06
1.44227e+06
1.48194e+06
1.50161e+06
1.51455e+06
1.51877e+06
1.51923e+06
1.51487e+06
1.50791e+06
1.49862e+06
1.48817e+06
1.47707e+06
1.46603e+06
1.4555e+06
1.44593e+06
1.43764e+06
1.43094e+06
1.42595e+06
1.42293e+06
1.42179e+06
1.42308e+06
1.42623e+06
1.41315e+06
1.4346e+06
1.45027e+06
1.45791e+06
1.46208e+06
1.46179e+06
1.45901e+06
1.454e+06
1.4478e+06
1.44086e+06
1.43381e+06
1.42706e+06
1.421e+06
1.4159e+06
1.41197e+06
1.40927e+06
1.40785e+06
1.4075e+06
1.40823e+06
1.40948e+06
1.34282e+06
1.36573e+06
1.38386e+06
1.39478e+06
1.40259e+06
1.40638e+06
1.40787e+06
1.40726e+06
1.40545e+06
1.40283e+06
1.39994e+06
1.39714e+06
1.39474e+06
1.39297e+06
1.39197e+06
1.39172e+06
1.3921e+06
1.39275e+06
1.39317e+06
1.39277e+06
1.27027e+06
1.29459e+06
1.31514e+06
1.32939e+06
1.34096e+06
1.349e+06
1.35495e+06
1.35897e+06
1.36177e+06
1.36368e+06
1.36513e+06
1.36643e+06
1.36783e+06
1.3695e+06
1.37152e+06
1.37384e+06
1.37618e+06
1.37808e+06
1.37853e+06
1.37685e+06
1.19438e+06
1.22037e+06
1.24361e+06
1.26155e+06
1.27726e+06
1.28995e+06
1.30076e+06
1.30975e+06
1.3175e+06
1.32422e+06
1.33026e+06
1.33583e+06
1.34114e+06
1.34632e+06
1.3514e+06
1.35632e+06
1.36071e+06
1.36404e+06
1.36492e+06
1.36249e+06
1.11471e+06
1.14299e+06
1.16951e+06
1.19176e+06
1.21223e+06
1.23013e+06
1.24631e+06
1.26075e+06
1.27383e+06
1.28567e+06
1.29652e+06
1.30651e+06
1.3158e+06
1.32447e+06
1.33257e+06
1.34e+06
1.34642e+06
1.35126e+06
1.35294e+06
1.35036e+06
1.02968e+06
1.06151e+06
1.09243e+06
1.12009e+06
1.1463e+06
1.1703e+06
1.19263e+06
1.21314e+06
1.23207e+06
1.24944e+06
1.26537e+06
1.27995e+06
1.29327e+06
1.30539e+06
1.31633e+06
1.32606e+06
1.33427e+06
1.3405e+06
1.34322e+06
1.34115e+06
940978
977996
1.01472e+06
1.04907e+06
1.0821e+06
1.11307e+06
1.14223e+06
1.16935e+06
1.1945e+06
1.21763e+06
1.23878e+06
1.25796e+06
1.27523e+06
1.29061e+06
1.30413e+06
1.31577e+06
1.32535e+06
1.33256e+06
1.33626e+06
1.33516e+06
846835
891812
936651
979604
1.021e+06
1.06015e+06
1.09706e+06
1.13145e+06
1.16328e+06
1.19247e+06
1.21901e+06
1.24287e+06
1.26406e+06
1.28257e+06
1.29837e+06
1.31144e+06
1.32167e+06
1.32898e+06
1.33286e+06
1.33277e+06
758314
813508
868020
920462
970763
1.01824e+06
1.06282e+06
1.10419e+06
1.14232e+06
1.17712e+06
1.20858e+06
1.23666e+06
1.26136e+06
1.28261e+06
1.30032e+06
1.31439e+06
1.32464e+06
1.33113e+06
1.33369e+06
1.33327e+06
1.18731e+06
1.26773e+06
1.40465e+06
1.55546e+06
1.70539e+06
1.83739e+06
1.94426e+06
2.02097e+06
2.06842e+06
2.07837e+06
1.12458e+06
1.19958e+06
1.32595e+06
1.46846e+06
1.61509e+06
1.74969e+06
1.86489e+06
1.95344e+06
2.01488e+06
2.03911e+06
1.06839e+06
1.13993e+06
1.25752e+06
1.39103e+06
1.53074e+06
1.6618e+06
1.778e+06
1.87322e+06
1.94748e+06
1.99322e+06
1.01699e+06
1.0862e+06
1.19652e+06
1.32201e+06
1.45525e+06
1.58248e+06
1.69764e+06
1.79491e+06
1.87281e+06
1.93166e+06
968787
1.03641e+06
1.14056e+06
1.25852e+06
1.38487e+06
1.50732e+06
1.62033e+06
1.71928e+06
1.79966e+06
1.86605e+06
923519
990135
1.0892e+06
1.20048e+06
1.32019e+06
1.43725e+06
1.54639e+06
1.64448e+06
1.72491e+06
1.79617e+06
880380
946308
1.04107e+06
1.1464e+06
1.25986e+06
1.37162e+06
1.47661e+06
1.57301e+06
1.6523e+06
1.72516e+06
839208
904587
995644
1.09561e+06
1.20314e+06
1.30947e+06
1.40982e+06
1.50351e+06
1.58104e+06
1.65397e+06
799733
864552
952286
1.04737e+06
1.14935e+06
1.2504e+06
1.34604e+06
1.4364e+06
1.51163e+06
1.58332e+06
761952
826026
910593
1.00106e+06
1.09769e+06
1.19345e+06
1.2843e+06
1.37088e+06
1.44358e+06
1.51332e+06
725958
788941
870262
956143
1.04752e+06
1.13797e+06
1.22398e+06
1.30646e+06
1.37636e+06
1.4437e+06
692043
753383
831091
912150
998102
1.08308e+06
1.16413e+06
1.24227e+06
1.30922e+06
1.37392e+06
660781
719615
792907
868502
948582
1.02777e+06
1.10368e+06
1.17726e+06
1.24114e+06
1.3031e+06
633034
688054
755629
824719
898159
971052
1.04152e+06
1.11038e+06
1.1711e+06
1.23033e+06
610445
659362
718775
779514
845096
911023
975763
1.03981e+06
1.09746e+06
1.15416e+06
594981
633874
681815
732051
788332
846542
905254
964505
1.0193e+06
1.07384e+06
590940
612190
641955
677997
723241
773237
826114
881135
933864
987153
599220
590247
596057
615833
649175
690972
738633
790369
842188
895422
630288
562491
530078
529992
552796
588959
634365
685805
739611
795494
643722
493114
439176
423754
441437
476030
523150
578066
637204
698754
)
;

boundaryField
{
    left
    {
        type            calculated;
        value           nonuniform List<scalar> 
30
(
1.17357e+06
1.11158e+06
1.0561e+06
1.00531e+06
957778
913242
870975
830851
792661
756462
722411
690865
662458
638145
619647
609527
612917
636161
700362
801191
5.3209e+06
3.41036e+06
2.56777e+06
2.13423e+06
1.86415e+06
1.67255e+06
1.52885e+06
1.41477e+06
1.32159e+06
1.24122e+06
)
;
    }
    right
    {
        type            calculated;
        value           nonuniform List<scalar> 
30
(
1.33275e+06
1.33239e+06
1.33599e+06
1.34522e+06
1.35903e+06
1.37652e+06
1.39616e+06
1.41653e+06
1.43625e+06
1.45402e+06
1.46862e+06
1.47949e+06
1.48684e+06
1.49082e+06
1.49076e+06
1.48696e+06
1.48001e+06
1.46989e+06
1.4572e+06
1.44245e+06
1.42631e+06
1.40947e+06
1.39269e+06
1.37672e+06
1.36233e+06
1.35022e+06
1.34107e+06
1.33515e+06
1.33282e+06
1.33301e+06
)
;
    }
    down
    {
        type            calculated;
        value           nonuniform List<scalar> 
30
(
5745.97
5350.64
61089.7
149241
250940
357327
461331
560506
651531
735871
811776
877972
938759
993431
1.04275e+06
1.08696e+06
1.12659e+06
1.16192e+06
1.19336e+06
1.22116e+06
1.24559e+06
1.26682e+06
1.28499e+06
1.30021e+06
1.31252e+06
1.32197e+06
1.32854e+06
1.33247e+06
1.33373e+06
1.3333e+06
)
;
    }
    up
    {
        type            calculated;
        value           nonuniform List<scalar> 
30
(
634361
487321
436161
420430
437630
471706
518507
573331
632424
694235
753988
809625
864670
917554
968313
1.01619e+06
1.06114e+06
1.10284e+06
1.14127e+06
1.17633e+06
1.20801e+06
1.23629e+06
1.26114e+06
1.28252e+06
1.30031e+06
1.31444e+06
1.32468e+06
1.33115e+06
1.33366e+06
1.33347e+06
)
;
    }
    hole
    {
        type            calculated;
        value           nonuniform List<scalar> 
20
(
2.37693e+06
2.78826e+06
3.19036e+06
3.57517e+06
3.93076e+06
4.25888e+06
4.54212e+06
4.8152e+06
5.02509e+06
5.27223e+06
1378.09
1502.41
47093.4
159699
335463
572813
863921
1.20052e+06
1.57208e+06
1.96803e+06
)
;
    }
    frontAndBack
    {
        type            empty;
    }
}


// ************************************************************************* //
