/*--------------------------------*- C++ -*----------------------------------*\
  =========                 |
  \\      /  F ield         | OpenFOAM: The Open Source CFD Toolbox
   \\    /   O peration     | Website:  https://openfoam.org
    \\  /    A nd           | Version:  9
     \\/     M anipulation  |
\*---------------------------------------------------------------------------*/
FoamFile
{
    format      ascii;
    class       volVectorField;
    location    "1";
    object      D;
}
// * * * * * * * * * * * * * * * * * * * * * * * * * * * * * * * * * * * * * //

dimensions      [0 1 0 0 0 0 0];

internalField   nonuniform List<vector> 
1000
(
(6.76037e-07 2.27339e-07 0)
(6.30809e-07 2.51047e-07 0)
(5.97909e-07 2.71009e-07 0)
(5.74135e-07 2.86609e-07 0)
(5.57169e-07 3.00078e-07 0)
(5.45198e-07 3.11666e-07 0)
(5.37091e-07 3.22109e-07 0)
(5.31941e-07 3.31619e-07 0)
(5.29034e-07 3.40492e-07 0)
(5.28006e-07 3.48903e-07 0)
(6.09221e-07 2.04995e-07 0)
(5.62262e-07 2.22213e-07 0)
(5.28332e-07 2.37324e-07 0)
(5.03921e-07 2.48987e-07 0)
(4.86523e-07 2.59235e-07 0)
(4.74204e-07 2.68046e-07 0)
(4.65761e-07 2.76039e-07 0)
(4.60233e-07 2.83347e-07 0)
(4.56886e-07 2.90127e-07 0)
(4.55227e-07 2.96741e-07 0)
(5.40983e-07 1.82604e-07 0)
(4.93599e-07 1.92909e-07 0)
(4.59565e-07 2.02967e-07 0)
(4.35207e-07 2.10645e-07 0)
(4.17906e-07 2.17725e-07 0)
(4.05652e-07 2.23873e-07 0)
(3.97197e-07 2.29573e-07 0)
(3.9156e-07 2.34851e-07 0)
(3.88e-07 2.39736e-07 0)
(3.86e-07 2.44633e-07 0)
(4.71669e-07 1.60525e-07 0)
(4.25224e-07 1.63765e-07 0)
(3.92074e-07 1.68753e-07 0)
(3.68516e-07 1.7253e-07 0)
(3.51882e-07 1.76595e-07 0)
(3.4014e-07 1.80269e-07 0)
(3.32034e-07 1.8389e-07 0)
(3.26574e-07 1.87349e-07 0)
(3.23065e-07 1.90577e-07 0)
(3.20939e-07 1.93937e-07 0)
(4.01451e-07 1.39089e-07 0)
(3.57351e-07 1.35398e-07 0)
(3.26121e-07 1.35517e-07 0)
(3.04165e-07 1.35645e-07 0)
(2.88809e-07 1.36986e-07 0)
(2.78049e-07 1.3849e-07 0)
(2.70651e-07 1.4034e-07 0)
(2.6565e-07 1.4227e-07 0)
(2.62411e-07 1.4413e-07 0)
(2.6035e-07 1.46193e-07 0)
(3.3063e-07 1.18444e-07 0)
(2.90169e-07 1.08241e-07 0)
(2.61925e-07 1.03963e-07 0)
(2.42406e-07 1.00903e-07 0)
(2.28957e-07 9.99816e-08 0)
(2.19647e-07 9.97457e-08 0)
(2.13303e-07 1.00227e-07 0)
(2.09019e-07 1.00996e-07 0)
(2.0624e-07 1.01839e-07 0)
(2.04399e-07 1.02912e-07 0)
(2.58933e-07 9.8575e-08 0)
(2.23522e-07 8.25822e-08 0)
(1.9941e-07 7.47142e-08 0)
(1.83223e-07 6.92213e-08 0)
(1.72332e-07 6.67082e-08 0)
(1.64922e-07 6.53093e-08 0)
(1.59942e-07 6.49132e-08 0)
(1.56588e-07 6.49419e-08 0)
(1.54414e-07 6.51479e-08 0)
(1.52912e-07 6.55706e-08 0)
(1.86862e-07 7.8915e-08 0)
(1.57675e-07 5.83196e-08 0)
(1.38937e-07 4.82584e-08 0)
(1.26944e-07 4.14992e-08 0)
(1.19154e-07 3.83189e-08 0)
(1.13964e-07 3.64828e-08 0)
(1.10533e-07 3.57691e-08 0)
(1.08225e-07 3.55117e-08 0)
(1.06726e-07 3.54661e-08 0)
(1.05638e-07 3.55836e-08 0)
(1.12799e-07 5.752e-08 0)
(9.21779e-08 3.47476e-08 0)
(8.03174e-08 2.48619e-08 0)
(7.32741e-08 1.87001e-08 0)
(6.89997e-08 1.6049e-08 0)
(6.61993e-08 1.45785e-08 0)
(6.43886e-08 1.40596e-08 0)
(6.31472e-08 1.38784e-08 0)
(6.23279e-08 1.3856e-08 0)
(6.16809e-08 1.39164e-08 0)
(3.88788e-08 3.01046e-08 0)
(2.93096e-08 1.27889e-08 0)
(2.56582e-08 6.70129e-09 0)
(2.37265e-08 3.63694e-09 0)
(2.26041e-08 2.57894e-09 0)
(2.18194e-08 2.09815e-09 0)
(2.13057e-08 2.02768e-09 0)
(2.09282e-08 2.06356e-09 0)
(2.06694e-08 2.13783e-09 0)
(2.04404e-08 2.2204e-09 0)
(1.19236e-06 3.68349e-07 0)
(1.19036e-06 4.14146e-07 0)
(1.18896e-06 4.56816e-07 0)
(1.18898e-06 4.95882e-07 0)
(1.19074e-06 5.31744e-07 0)
(1.19438e-06 5.64848e-07 0)
(1.19992e-06 5.9571e-07 0)
(1.20724e-06 6.24776e-07 0)
(1.21628e-06 6.524e-07 0)
(1.22682e-06 6.78976e-07 0)
(1.15494e-06 3.6531e-07 0)
(1.14961e-06 4.10972e-07 0)
(1.14597e-06 4.53121e-07 0)
(1.14433e-06 4.91398e-07 0)
(1.14489e-06 5.26297e-07 0)
(1.14754e-06 5.58291e-07 0)
(1.15217e-06 5.87947e-07 0)
(1.15858e-06 6.15737e-07 0)
(1.16668e-06 6.4203e-07 0)
(1.17615e-06 6.67272e-07 0)
(1.11526e-06 3.59159e-07 0)
(1.10598e-06 4.04702e-07 0)
(1.09928e-06 4.4599e-07 0)
(1.09523e-06 4.8303e-07 0)
(1.09388e-06 5.16571e-07 0)
(1.09491e-06 5.47152e-07 0)
(1.09814e-06 5.7538e-07 0)
(1.10322e-06 6.01733e-07 0)
(1.11005e-06 6.26595e-07 0)
(1.1182e-06 6.50426e-07 0)
(1.07238e-06 3.50225e-07 0)
(1.05867e-06 3.95545e-07 0)
(1.04841e-06 4.3578e-07 0)
(1.04149e-06 4.71308e-07 0)
(1.0378e-06 5.03215e-07 0)
(1.03684e-06 5.32122e-07 0)
(1.03833e-06 5.58691e-07 0)
(1.04182e-06 5.83406e-07 0)
(1.04717e-06 6.06663e-07 0)
(1.05382e-06 6.28919e-07 0)
(1.02581e-06 3.3859e-07 0)
(1.00725e-06 3.83327e-07 0)
(9.93175e-07 4.22176e-07 0)
(9.83241e-07 4.55844e-07 0)
(9.77073e-07 4.85798e-07 0)
(9.74013e-07 5.12744e-07 0)
(9.73664e-07 5.37408e-07 0)
(9.7548e-07 5.6027e-07 0)
(9.79284e-07 5.8175e-07 0)
(9.84401e-07 6.02272e-07 0)
(9.75491e-07 3.24525e-07 0)
(9.51795e-07 3.68062e-07 0)
(9.33833e-07 4.05123e-07 0)
(9.20885e-07 4.36613e-07 0)
(9.12266e-07 4.64351e-07 0)
(9.07133e-07 4.89101e-07 0)
(9.04976e-07 5.11656e-07 0)
(9.05152e-07 5.32482e-07 0)
(9.07444e-07 5.52026e-07 0)
(9.11079e-07 5.70659e-07 0)
(9.21539e-07 3.08244e-07 0)
(8.9264e-07 3.4975e-07 0)
(8.70877e-07 3.84513e-07 0)
(8.55054e-07 4.13476e-07 0)
(8.44138e-07 4.38744e-07 0)
(8.37082e-07 4.61093e-07 0)
(8.33252e-07 4.8137e-07 0)
(8.31916e-07 5.00015e-07 0)
(8.32807e-07 5.17497e-07 0)
(8.35087e-07 5.34122e-07 0)
(8.64239e-07 2.9005e-07 0)
(8.30318e-07 3.28562e-07 0)
(8.04999e-07 3.60463e-07 0)
(7.86552e-07 3.86554e-07 0)
(7.7358e-07 4.09127e-07 0)
(7.64824e-07 4.28915e-07 0)
(7.5952e-07 4.46793e-07 0)
(7.56861e-07 4.63153e-07 0)
(7.5651e-07 4.78486e-07 0)
(7.57614e-07 4.93001e-07 0)
(8.03953e-07 2.70257e-07 0)
(7.65461e-07 3.04764e-07 0)
(7.36999e-07 3.33216e-07 0)
(7.16287e-07 3.56095e-07 0)
(7.01581e-07 3.75774e-07 0)
(6.91409e-07 3.92882e-07 0)
(6.84875e-07 4.08282e-07 0)
(6.81119e-07 4.22315e-07 0)
(6.79707e-07 4.35438e-07 0)
(6.79852e-07 4.47814e-07 0)
(7.41082e-07 2.49224e-07 0)
(6.98739e-07 2.78758e-07 0)
(6.677e-07 3.03205e-07 0)
(6.45179e-07 3.22568e-07 0)
(6.29118e-07 3.39196e-07 0)
(6.17854e-07 3.53552e-07 0)
(6.10371e-07 3.66459e-07 0)
(6.05766e-07 3.78162e-07 0)
(6.03507e-07 3.89112e-07 0)
(6.02971e-07 3.99212e-07 0)
(1.23941e-06 7.0454e-07 0)
(1.25387e-06 7.29913e-07 0)
(1.26944e-06 7.54878e-07 0)
(1.28601e-06 7.79556e-07 0)
(1.30347e-06 8.0407e-07 0)
(1.32173e-06 8.28494e-07 0)
(1.34072e-06 8.52909e-07 0)
(1.36035e-06 8.77372e-07 0)
(1.38055e-06 9.01937e-07 0)
(1.40127e-06 9.26646e-07 0)
(1.42244e-06 9.51537e-07 0)
(1.44399e-06 9.76641e-07 0)
(1.46589e-06 1.00198e-06 0)
(1.48808e-06 1.02759e-06 0)
(1.5105e-06 1.05347e-06 0)
(1.53311e-06 1.07963e-06 0)
(1.55587e-06 1.10606e-06 0)
(1.5787e-06 1.13276e-06 0)
(1.60159e-06 1.15966e-06 0)
(1.62448e-06 1.18669e-06 0)
(1.18927e-06 6.91869e-07 0)
(1.20552e-06 7.16819e-07 0)
(1.22264e-06 7.41387e-07 0)
(1.2405e-06 7.65713e-07 0)
(1.25906e-06 7.89929e-07 0)
(1.27825e-06 8.14098e-07 0)
(1.29801e-06 8.38307e-07 0)
(1.31829e-06 8.62605e-07 0)
(1.33904e-06 8.87047e-07 0)
(1.36021e-06 9.11672e-07 0)
(1.38176e-06 9.36517e-07 0)
(1.40365e-06 9.6161e-07 0)
(1.42583e-06 9.86976e-07 0)
(1.44826e-06 1.01264e-06 0)
(1.47092e-06 1.0386e-06 0)
(1.49377e-06 1.06489e-06 0)
(1.51676e-06 1.09148e-06 0)
(1.53987e-06 1.11836e-06 0)
(1.56306e-06 1.14549e-06 0)
(1.58627e-06 1.17279e-06 0)
(1.13206e-06 6.74294e-07 0)
(1.1506e-06 6.99288e-07 0)
(1.16978e-06 7.23912e-07 0)
(1.18942e-06 7.48286e-07 0)
(1.20955e-06 7.72568e-07 0)
(1.23009e-06 7.96808e-07 0)
(1.25105e-06 8.21107e-07 0)
(1.27237e-06 8.45509e-07 0)
(1.29405e-06 8.70073e-07 0)
(1.31603e-06 8.94837e-07 0)
(1.3383e-06 9.1984e-07 0)
(1.36084e-06 9.45111e-07 0)
(1.38362e-06 9.70676e-07 0)
(1.40661e-06 9.96555e-07 0)
(1.42979e-06 1.02277e-06 0)
(1.45313e-06 1.04932e-06 0)
(1.47663e-06 1.07621e-06 0)
(1.50023e-06 1.10344e-06 0)
(1.52393e-06 1.13099e-06 0)
(1.54764e-06 1.1588e-06 0)
(1.06859e-06 6.52201e-07 0)
(1.08987e-06 6.77599e-07 0)
(1.11155e-06 7.02644e-07 0)
(1.13337e-06 7.2739e-07 0)
(1.15548e-06 7.52043e-07 0)
(1.17777e-06 7.76634e-07 0)
(1.20029e-06 8.01279e-07 0)
(1.22301e-06 8.26021e-07 0)
(1.24593e-06 8.50928e-07 0)
(1.26905e-06 8.76036e-07 0)
(1.29235e-06 9.01389e-07 0)
(1.31582e-06 9.27018e-07 0)
(1.33946e-06 9.52953e-07 0)
(1.36325e-06 9.79216e-07 0)
(1.38719e-06 1.00583e-06 0)
(1.41126e-06 1.03281e-06 0)
(1.43545e-06 1.06017e-06 0)
(1.45974e-06 1.08791e-06 0)
(1.4841e-06 1.11604e-06 0)
(1.50848e-06 1.14455e-06 0)
(1.00026e-06 6.25166e-07 0)
(1.0246e-06 6.51379e-07 0)
(1.04911e-06 6.7726e-07 0)
(1.07343e-06 7.02746e-07 0)
(1.09781e-06 7.28116e-07 0)
(1.12214e-06 7.53371e-07 0)
(1.14651e-06 7.78653e-07 0)
(1.17089e-06 8.04002e-07 0)
(1.19532e-06 8.29494e-07 0)
(1.21981e-06 8.55173e-07 0)
(1.24436e-06 8.81086e-07 0)
(1.26898e-06 9.07268e-07 0)
(1.29368e-06 9.33753e-07 0)
(1.31847e-06 9.60571e-07 0)
(1.34334e-06 9.87749e-07 0)
(1.3683e-06 1.01531e-06 0)
(1.39334e-06 1.04328e-06 0)
(1.41845e-06 1.07169e-06 0)
(1.44362e-06 1.10056e-06 0)
(1.46879e-06 1.12991e-06 0)
(9.28172e-07 5.93349e-07 0)
(9.55802e-07 6.20758e-07 0)
(9.83392e-07 6.47862e-07 0)
(1.01045e-06 6.74436e-07 0)
(1.03734e-06 7.00845e-07 0)
(1.06393e-06 7.27067e-07 0)
(1.09036e-06 7.53261e-07 0)
(1.11661e-06 7.79476e-07 0)
(1.14275e-06 8.05793e-07 0)
(1.1688e-06 8.32264e-07 0)
(1.19478e-06 8.58942e-07 0)
(1.22072e-06 8.85869e-07 0)
(1.24665e-06 9.13086e-07 0)
(1.27257e-06 9.40626e-07 0)
(1.29852e-06 9.68526e-07 0)
(1.32448e-06 9.96819e-07 0)
(1.35049e-06 1.02554e-06 0)
(1.37653e-06 1.05474e-06 0)
(1.4026e-06 1.08447e-06 0)
(1.42866e-06 1.11478e-06 0)
(8.53528e-07 5.56807e-07 0)
(8.84564e-07 5.85797e-07 0)
(9.15385e-07 6.145e-07 0)
(9.4532e-07 6.42516e-07 0)
(9.74876e-07 6.70281e-07 0)
(1.00388e-06 6.97768e-07 0)
(1.03252e-06 7.25147e-07 0)
(1.0608e-06 7.5248e-07 0)
(1.08879e-06 7.79857e-07 0)
(1.11653e-06 8.0734e-07 0)
(1.14408e-06 8.34989e-07 0)
(1.17146e-06 8.62853e-07 0)
(1.19873e-06 8.9098e-07 0)
(1.22589e-06 9.19411e-07 0)
(1.253e-06 9.48189e-07 0)
(1.28007e-06 9.77356e-07 0)
(1.30712e-06 1.00696e-06 0)
(1.33416e-06 1.03706e-06 0)
(1.36121e-06 1.06775e-06 0)
(1.38825e-06 1.09907e-06 0)
(7.77446e-07 5.15868e-07 0)
(8.11897e-07 5.46799e-07 0)
(8.45987e-07 5.77404e-07 0)
(8.78873e-07 6.0719e-07 0)
(9.11158e-07 6.36595e-07 0)
(9.42672e-07 6.65632e-07 0)
(9.73621e-07 6.94458e-07 0)
(1.00402e-06 7.23158e-07 0)
(1.03396e-06 7.51825e-07 0)
(1.06351e-06 7.80533e-07 0)
(1.09271e-06 8.0935e-07 0)
(1.12162e-06 8.38335e-07 0)
(1.1503e-06 8.67541e-07 0)
(1.17878e-06 8.97018e-07 0)
(1.20712e-06 9.26816e-07 0)
(1.23534e-06 9.56985e-07 0)
(1.26348e-06 9.87588e-07 0)
(1.29158e-06 1.01869e-06 0)
(1.31966e-06 1.05039e-06 0)
(1.34773e-06 1.08277e-06 0)
(7.01066e-07 4.70915e-07 0)
(7.38844e-07 5.04168e-07 0)
(7.76115e-07 5.36909e-07 0)
(8.11968e-07 5.68765e-07 0)
(8.46976e-07 6.00047e-07 0)
(8.81028e-07 6.30863e-07 0)
(9.1431e-07 6.6135e-07 0)
(9.46869e-07 6.91623e-07 0)
(9.78805e-07 7.21782e-07 0)
(1.01019e-06 7.51911e-07 0)
(1.04109e-06 7.82086e-07 0)
(1.07158e-06 8.12373e-07 0)
(1.10172e-06 8.42829e-07 0)
(1.13156e-06 8.73512e-07 0)
(1.16116e-06 9.04475e-07 0)
(1.19057e-06 9.35775e-07 0)
(1.21984e-06 9.6748e-07 0)
(1.24902e-06 9.99661e-07 0)
(1.27814e-06 1.03244e-06 0)
(1.30728e-06 1.06588e-06 0)
(6.25278e-07 4.22637e-07 0)
(6.66211e-07 4.58448e-07 0)
(7.06329e-07 4.93394e-07 0)
(7.45079e-07 5.27543e-07 0)
(7.82757e-07 5.60954e-07 0)
(8.19363e-07 5.9379e-07 0)
(8.55011e-07 6.26171e-07 0)
(8.89775e-07 6.58225e-07 0)
(9.23748e-07 6.90064e-07 0)
(9.57013e-07 7.21785e-07 0)
(9.89652e-07 7.53475e-07 0)
(1.02174e-06 7.85209e-07 0)
(1.05336e-06 8.17053e-07 0)
(1.08458e-06 8.49068e-07 0)
(1.11546e-06 8.81313e-07 0)
(1.14606e-06 9.13847e-07 0)
(1.17646e-06 9.46741e-07 0)
(1.20672e-06 9.80069e-07 0)
(1.23688e-06 1.01395e-06 0)
(1.26707e-06 1.04846e-06 0)
(5.66819e-07 3.86437e-07 0)
(6.095e-07 4.24108e-07 0)
(6.51115e-07 4.603e-07 0)
(6.91436e-07 4.95754e-07 0)
(7.30631e-07 5.30468e-07 0)
(7.68704e-07 5.64592e-07 0)
(8.05758e-07 5.98239e-07 0)
(8.4185e-07 6.31521e-07 0)
(8.77073e-07 6.6454e-07 0)
(9.11501e-07 6.97389e-07 0)
(9.45218e-07 7.3015e-07 0)
(9.78304e-07 7.62895e-07 0)
(1.01083e-06 7.95688e-07 0)
(1.04289e-06 8.28589e-07 0)
(1.07453e-06 8.61653e-07 0)
(1.10584e-06 8.94936e-07 0)
(1.13689e-06 9.28504e-07 0)
(1.16776e-06 9.62422e-07 0)
(1.1985e-06 9.96797e-07 0)
(1.22929e-06 1.0317e-06 0)
(5.27809e-07 3.64778e-07 0)
(5.70495e-07 4.02443e-07 0)
(6.12123e-07 4.38931e-07 0)
(6.52576e-07 4.74785e-07 0)
(6.91971e-07 5.09993e-07 0)
(7.30295e-07 5.44658e-07 0)
(7.67632e-07 5.78872e-07 0)
(8.04026e-07 6.12722e-07 0)
(8.39553e-07 6.46295e-07 0)
(8.74278e-07 6.79668e-07 0)
(9.08276e-07 7.12913e-07 0)
(9.41619e-07 7.46092e-07 0)
(9.74381e-07 7.79264e-07 0)
(1.00664e-06 8.1248e-07 0)
(1.03845e-06 8.4579e-07 0)
(1.06991e-06 8.79243e-07 0)
(1.10108e-06 9.12892e-07 0)
(1.13206e-06 9.46794e-07 0)
(1.1629e-06 9.81032e-07 0)
(1.19379e-06 1.01565e-06 0)
(4.93373e-07 3.43979e-07 0)
(5.35291e-07 3.81533e-07 0)
(5.76493e-07 4.18125e-07 0)
(6.16636e-07 4.54222e-07 0)
(6.5587e-07 4.89785e-07 0)
(6.94122e-07 5.24879e-07 0)
(7.31463e-07 5.5957e-07 0)
(7.67911e-07 5.93921e-07 0)
(8.03527e-07 6.27999e-07 0)
(8.38362e-07 6.61863e-07 0)
(8.72481e-07 6.9557e-07 0)
(9.05947e-07 7.29173e-07 0)
(9.38828e-07 7.62718e-07 0)
(9.71192e-07 7.96248e-07 0)
(1.00311e-06 8.29804e-07 0)
(1.03466e-06 8.63424e-07 0)
(1.0659e-06 8.97149e-07 0)
(1.09695e-06 9.3102e-07 0)
(1.12786e-06 9.6509e-07 0)
(1.15882e-06 9.99392e-07 0)
(4.62506e-07 3.23945e-07 0)
(5.03421e-07 3.61195e-07 0)
(5.43883e-07 3.97754e-07 0)
(5.83428e-07 4.33993e-07 0)
(6.2222e-07 4.69826e-07 0)
(6.60138e-07 5.05282e-07 0)
(6.97242e-07 5.40394e-07 0)
(7.33525e-07 5.752e-07 0)
(7.69035e-07 6.09744e-07 0)
(8.03808e-07 6.44068e-07 0)
(8.37898e-07 6.78214e-07 0)
(8.71358e-07 7.12221e-07 0)
(9.04248e-07 7.46126e-07 0)
(9.36631e-07 7.7996e-07 0)
(9.68572e-07 8.13752e-07 0)
(1.00014e-06 8.47532e-07 0)
(1.03142e-06 8.8132e-07 0)
(1.06249e-06 9.1515e-07 0)
(1.09343e-06 9.49039e-07 0)
(1.12443e-06 9.82997e-07 0)
(4.34856e-07 3.04887e-07 0)
(4.7454e-07 3.41721e-07 0)
(5.1401e-07 3.78127e-07 0)
(5.52714e-07 4.14387e-07 0)
(5.90828e-07 4.50378e-07 0)
(6.28192e-07 4.86097e-07 0)
(6.64854e-07 5.21544e-07 0)
(7.00786e-07 5.56732e-07 0)
(7.36021e-07 5.91681e-07 0)
(7.7058e-07 6.26416e-07 0)
(8.04506e-07 6.60961e-07 0)
(8.37843e-07 6.95342e-07 0)
(8.70641e-07 7.29582e-07 0)
(9.02957e-07 7.637e-07 0)
(9.34851e-07 7.97715e-07 0)
(9.66388e-07 8.31639e-07 0)
(9.97644e-07 8.65484e-07 0)
(1.02869e-06 8.9926e-07 0)
(1.05965e-06 9.32942e-07 0)
(1.09068e-06 9.66546e-07 0)
(4.09889e-07 2.86794e-07 0)
(4.48221e-07 3.23107e-07 0)
(4.86531e-07 3.59258e-07 0)
(5.24227e-07 3.9544e-07 0)
(5.61486e-07 4.31498e-07 0)
(5.98122e-07 4.67395e-07 0)
(6.34174e-07 5.03103e-07 0)
(6.69595e-07 5.38606e-07 0)
(7.04407e-07 5.73902e-07 0)
(7.38619e-07 6.08997e-07 0)
(7.72262e-07 6.43898e-07 0)
(8.0537e-07 6.78615e-07 0)
(8.37986e-07 7.13158e-07 0)
(8.70159e-07 7.47535e-07 0)
(9.01941e-07 7.81751e-07 0)
(9.33396e-07 8.15805e-07 0)
(9.64584e-07 8.49694e-07 0)
(9.956e-07 8.83396e-07 0)
(1.0265e-06 9.16884e-07 0)
(1.05746e-06 9.50153e-07 0)
(3.87175e-07 2.69678e-07 0)
(4.24076e-07 3.0541e-07 0)
(4.6111e-07 3.4123e-07 0)
(4.97674e-07 3.77251e-07 0)
(5.33942e-07 4.1329e-07 0)
(5.69715e-07 4.49286e-07 0)
(6.05021e-07 4.85176e-07 0)
(6.39802e-07 5.20923e-07 0)
(6.7407e-07 5.56504e-07 0)
(7.07822e-07 5.91901e-07 0)
(7.4108e-07 6.27108e-07 0)
(7.73868e-07 6.62118e-07 0)
(8.06222e-07 6.96927e-07 0)
(8.38182e-07 7.31531e-07 0)
(8.69795e-07 7.65923e-07 0)
(9.01117e-07 8.00089e-07 0)
(9.32201e-07 8.34007e-07 0)
(9.63134e-07 8.67648e-07 0)
(9.9396e-07 9.00949e-07 0)
(1.02485e-06 9.33883e-07 0)
(3.66288e-07 2.53499e-07 0)
(4.01721e-07 2.88609e-07 0)
(4.37409e-07 3.24043e-07 0)
(4.72759e-07 3.59838e-07 0)
(5.07939e-07 3.95792e-07 0)
(5.42746e-07 4.31816e-07 0)
(5.77202e-07 4.67821e-07 0)
(6.1124e-07 5.03748e-07 0)
(6.44864e-07 5.39551e-07 0)
(6.78062e-07 5.75195e-07 0)
(7.10848e-07 6.10655e-07 0)
(7.43239e-07 6.45912e-07 0)
(7.75262e-07 6.80948e-07 0)
(8.06951e-07 7.15746e-07 0)
(8.38344e-07 7.50286e-07 0)
(8.6949e-07 7.84543e-07 0)
(9.00433e-07 8.18482e-07 0)
(9.31251e-07 8.52056e-07 0)
(9.6198e-07 8.85185e-07 0)
(9.92771e-07 9.17822e-07 0)
(3.46853e-07 2.38208e-07 0)
(3.80803e-07 2.72686e-07 0)
(4.15101e-07 3.077e-07 0)
(4.49183e-07 3.43223e-07 0)
(4.83206e-07 3.79037e-07 0)
(5.16973e-07 4.1503e-07 0)
(5.50499e-07 4.51089e-07 0)
(5.83714e-07 4.87135e-07 0)
(6.16615e-07 5.231e-07 0)
(6.49185e-07 5.58935e-07 0)
(6.81431e-07 5.94597e-07 0)
(7.13361e-07 6.30053e-07 0)
(7.44997e-07 6.65272e-07 0)
(7.76364e-07 7.00227e-07 0)
(8.07494e-07 7.34887e-07 0)
(8.38427e-07 7.69216e-07 0)
(8.692e-07 8.03165e-07 0)
(8.99876e-07 8.36679e-07 0)
(9.30484e-07 8.69655e-07 0)
(9.61149e-07 9.02036e-07 0)
(3.28517e-07 2.23748e-07 0)
(3.60985e-07 2.576e-07 0)
(3.93872e-07 2.92178e-07 0)
(4.26651e-07 3.274e-07 0)
(4.59472e-07 3.63034e-07 0)
(4.92145e-07 3.98948e-07 0)
(5.24683e-07 4.35009e-07 0)
(5.57016e-07 4.71118e-07 0)
(5.89135e-07 5.07191e-07 0)
(6.2102e-07 5.43162e-07 0)
(6.5267e-07 5.78975e-07 0)
(6.8409e-07 6.14582e-07 0)
(7.15294e-07 6.49942e-07 0)
(7.463e-07 6.85017e-07 0)
(7.77132e-07 7.19765e-07 0)
(8.07822e-07 7.54144e-07 0)
(8.38399e-07 7.88095e-07 0)
(8.68912e-07 8.21554e-07 0)
(8.99381e-07 8.54406e-07 0)
(9.29899e-07 8.86583e-07 0)
(3.10961e-07 2.10061e-07 0)
(3.41951e-07 2.43312e-07 0)
(3.73416e-07 2.77454e-07 0)
(4.04873e-07 3.12357e-07 0)
(4.36461e-07 3.47783e-07 0)
(4.68005e-07 3.83579e-07 0)
(4.99516e-07 4.19597e-07 0)
(5.30924e-07 4.55721e-07 0)
(5.6222e-07 4.91851e-07 0)
(5.93378e-07 5.27908e-07 0)
(6.24394e-07 5.6382e-07 0)
(6.55267e-07 5.99531e-07 0)
(6.86005e-07 6.34989e-07 0)
(7.1662e-07 6.70145e-07 0)
(7.47129e-07 7.04953e-07 0)
(7.77554e-07 7.39361e-07 0)
(8.07917e-07 7.73305e-07 0)
(8.3825e-07 8.06716e-07 0)
(8.68565e-07 8.39473e-07 0)
(8.98921e-07 8.71505e-07 0)
(2.93882e-07 1.97101e-07 0)
(3.23398e-07 2.29785e-07 0)
(3.53436e-07 2.63501e-07 0)
(3.83559e-07 2.9808e-07 0)
(4.13896e-07 3.33277e-07 0)
(4.44291e-07 3.68925e-07 0)
(4.74749e-07 4.04861e-07 0)
(5.05208e-07 4.40956e-07 0)
(5.35654e-07 4.77097e-07 0)
(5.66059e-07 5.1319e-07 0)
(5.96417e-07 5.49155e-07 0)
(6.26721e-07 5.84924e-07 0)
(6.56972e-07 6.20436e-07 0)
(6.87176e-07 6.55637e-07 0)
(7.17344e-07 6.90473e-07 0)
(7.4749e-07 7.24887e-07 0)
(7.77624e-07 7.58816e-07 0)
(8.07767e-07 7.92187e-07 0)
(8.3792e-07 8.24881e-07 0)
(8.68107e-07 8.56829e-07 0)
(2.76989e-07 1.84823e-07 0)
(3.05032e-07 2.16981e-07 0)
(3.33638e-07 2.50288e-07 0)
(3.6242e-07 2.84544e-07 0)
(3.91498e-07 3.195e-07 0)
(4.20732e-07 3.54976e-07 0)
(4.50127e-07 3.90797e-07 0)
(4.79625e-07 4.26824e-07 0)
(5.0921e-07 4.62931e-07 0)
(5.38853e-07 4.99016e-07 0)
(5.68543e-07 5.34988e-07 0)
(5.98268e-07 5.70771e-07 0)
(6.28024e-07 6.06297e-07 0)
(6.5781e-07 6.41506e-07 0)
(6.87631e-07 6.76338e-07 0)
(7.1749e-07 7.10738e-07 0)
(7.47391e-07 7.4464e-07 0)
(7.77339e-07 7.77978e-07 0)
(8.07326e-07 8.1064e-07 0)
(8.37343e-07 8.42563e-07 0)
(2.59996e-07 1.73209e-07 0)
(2.86557e-07 2.04884e-07 0)
(3.13725e-07 2.37801e-07 0)
(3.41163e-07 2.71739e-07 0)
(3.6898e-07 3.06442e-07 0)
(3.97053e-07 3.41723e-07 0)
(4.25388e-07 3.77399e-07 0)
(4.53928e-07 4.1332e-07 0)
(4.82656e-07 4.49352e-07 0)
(5.11542e-07 4.85385e-07 0)
(5.40569e-07 5.21321e-07 0)
(5.69721e-07 5.57075e-07 0)
(5.98988e-07 5.92575e-07 0)
(6.28362e-07 6.27755e-07 0)
(6.57838e-07 6.62555e-07 0)
(6.87414e-07 6.96917e-07 0)
(7.17083e-07 7.30782e-07 0)
(7.46839e-07 7.6409e-07 0)
(7.76663e-07 7.96745e-07 0)
(8.06518e-07 8.28698e-07 0)
(2.42601e-07 1.62227e-07 0)
(2.67666e-07 1.93462e-07 0)
(2.93388e-07 2.26008e-07 0)
(3.19481e-07 2.59632e-07 0)
(3.46042e-07 2.94073e-07 0)
(3.72966e-07 3.2914e-07 0)
(4.00255e-07 3.64641e-07 0)
(4.27856e-07 4.00421e-07 0)
(4.55748e-07 4.3634e-07 0)
(4.83899e-07 4.72281e-07 0)
(5.12288e-07 5.08138e-07 0)
(5.4089e-07 5.43824e-07 0)
(5.69689e-07 5.79261e-07 0)
(5.9867e-07 6.14378e-07 0)
(6.27819e-07 6.49117e-07 0)
(6.57125e-07 6.8342e-07 0)
(6.86575e-07 7.17235e-07 0)
(7.16148e-07 7.50511e-07 0)
(7.45819e-07 7.83179e-07 0)
(7.75526e-07 8.15207e-07 0)
(2.245e-07 1.51915e-07 0)
(2.48043e-07 1.82738e-07 0)
(2.72309e-07 2.14924e-07 0)
(2.9706e-07 2.48229e-07 0)
(3.2238e-07 2.82392e-07 0)
(3.48177e-07 3.17218e-07 0)
(3.74449e-07 3.52511e-07 0)
(4.01145e-07 3.88112e-07 0)
(4.28241e-07 4.23876e-07 0)
(4.55698e-07 4.59682e-07 0)
(4.83489e-07 4.9542e-07 0)
(5.11583e-07 5.30998e-07 0)
(5.39955e-07 5.66334e-07 0)
(5.68579e-07 6.01358e-07 0)
(5.97435e-07 6.36007e-07 0)
(6.26499e-07 6.7023e-07 0)
(6.55751e-07 7.0398e-07 0)
(6.85161e-07 7.3722e-07 0)
(7.14695e-07 7.69908e-07 0)
(7.44276e-07 8.02041e-07 0)
(2.05331e-07 1.42216e-07 0)
(2.27326e-07 1.72654e-07 0)
(2.50126e-07 2.04484e-07 0)
(2.73547e-07 2.37465e-07 0)
(2.97651e-07 2.71333e-07 0)
(3.2236e-07 3.05892e-07 0)
(3.47663e-07 3.40945e-07 0)
(3.7351e-07 3.76331e-07 0)
(3.99869e-07 4.11903e-07 0)
(4.26696e-07 4.47535e-07 0)
(4.53954e-07 4.83117e-07 0)
(4.81604e-07 5.18552e-07 0)
(5.0961e-07 5.53757e-07 0)
(5.37938e-07 5.88659e-07 0)
(5.66553e-07 6.23197e-07 0)
(5.95424e-07 6.5732e-07 0)
(6.24518e-07 6.9099e-07 0)
(6.53796e-07 7.24184e-07 0)
(6.83217e-07 7.56892e-07 0)
(7.12701e-07 7.8914e-07 0)
(1.84739e-07 1.33286e-07 0)
(2.05156e-07 1.63328e-07 0)
(2.26489e-07 1.94779e-07 0)
(2.48601e-07 2.274e-07 0)
(2.71529e-07 2.60932e-07 0)
(2.95205e-07 2.95178e-07 0)
(3.19607e-07 3.29942e-07 0)
(3.44681e-07 3.65063e-07 0)
(3.70385e-07 4.00393e-07 0)
(3.96667e-07 4.35804e-07 0)
(4.2348e-07 4.71185e-07 0)
(4.50774e-07 5.06438e-07 0)
(4.78502e-07 5.41478e-07 0)
(5.06615e-07 5.76231e-07 0)
(5.35068e-07 6.10636e-07 0)
(5.63814e-07 6.44643e-07 0)
(5.9281e-07 6.78221e-07 0)
(6.22005e-07 7.11358e-07 0)
(6.51351e-07 7.44071e-07 0)
(6.80769e-07 7.76421e-07 0)
(1.62204e-07 1.24908e-07 0)
(1.81023e-07 1.54549e-07 0)
(2.00903e-07 1.85601e-07 0)
(2.21749e-07 2.17839e-07 0)
(2.4357e-07 2.51005e-07 0)
(2.66299e-07 2.84904e-07 0)
(2.89898e-07 3.19345e-07 0)
(3.14307e-07 3.54164e-07 0)
(3.39471e-07 3.89216e-07 0)
(3.65327e-07 4.24373e-07 0)
(3.91816e-07 4.59523e-07 0)
(4.18876e-07 4.94566e-07 0)
(4.46446e-07 5.29418e-07 0)
(4.74464e-07 5.64003e-07 0)
(5.02869e-07 5.98261e-07 0)
(5.31599e-07 6.32144e-07 0)
(5.60592e-07 6.65621e-07 0)
(5.89784e-07 6.9869e-07 0)
(6.19114e-07 7.31389e-07 0)
(6.48505e-07 7.63809e-07 0)
(1.37431e-07 1.17576e-07 0)
(1.5464e-07 1.46719e-07 0)
(1.73103e-07 1.77275e-07 0)
(1.92745e-07 2.0903e-07 0)
(2.13546e-07 2.41736e-07 0)
(2.3543e-07 2.75199e-07 0)
(2.58346e-07 3.09231e-07 0)
(2.82216e-07 3.4367e-07 0)
(3.06973e-07 3.78372e-07 0)
(3.3254e-07 4.13209e-07 0)
(3.58844e-07 4.48069e-07 0)
(3.8581e-07 4.82854e-07 0)
(4.13362e-07 5.17478e-07 0)
(4.41425e-07 5.51867e-07 0)
(4.69921e-07 5.8596e-07 0)
(4.98768e-07 6.1971e-07 0)
(5.27887e-07 6.53089e-07 0)
(5.57187e-07 6.86094e-07 0)
(5.86592e-07 7.18765e-07 0)
(6.16003e-07 7.51204e-07 0)
(1.97587e-08 2.11577e-09 0)
(5.96902e-08 1.31059e-08 0)
(1.02147e-07 3.36204e-08 0)
(1.47663e-07 6.22877e-08 0)
(1.97111e-07 9.83301e-08 0)
(2.50762e-07 1.40465e-07 0)
(3.0883e-07 1.8732e-07 0)
(3.71213e-07 2.3746e-07 0)
(4.37726e-07 2.89432e-07 0)
(5.08019e-07 3.42045e-07 0)
(1.86105e-08 1.88536e-09 0)
(5.62626e-08 1.17523e-08 0)
(9.61939e-08 3.03741e-08 0)
(1.38817e-07 5.66391e-08 0)
(1.84929e-07 8.99611e-08 0)
(2.34781e-07 1.29261e-07 0)
(2.88591e-07 1.73347e-07 0)
(3.46265e-07 2.20952e-07 0)
(4.07591e-07 2.7068e-07 0)
(4.722e-07 3.21588e-07 0)
(1.75783e-08 1.61466e-09 0)
(5.3187e-08 1.03837e-08 0)
(9.08828e-08 2.72354e-08 0)
(1.30941e-07 5.12572e-08 0)
(1.74072e-07 8.20088e-08 0)
(2.20488e-07 1.18575e-07 0)
(2.70422e-07 1.59919e-07 0)
(3.23837e-07 2.04947e-07 0)
(3.80653e-07 2.52393e-07 0)
(4.4047e-07 3.01585e-07 0)
(1.66338e-08 1.30161e-09 0)
(5.03852e-08 9.01082e-09 0)
(8.61026e-08 2.4264e-08 0)
(1.23935e-07 4.62907e-08 0)
(1.64517e-07 7.47582e-08 0)
(2.08004e-07 1.08878e-07 0)
(2.54615e-07 1.47722e-07 0)
(3.04282e-07 1.90315e-07 0)
(3.57018e-07 2.35456e-07 0)
(4.12338e-07 2.82562e-07 0)
(1.57507e-08 9.4292e-10 0)
(4.777e-08 7.58571e-09 0)
(8.16713e-08 2.1323e-08 0)
(1.17487e-07 4.14903e-08 0)
(1.55786e-07 6.78345e-08 0)
(1.96671e-07 9.9668e-08 0)
(2.40358e-07 1.36162e-07 0)
(2.86754e-07 1.76449e-07 0)
(3.35965e-07 2.19433e-07 0)
(3.87354e-07 2.64519e-07 0)
(1.49218e-08 5.44513e-10 0)
(4.53192e-08 6.11768e-09 0)
(7.75487e-08 1.84281e-08 0)
(1.11537e-07 3.68886e-08 0)
(1.47796e-07 6.13035e-08 0)
(1.86369e-07 9.10582e-08 0)
(2.27466e-07 1.25396e-07 0)
(2.70952e-07 1.63519e-07 0)
(3.17018e-07 2.04429e-07 0)
(3.64927e-07 2.47491e-07 0)
(1.41305e-08 1.04355e-10 0)
(4.29812e-08 4.58525e-09 0)
(7.36355e-08 1.55175e-08 0)
(1.05926e-07 3.23717e-08 0)
(1.40317e-07 5.49941e-08 0)
(1.76802e-07 8.28271e-08 0)
(2.15584e-07 1.15177e-07 0)
(2.56491e-07 1.513e-07 0)
(2.99771e-07 1.90291e-07 0)
(3.44617e-07 2.3145e-07 0)
(1.33705e-08 -3.7189e-10 0)
(4.07364e-08 2.99487e-09 0)
(6.98941e-08 1.25933e-08 0)
(1.00591e-07 2.79364e-08 0)
(1.33251e-07 4.88996e-08 0)
(1.67821e-07 7.49647e-08 0)
(2.04498e-07 1.05488e-07 0)
(2.43079e-07 1.39757e-07 0)
(2.83852e-07 1.76959e-07 0)
(3.25987e-07 2.16336e-07 0)
(1.2632e-08 -8.84564e-10 0)
(3.85555e-08 1.3378e-09 0)
(6.62704e-08 9.62792e-09 0)
(9.5447e-08 2.35302e-08 0)
(1.26476e-07 4.29408e-08 0)
(1.59262e-07 6.73693e-08 0)
(1.93999e-07 9.62121e-08 0)
(2.30463e-07 1.28781e-07 0)
(2.68958e-07 1.64336e-07 0)
(3.08667e-07 2.02076e-07 0)
(1.19096e-08 -1.43015e-09 0)
(3.64221e-08 -3.82976e-10 0)
(6.27332e-08 6.61843e-09 0)
(9.04416e-08 1.91426e-08 0)
(1.19907e-07 3.70971e-08 0)
(1.51005e-07 6.0009e-08 0)
(1.83919e-07 8.73045e-08 0)
(2.18421e-07 1.18311e-07 0)
(2.54815e-07 1.52351e-07 0)
(2.92323e-07 1.88598e-07 0)
(1.11975e-08 -2.00843e-09 0)
(3.43191e-08 -2.17149e-09 0)
(5.92507e-08 3.55134e-09 0)
(8.55227e-08 1.47484e-08 0)
(1.13468e-07 3.13303e-08 0)
(1.42938e-07 5.28335e-08 0)
(1.74109e-07 7.8705e-08 0)
(2.06759e-07 1.08282e-07 0)
(2.41181e-07 1.40936e-07 0)
(2.76657e-07 1.7583e-07 0)
(1.04919e-08 -2.61837e-09 0)
(3.22361e-08 -4.02811e-09 0)
(5.58015e-08 4.22805e-10 0)
(8.06519e-08 1.034e-08 0)
(1.07095e-07 2.56276e-08 0)
(1.34965e-07 4.58227e-08 0)
(1.64435e-07 7.03837e-08 0)
(1.95299e-07 9.86558e-08 0)
(2.27835e-07 1.30045e-07 0)
(2.61393e-07 1.6372e-07 0)
(9.79043e-09 -3.26157e-09 0)
(3.01684e-08 -5.95868e-09 0)
(5.23717e-08 -2.77758e-09 0)
(7.5798e-08 5.90408e-09 0)
(1.0073e-07 1.99714e-08 0)
(1.26998e-07 3.8954e-08 0)
(1.54773e-07 6.23122e-08 0)
(1.83874e-07 8.93958e-08 0)
(2.14564e-07 1.19637e-07 0)
(2.4627e-07 1.52217e-07 0)
(9.09305e-09 -3.94348e-09 0)
(2.81192e-08 -7.97001e-09 0)
(4.8957e-08 -6.0532e-09 0)
(7.09393e-08 1.44442e-09 0)
(9.43258e-08 1.437e-08 0)
(1.18955e-07 3.22362e-08 0)
(1.45002e-07 5.44959e-08 0)
(1.72323e-07 8.05016e-08 0)
(2.01162e-07 1.09704e-07 0)
(2.31031e-07 1.41306e-07 0)
(8.406e-09 -4.67414e-09 0)
(2.61137e-08 -1.00796e-08 0)
(4.55758e-08 -9.4201e-09 0)
(6.60714e-08 -3.04997e-09 0)
(8.78423e-08 8.81712e-09 0)
(1.10755e-07 2.56636e-08 0)
(1.34999e-07 4.69266e-08 0)
(1.60472e-07 7.19595e-08 0)
(1.87411e-07 1.00227e-07 0)
(2.15411e-07 1.30956e-07 0)
(7.74276e-09 -5.48771e-09 0)
(2.41933e-08 -1.23131e-08 0)
(4.22593e-08 -1.28727e-08 0)
(6.11957e-08 -7.53912e-09 0)
(8.1241e-08 3.3751e-09 0)
(1.02315e-07 1.93092e-08 0)
(1.24632e-07 3.96789e-08 0)
(1.48147e-07 6.38389e-08 0)
(1.73086e-07 9.12667e-08 0)
(1.99134e-07 1.21218e-07 0)
(7.15277e-09 -6.42446e-09 0)
(2.24864e-08 -1.4721e-08 0)
(3.91137e-08 -1.64445e-08 0)
(5.6358e-08 -1.20463e-08 0)
(7.44962e-08 -1.97054e-09 0)
(9.3539e-08 1.31589e-08 0)
(1.13745e-07 3.27347e-08 0)
(1.35129e-07 5.61141e-08 0)
(1.57915e-07 8.27876e-08 0)
(1.81874e-07 1.12044e-07 0)
(6.74145e-09 -7.65895e-09 0)
(2.11415e-08 -1.73822e-08 0)
(3.6242e-08 -2.00645e-08 0)
(5.15811e-08 -1.63926e-08 0)
(6.7561e-08 -6.99081e-09 0)
(8.43152e-08 7.46026e-09 0)
(1.02167e-07 2.63389e-08 0)
(1.21194e-07 4.90166e-08 0)
(1.41623e-07 7.50012e-08 0)
(1.63306e-07 1.03621e-07 0)
(7.02188e-09 -9.31836e-09 0)
(2.07119e-08 -2.03921e-08 0)
(3.39962e-08 -2.38011e-08 0)
(4.69883e-08 -2.06802e-08 0)
(6.03804e-08 -1.18093e-08 0)
(7.44599e-08 2.06467e-09 0)
(8.96168e-08 2.03232e-08 0)
(1.05983e-07 4.23604e-08 0)
(1.23782e-07 6.77083e-08 0)
(1.42938e-07 9.57359e-08 0)
(9.08107e-09 -1.23253e-08 0)
(2.15451e-08 -2.38237e-08 0)
(3.25424e-08 -2.71824e-08 0)
(4.25617e-08 -2.41753e-08 0)
(5.28702e-08 -1.56453e-08 0)
(6.38323e-08 -2.25391e-09 0)
(7.59173e-08 1.54238e-08 0)
(8.92791e-08 3.68349e-08 0)
(1.04148e-07 6.15424e-08 0)
(1.20486e-07 8.89636e-08 0)
)
;

boundaryField
{
    left
    {
        type            fixedDisplacement;
        value           uniform (0 0 0);
    }
    right
    {
        type            solidTraction;
        tractionSeries  
{
        file            "$FOAM_CASE/constant/timeVsTraction";
        outOfBounds     clamp;
}
        pressure        uniform 0;
        secondOrder     false;
        setEffectiveTraction false;
        relaxationFactor 1;
        value           nonuniform List<vector> 
30
(
(1.63587e-06 1.20018e-06 3.47933e-21)
(1.59773e-06 1.18641e-06 3.49648e-21)
(1.55926e-06 1.17274e-06 3.5416e-21)
(1.52034e-06 1.15892e-06 3.61466e-21)
(1.48098e-06 1.14478e-06 3.71429e-21)
(1.44128e-06 1.13018e-06 3.8393e-21)
(1.40136e-06 1.11504e-06 3.9877e-21)
(1.36141e-06 1.09932e-06 4.15749e-21)
(1.32158e-06 1.08301e-06 4.34635e-21)
(1.28206e-06 1.06615e-06 4.55165e-21)
(1.24469e-06 1.04957e-06 4.67534e-21)
(1.20925e-06 1.03328e-06 4.6916e-21)
(1.17431e-06 1.01674e-06 4.70314e-21)
(1.13995e-06 1.00004e-06 4.71012e-21)
(1.10619e-06 9.83294e-07 4.71165e-21)
(1.07296e-06 9.66614e-07 4.70799e-21)
(1.04031e-06 9.50061e-07 4.69984e-21)
(1.00818e-06 9.33753e-07 4.68733e-21)
(9.76492e-07 9.17759e-07 4.67121e-21)
(9.45166e-07 9.02145e-07 4.65217e-21)
(9.14105e-07 8.86957e-07 4.63098e-21)
(8.83204e-07 8.72227e-07 4.60861e-21)
(8.52353e-07 8.57964e-07 4.58615e-21)
(8.21445e-07 8.44156e-07 4.56466e-21)
(7.90377e-07 8.30771e-07 4.54498e-21)
(7.59064e-07 8.17751e-07 4.52821e-21)
(7.27441e-07 8.05019e-07 4.51509e-21)