/*--------------------------------*- C++ -*----------------------------------*\
  =========                 |
  \\      /  F ield         | OpenFOAM: The Open Source CFD Toolbox
   \\    /   O peration     | Website:  https://openfoam.org
    \\  /    A nd           | Version:  9
     \\/     M anipulation  |
\*---------------------------------------------------------------------------*/
FoamFile
{
    format      ascii;
    class       volSymmTensorField;
    location    "1";
    object      epsilon;
}
// * * * * * * * * * * * * * * * * * * * * * * * * * * * * * * * * * * * * * //

dimensions      [0 0 0 0 0 0 0];

internalField   nonuniform List<symmTensor> 
1000
(
(4.20993e-07 -5.46887e-07 7.20384e-20 8.40373e-08 7.88427e-20 2.15206e-34)
(5.80794e-07 -4.21673e-07 -8.68208e-22 -1.04455e-07 4.86002e-22 0)
(6.59084e-07 -3.22915e-07 1.01278e-21 -1.94575e-07 -1.941e-22 0)
(7.02962e-07 -2.4845e-07 2.60101e-22 -2.57851e-07 -1.85841e-22 0)
(7.24088e-07 -1.88568e-07 -1.0997e-21 -2.92907e-07 8.07408e-23 0)
(7.31161e-07 -1.41769e-07 -1.19047e-22 -3.15353e-07 1.30603e-22 0)
(7.30313e-07 -1.03742e-07 -9.98855e-22 -3.27498e-07 -5.36336e-22 0)
(7.23658e-07 -7.35122e-08 6.85594e-22 -3.33698e-07 3.20567e-22 0)
(7.15034e-07 -4.8387e-08 -3.53423e-22 -3.35957e-07 -4.02458e-22 0)
(7.02494e-07 -2.74887e-08 0 -3.36294e-07 0 0)
(5.69829e-07 -6.07934e-07 7.09137e-20 2.26987e-08 9.10381e-20 1.23051e-35)
(6.9372e-07 -4.35182e-07 0 -1.44952e-07 0 0)
(7.46738e-07 -3.10484e-07 8.1054e-22 -2.19201e-07 3.86326e-22 0)
(7.71272e-07 -2.2089e-07 -1.39078e-21 -2.71916e-07 -7.42026e-22 0)
(7.77351e-07 -1.52591e-07 -5.91129e-22 -2.98524e-07 -3.56588e-22 0)
(7.72534e-07 -1.01515e-07 4.11373e-22 -3.15078e-07 4.19725e-22 0)
(7.62043e-07 -6.16386e-08 4.60714e-22 -3.22534e-07 3.08896e-22 0)
(7.47869e-07 -3.13322e-08 1.08332e-21 -3.2591e-07 6.32557e-22 0)
(7.31938e-07 -6.76999e-09 0 -3.24837e-07 0 0)
(7.15106e-07 1.28828e-08 0 -3.25409e-07 0 0)
(7.3659e-07 -6.46446e-07 6.77164e-20 -5.85174e-08 1.01345e-19 0)
(8.10669e-07 -4.34573e-07 0 -1.9071e-07 0 0)
(8.30854e-07 -2.8896e-07 7.72573e-22 -2.41148e-07 3.9926e-22 0)
(8.31468e-07 -1.87524e-07 -2.31877e-22 -2.78555e-07 8.19521e-23 0)
(8.19778e-07 -1.13275e-07 -1.13581e-23 -2.93886e-07 5.06325e-24 0)
(8.01449e-07 -5.97776e-08 -3.83544e-22 -3.02853e-07 -3.97071e-22 0)
(7.8046e-07 -1.95925e-08 5.23903e-22 -3.04607e-07 2.4235e-22 0)
(7.58146e-07 9.75159e-09 -3.88921e-22 -3.04402e-07 -2.87339e-22 0)
(7.35518e-07 3.25637e-08 -3.1469e-23 -3.00222e-07 5.41434e-23 0)
(7.13702e-07 5.11037e-08 -8.22004e-23 -2.99904e-07 -3.5408e-23 0)
(9.15047e-07 -6.56912e-07 5.92511e-20 -1.55026e-07 1.06609e-19 -6.80892e-36)
(9.2872e-07 -4.18138e-07 4.42503e-22 -2.40008e-07 -4.554e-23 0)
(9.10115e-07 -2.58689e-07 -3.53121e-22 -2.60014e-07 -1.99276e-22 0)
(8.83023e-07 -1.49976e-07 -2.23807e-22 -2.78092e-07 4.33186e-23 0)
(8.5135e-07 -7.30342e-08 4.00508e-22 -2.79862e-07 3.87245e-22 0)
(8.18392e-07 -1.93952e-08 -4.82198e-22 -2.80094e-07 -3.18962e-22 0)
(7.86456e-07 1.93902e-08 -4.16595e-22 -2.75771e-07 -2.96566e-22 0)
(7.56124e-07 4.66949e-08 -9.28524e-22 -2.71923e-07 -6.79572e-22 0)
(7.27234e-07 6.6831e-08 -1.33002e-22 -2.65208e-07 -1.62558e-22 0)
(7.01118e-07 8.32217e-08 2.27365e-22 -2.63713e-07 2.01213e-22 0)
(1.09635e-06 -6.34403e-07 4.88344e-20 -2.60581e-07 1.06392e-19 -1.24247e-34)
(1.04405e-06 -3.83641e-07 2.31408e-26 -2.9058e-07 1.11287e-27 0)
(9.82534e-07 -2.19202e-07 -1.14325e-21 -2.75012e-07 -5.60229e-22 0)
(9.25029e-07 -1.09053e-07 1.03928e-22 -2.70583e-07 -3.86184e-24 0)
(8.71859e-07 -3.36504e-08 -1.45704e-22 -2.57035e-07 1.5304e-23 0)
(8.23685e-07 1.71465e-08 3.47146e-22 -2.47776e-07 3.20696e-22 0)
(7.80887e-07 5.23722e-08 -3.89863e-23 -2.37317e-07 1.14465e-23 0)
(7.42923e-07 7.61574e-08 3.66527e-22 -2.30018e-07 2.45077e-22 0)
(7.08627e-07 9.25443e-08 -7.89642e-23 -2.21501e-07 -1.69465e-22 0)
(6.78802e-07 1.05898e-07 -1.44937e-22 -2.19078e-07 -1.17123e-22 0)
(1.27446e-06 -5.77696e-07 3.60912e-20 -3.68213e-07 9.98846e-20 -1.30271e-34)
(1.1539e-06 -3.29624e-07 2.11042e-26 -3.39087e-07 4.46665e-27 0)
(1.04692e-06 -1.69928e-07 -1.14203e-26 -2.8433e-07 -1.77418e-27 0)
(9.57193e-07 -6.55279e-08 9.18553e-23 -2.55525e-07 1.13749e-23 0)
(8.81784e-07 3.17664e-09 -4.94798e-22 -2.25951e-07 -3.0094e-22 0)
(8.18536e-07 4.75743e-08 5.64886e-24 -2.07365e-07 -3.82473e-26 0)
(7.65504e-07 7.68831e-08 3.68282e-22 -1.91392e-07 2.49494e-22 0)
(7.20745e-07 9.56432e-08 7.83033e-22 -1.81316e-07 5.72875e-22 0)
(6.82031e-07 1.07403e-07 1.41851e-22 -1.71886e-07 1.04133e-22 0)
(6.49269e-07 1.17004e-07 -2.47614e-22 -1.68943e-07 -1.9509e-22 0)
(1.43743e-06 -4.83187e-07 2.60272e-20 -4.69364e-07 8.82057e-20 -2.80086e-34)
(1.25186e-06 -2.52067e-07 3.31072e-22 -3.80411e-07 1.32977e-22 0)
(1.09765e-06 -1.09403e-07 3.50028e-22 -2.83847e-07 1.59073e-22 0)
(9.75717e-07 -1.98634e-08 -7.55167e-23 -2.30722e-07 -2.26464e-23 0)
(8.79302e-07 3.57457e-08 3.57664e-22 -1.86437e-07 2.39251e-22 0)
(8.02802e-07 6.95837e-08 -3.2914e-22 -1.60273e-07 -2.26667e-22 0)
(7.41461e-07 9.05117e-08 9.39171e-23 -1.40547e-07 6.15663e-24 0)
(6.91576e-07 1.02862e-07 -2.93944e-22 -1.29085e-07 -1.92738e-22 0)
(6.49932e-07 1.0945e-07 -2.04648e-23 -1.19961e-07 2.37391e-24 0)
(6.15221e-07 1.14928e-07 -1.49006e-22 -1.17141e-07 -9.73645e-23 0)
(1.59012e-06 -3.50581e-07 1.58966e-20 -5.56632e-07 7.12853e-20 -1.14432e-35)
(1.3344e-06 -1.46991e-07 -8.82888e-22 -4.04378e-07 -3.1835e-22 0)
(1.13118e-06 -3.67016e-08 6.84021e-24 -2.65324e-07 3.76205e-24 0)
(9.7964e-07 2.53641e-08 1.10451e-22 -1.92325e-07 5.62371e-23 0)
(8.65655e-07 6.0581e-08 8.1801e-22 -1.38155e-07 4.07175e-22 0)
(7.79516e-07 7.99709e-08 -4.84627e-23 -1.08602e-07 -1.54047e-23 0)
(7.12873e-07 9.09101e-08 1.20783e-27 -8.83986e-08 2.47422e-28 0)
(6.6019e-07 9.6419e-08 -2.8768e-22 -7.7744e-08 -1.51987e-22 0)
(6.17345e-07 9.82064e-08 7.02992e-24 -7.04092e-08 3.84005e-25 0)
(5.81805e-07 9.99382e-08 2.15723e-23 -6.8459e-08 1.06866e-23 0)
(1.70808e-06 -1.63417e-07 6.76643e-21 -6.07872e-07 5.02129e-20 1.17589e-34)
(1.37471e-06 -1.40858e-08 -9.72649e-22 -3.84296e-07 -4.08938e-22 0)
(1.1249e-06 3.83717e-08 1.01697e-22 -2.1122e-07 8.67309e-23 0)
(9.54562e-07 5.79779e-08 9.55968e-23 -1.32362e-07 7.58351e-23 0)
(8.34642e-07 6.7794e-08 -4.0021e-23 -8.08641e-08 -2.45804e-23 0)
(7.4722e-07 7.11281e-08 3.18554e-22 -5.60111e-08 1.15821e-22 0)
(6.8109e-07 7.2759e-08 1.74685e-23 -4.05081e-08 5.5172e-24 0)
(6.29184e-07 7.272e-08 5.13816e-22 -3.3451e-08 1.96872e-22 0)
(5.87276e-07 7.14309e-08 1.13432e-22 -2.92769e-08 4.39027e-23 0)
(5.52051e-07 7.07711e-08 6.34745e-23 -2.87294e-08 2.53141e-23 0)
(1.81328e-06 1.48129e-07 1.61698e-21 -5.60843e-07 2.84085e-20 1.22775e-34)
(1.34034e-06 1.65295e-07 -7.45222e-23 -2.52945e-07 -1.29231e-22 0)
(1.07775e-06 1.09224e-07 3.37887e-22 -1.05966e-07 1.43938e-22 0)
(9.14146e-07 7.09061e-08 1.73992e-23 -5.23409e-08 2.45058e-23 0)
(8.04114e-07 5.59386e-08 5.94857e-28 -2.4662e-08 5.57253e-28 0)
(7.22999e-07 4.75636e-08 3.23035e-22 -1.35593e-08 5.81524e-23 0)
(6.61392e-07 4.45385e-08 5.02918e-24 -7.63916e-09 1.53391e-24 0)
(6.11913e-07 4.27609e-08 2.47531e-22 -5.65308e-09 4.69334e-23 0)
(5.71472e-07 4.13625e-08 -2.75754e-24 -4.76978e-09 -2.45524e-25 0)
(5.36488e-07 4.04068e-08 -4.16821e-24 -5.10209e-09 -8.94655e-25 0)
(-2.33812e-09 1.09732e-09 3.95732e-20 -7.19793e-10 2.01254e-20 1.80208e-34)
(1.53929e-09 -4.76077e-09 -2.08491e-23 -9.69916e-10 1.83273e-20 1.55233e-36)
(2.06664e-08 -1.45634e-08 -2.38386e-22 -1.02198e-08 1.75932e-20 1.93482e-35)
(5.0835e-08 -2.23994e-08 -2.15243e-24 -2.40112e-08 1.78462e-20 0)
(8.55888e-08 -2.7224e-08 -3.3384e-23 -3.9343e-08 1.74644e-20 -1.5529e-36)
(1.21925e-07 -2.99618e-08 -3.2634e-22 -5.51178e-08 1.78001e-20 3.24766e-35)
(1.57427e-07 -3.10248e-08 7.0743e-23 -7.03511e-08 1.81803e-20 1.5527e-36)
(1.91276e-07 -3.10925e-08 -2.17314e-22 -8.47387e-08 1.79499e-20 2.95374e-35)
(2.22329e-07 -3.02544e-08 1.72036e-22 -9.79806e-08 1.8019e-20 -1.28253e-35)
(2.51099e-07 -2.96046e-08 5.15662e-22 -1.09903e-07 1.79332e-20 -3.87011e-35)
(3.09289e-09 -5.11055e-09 4.0463e-20 -2.03839e-09 5.07418e-21 5.04233e-35)
(2.20408e-08 -2.68178e-08 2.6163e-22 -6.02041e-10 2.87191e-22 0)
(5.6612e-08 -5.07839e-08 -2.44859e-22 -1.49788e-08 -2.46101e-22 0)
(9.50694e-08 -6.90907e-08 2.51849e-24 -3.43825e-08 -2.03698e-22 0)
(1.33658e-07 -8.03425e-08 0 -5.37288e-08 0 0)
(1.70261e-07 -8.6643e-08 -3.71758e-22 -7.19593e-08 -5.53085e-23 0)
(2.03987e-07 -8.89048e-08 6.24119e-23 -8.83654e-08 3.19886e-22 0)
(2.34978e-07 -8.87373e-08 4.66493e-24 -1.03041e-07 1.72098e-23 0)
(2.62282e-07 -8.62732e-08 -1.99867e-22 -1.15941e-07 -5.81705e-22 0)
(2.87638e-07 -8.43076e-08 1.46839e-22 -1.26908e-07 2.28695e-23 0)
(5.18193e-09 -2.44112e-08 4.11733e-20 6.62759e-09 8.18231e-21 -2.23741e-36)
(4.14623e-08 -6.66919e-08 2.67571e-22 1.90981e-09 2.83679e-22 0)
(9.02775e-08 -9.63771e-08 2.80042e-22 -2.04413e-08 5.87148e-23 0)
(1.38208e-07 -1.16255e-07 1.45282e-23 -4.81867e-08 -1.96435e-22 0)
(1.82326e-07 -1.27199e-07 0 -7.37673e-08 0 0)
(2.21142e-07 -1.32338e-07 -4.15982e-22 -9.62132e-08 -1.08709e-22 0)
(2.54854e-07 -1.32949e-07 -5.67394e-22 -1.15071e-07 -1.59069e-22 0)
(2.84498e-07 -1.30814e-07 3.75269e-22 -1.30956e-07 2.29578e-22 0)
(3.09143e-07 -1.26175e-07 2.27289e-24 -1.43918e-07 7.32718e-24 0)
(3.32141e-07 -1.22273e-07 -3.37517e-22 -1.54463e-07 -2.13496e-22 0)
(8.33165e-09 -5.46658e-08 4.29437e-20 2.72322e-08 1.18327e-20 -3.94277e-35)
(6.8057e-08 -1.1449e-07 6.6138e-23 4.53313e-09 -2.38149e-22 0)
(1.30085e-07 -1.45694e-07 3.07732e-22 -2.77873e-08 6.02198e-23 0)
(1.86624e-07 -1.63177e-07 0 -6.37412e-08 0 0)
(2.356e-07 -1.70403e-07 -5.24651e-22 -9.50396e-08 1.95079e-22 0)
(2.76554e-07 -1.71728e-07 5.9565e-24 -1.21529e-07 4.83343e-22 0)
(3.10432e-07 -1.68787e-07 -2.58893e-23 -1.42918e-07 -2.59666e-22 0)
(3.39055e-07 -1.63357e-07 -7.4817e-23 -1.60267e-07 -4.00816e-22 0)
(3.61377e-07 -1.55816e-07 1.71283e-22 -1.73673e-07 5.56262e-23 0)
(3.82408e-07 -1.4944e-07 3.19709e-22 -1.8422e-07 1.20003e-22 0)
(1.64937e-08 -9.74004e-08 4.28961e-20 5.58711e-08 1.64306e-20 8.43422e-35)
(1.05503e-07 -1.66527e-07 -5.40462e-22 3.91413e-09 3.61664e-22 0)
(1.80778e-07 -1.94556e-07 -3.2762e-22 -4.19298e-08 -9.64377e-23 0)
(2.44642e-07 -2.06191e-07 -8.86194e-23 -8.6787e-08 3.54265e-22 0)
(2.96833e-07 -2.06927e-07 -3.48199e-24 -1.23269e-07 2.18541e-23 0)
(3.38576e-07 -2.02332e-07 5.05323e-22 -1.53006e-07 -1.35359e-22 0)
(3.71611e-07 -1.94316e-07 2.20052e-22 -1.76139e-07 5.78054e-23 0)
(3.98466e-07 -1.84504e-07 0 -1.94272e-07 0 0)
(4.18015e-07 -1.73485e-07 -2.34802e-22 -2.0759e-07 -3.09093e-22 0)
(4.36732e-07 -1.64115e-07 9.37126e-23 -2.17731e-07 2.2767e-23 0)
(3.42744e-08 -1.53548e-07 4.62001e-20 8.80862e-08 2.09314e-20 -9.63901e-35)
(1.55069e-07 -2.19281e-07 2.20646e-22 -6.48534e-11 -4.29252e-22 0)
(2.42856e-07 -2.38501e-07 -2.70467e-22 -6.13112e-08 -2.91797e-22 0)
(3.12199e-07 -2.41296e-07 5.95615e-23 -1.14873e-07 -1.64951e-22 0)
(3.65586e-07 -2.33805e-07 5.72318e-22 -1.5549e-07 1.91583e-22 0)
(4.0635e-07 -2.22238e-07 -5.52246e-22 -1.87315e-07 6.13236e-23 0)
(4.37149e-07 -2.08511e-07 -6.3601e-25 -2.11178e-07 1.46499e-23 0)
(4.61121e-07 -1.93941e-07 -4.29989e-22 -2.29244e-07 -2.96239e-22 0)
(4.77193e-07 -1.79346e-07 9.00983e-25 -2.41933e-07 5.75e-24 0)
(4.92924e-07 -1.66832e-07 -4.69558e-22 -2.5118e-07 -2.14719e-22 0)
(6.68218e-08 -2.2249e-07 5.24687e-20 1.1702e-07 2.89326e-20 -7.90739e-35)
(2.17177e-07 -2.70652e-07 1.22099e-23 -8.7882e-09 -1.84614e-23 0)
(3.15182e-07 -2.74916e-07 -8.94669e-27 -8.54204e-08 1.52479e-26 0)
(3.87528e-07 -2.6589e-07 -5.84578e-22 -1.46893e-07 -4.09696e-22 0)
(4.39859e-07 -2.48798e-07 -9.93758e-23 -1.90433e-07 2.653e-22 0)
(4.77699e-07 -2.29699e-07 -5.35718e-22 -2.23135e-07 -2.1808e-22 0)
(5.04742e-07 -2.10108e-07 9.62992e-22 -2.46628e-07 4.29413e-22 0)
(5.24566e-07 -1.9086e-07 -1.24499e-25 -2.63723e-07 1.15057e-23 0)
(5.364e-07 -1.72935e-07 1.89574e-22 -2.75128e-07 -7.83648e-25 0)
(5.48299e-07 -1.57386e-07 -2.56834e-22 -2.82963e-07 -1.2233e-22 0)
(1.18902e-07 -3.0166e-07 6.02014e-20 1.36235e-07 3.90438e-20 -1.30159e-34)
(2.91613e-07 -3.18627e-07 3.14406e-22 -2.28413e-08 -3.74997e-22 0)
(3.95463e-07 -3.02063e-07 -1.21365e-22 -1.12176e-07 1.6148e-22 0)
(4.67474e-07 -2.78569e-07 7.42018e-23 -1.79579e-07 -1.15479e-22 0)
(5.16256e-07 -2.50945e-07 6.6176e-27 -2.24423e-07 -1.29723e-26 0)
(5.49225e-07 -2.24224e-07 6.21783e-22 -2.56698e-07 5.27035e-23 0)
(5.71104e-07 -1.99076e-07 4.67519e-23 -2.78852e-07 -2.02406e-22 0)
(5.85628e-07 -1.7568e-07 -1.56583e-23 -2.94143e-07 1.66572e-22 0)
(5.92687e-07 -1.55011e-07 2.1299e-24 -3.03965e-07 8.31857e-23 0)
(5.99896e-07 -1.36832e-07 1.96257e-22 -3.0983e-07 1.83438e-22 0)
(1.94284e-07 -3.86412e-07 6.57397e-20 1.39686e-07 5.18719e-20 1.52625e-34)
(3.77845e-07 -3.61219e-07 -1.01456e-22 -4.32236e-08 6.87699e-22 0)
(4.81233e-07 -3.19152e-07 -1.17287e-26 -1.402e-07 1.2282e-26 0)
(5.48757e-07 -2.792e-07 8.04453e-22 -2.10468e-07 1.8899e-22 0)
(5.91255e-07 -2.4055e-07 6.14352e-22 -2.54558e-07 3.0676e-22 0)
(6.17406e-07 -2.06493e-07 5.54254e-22 -2.85041e-07 2.76837e-22 0)
(6.32788e-07 -1.76354e-07 -6.06405e-23 -3.04799e-07 1.73976e-22 0)
(6.40962e-07 -1.49683e-07 -6.67404e-22 -3.17729e-07 -3.73018e-22 0)
(6.42865e-07 -1.26974e-07 4.09875e-22 -3.25482e-07 9.71e-23 0)
(6.4483e-07 -1.06671e-07 1.83797e-22 -3.29904e-07 1.09255e-22 0)
(2.95013e-07 -4.70592e-07 6.97608e-20 1.23075e-07 6.45762e-20 2.01057e-35)
(4.74754e-07 -3.9633e-07 -2.03779e-22 -7.03636e-08 1.50216e-22 0)
(5.69843e-07 -3.26045e-07 -3.95004e-22 -1.67975e-07 -1.84179e-22 0)
(6.28041e-07 -2.68669e-07 1.71115e-21 -2.37044e-07 4.01129e-22 0)
(6.61261e-07 -2.19061e-07 1.04764e-23 -2.77935e-07 -1.19048e-23 0)
(6.78638e-07 -1.78198e-07 -5.45057e-22 -3.05069e-07 -3.09518e-22 0)
(6.86266e-07 -1.43841e-07 -5.84099e-22 -3.21528e-07 -9.20332e-23 0)
(6.87169e-07 -1.14865e-07 -2.20061e-22 -3.31146e-07 -1.31645e-22 0)
(6.84142e-07 -9.13739e-08 2.45313e-23 -3.37367e-07 -1.82214e-22 0)
(6.79159e-07 -7.10038e-08 1.10026e-22 -3.37903e-07 2.30385e-22 0)
(2.77001e-07 -2.74558e-08 8.1467e-22 -1.20991e-07 1.81862e-20 -1.15255e-35)
(2.99571e-07 -2.44908e-08 9.23095e-22 -1.30231e-07 1.79396e-20 -2.53398e-35)
(3.20304e-07 -2.19142e-08 5.19588e-22 -1.38806e-07 1.74883e-20 -1.47897e-35)
(3.38947e-07 -1.95751e-08 5.60416e-22 -1.46565e-07 1.7723e-20 -6.49393e-37)
(3.55765e-07 -1.74065e-08 3.26915e-22 -1.53544e-07 1.77494e-20 3.85886e-35)
(3.70836e-07 -1.54662e-08 5.89044e-22 -1.59836e-07 1.78394e-20 0)
(3.84346e-07 -1.36873e-08 5.556e-22 -1.65466e-07 1.78303e-20 0)
(3.9639e-07 -1.20824e-08 6.32208e-22 -1.70503e-07 1.79573e-20 5.02006e-37)
(4.07108e-07 -1.06113e-08 5.85758e-22 -1.74987e-07 1.78499e-20 -1.31273e-35)
(4.16582e-07 -9.26474e-09 6.85161e-22 -1.78961e-07 1.80801e-20 8.5198e-37)
(4.24908e-07 -8.01147e-09 7.15478e-22 -1.82459e-07 1.79115e-20 -3.97876e-35)
(4.32141e-07 -6.83562e-09 2.83379e-22 -1.85507e-07 1.77537e-20 1.3331e-35)
(4.38335e-07 -5.71172e-09 6.4896e-22 -1.88125e-07 1.7901e-20 -4.01998e-35)
(4.43521e-07 -4.62461e-09 -5.8851e-23 -1.90329e-07 1.73527e-20 -8.07378e-37)
(4.47713e-07 -3.56037e-09 2.97692e-22 -1.92123e-07 1.78801e-20 1.37684e-35)
(4.50933e-07 -2.51664e-09 2.3852e-22 -1.93516e-07 1.77707e-20 -3.25985e-45)
(4.5317e-07 -1.50966e-09 7.52704e-23 -1.94502e-07 1.762e-20 -1.47097e-37)
(4.54507e-07 -5.95373e-10 2.90473e-22 -1.95097e-07 1.79124e-20 1.0556e-37)
(4.54939e-07 1.06626e-10 1.88329e-22 -1.9528e-07 1.75795e-20 -4.16041e-35)
(4.54793e-07 2.72877e-10 3.41714e-20 -1.95017e-07 1.734e-20 -8.75272e-35)
(3.08493e-07 -7.84944e-08 3.58911e-22 -1.36793e-07 4.4152e-22 0)
(3.25221e-07 -7.06431e-08 2.3287e-22 -1.4385e-07 6.38924e-23 0)
(3.4122e-07 -6.37288e-08 1.7572e-23 -1.50351e-07 -1.00836e-22 0)
(3.55569e-07 -5.72793e-08 5.28681e-22 -1.56317e-07 4.7683e-22 0)
(3.68783e-07 -5.12367e-08 -1.01655e-22 -1.61641e-07 -2.40495e-23 0)
(3.8071e-07 -4.57778e-08 -4.3107e-22 -1.66529e-07 -4.37089e-22 0)
(3.91572e-07 -4.07251e-08 2.1994e-22 -1.70915e-07 8.14409e-23 0)
(4.01352e-07 -3.61372e-08 0 -1.74903e-07 0 0)
(4.1018e-07 -3.19044e-08 1.04806e-22 -1.78489e-07 3.71472e-23 0)
(4.18078e-07 -2.80111e-08 2.15477e-22 -1.81722e-07 8.30978e-23 0)
(4.25127e-07 -2.43815e-08 6.46191e-22 -1.84616e-07 3.33984e-22 0)
(4.31359e-07 -2.09739e-08 2.91477e-24 -1.87194e-07 3.33416e-24 0)
(4.36821e-07 -1.7732e-08 8.39577e-23 -1.89468e-07 -6.50921e-23 0)
(4.41542e-07 -1.4617e-08 1.23278e-22 -1.91444e-07 1.41099e-22 0)
(4.4554e-07 -1.15969e-08 1.26473e-22 -1.93118e-07 1.4513e-22 0)
(4.48841e-07 -8.6712e-09 -1.25289e-22 -1.94471e-07 -1.44501e-22 0)
(4.51421e-07 -5.87486e-09 -1.26001e-22 -1.95457e-07 -1.46141e-22 0)
(4.53313e-07 -3.32908e-09 -2.53046e-22 -1.95998e-07 -2.95211e-22 0)
(4.54368e-07 -1.21792e-09 -1.91482e-24 -1.95905e-07 -2.0969e-24 0)
(4.5463e-07 -9.38056e-11 3.46088e-20 -1.94879e-07 4.90698e-22 7.6872e-35)
(3.48199e-07 -1.13567e-07 9.82008e-23 -1.62603e-07 1.34415e-22 0)
(3.58721e-07 -1.02874e-07 1.34046e-22 -1.66798e-07 4.7867e-23 0)
(3.69626e-07 -9.32821e-08 -3.11302e-22 -1.70318e-07 -3.92303e-22 0)
(3.79179e-07 -8.43786e-08 -2.79728e-23 -1.7366e-07 7.15855e-23 0)
(3.88337e-07 -7.58983e-08 5.68063e-22 -1.7651e-07 4.73174e-22 0)
(3.96635e-07 -6.82023e-08 -4.51216e-22 -1.79241e-07 -4.31011e-22 0)
(4.04412e-07 -6.10027e-08 -1.20107e-22 -1.817e-07 -1.39185e-22 0)
(4.11505e-07 -5.44252e-08 2.29559e-22 -1.84022e-07 2.61253e-22 0)
(4.18062e-07 -4.83198e-08 1.13546e-24 -1.86173e-07 -1.69511e-22 0)
(4.24033e-07 -4.26846e-08 -2.42914e-22 -1.88193e-07 -2.73296e-22 0)
(4.29491e-07 -3.74248e-08 2.32771e-22 -1.90083e-07 2.60938e-22 0)
(4.34433e-07 -3.24958e-08 3.59691e-22 -1.91854e-07 4.03435e-22 0)
(4.38894e-07 -2.78303e-08 2.75226e-24 -1.93501e-07 3.0349e-24 0)
(4.42885e-07 -2.33802e-08 -1.23162e-22 -1.95017e-07 -1.38934e-22 0)
(4.4641e-07 -1.91034e-08 1.21924e-22 -1.96373e-07 1.38368e-22 0)
(4.49472e-07 -1.49839e-08 1.79737e-29 -1.97512e-07 2.00263e-29 0)
(4.52007e-07 -1.10323e-08 -1.2562e-22 -1.98327e-07 -1.44359e-22 0)
(4.53982e-07 -7.31048e-09 1.69681e-23 -1.98641e-07 1.04224e-22 0)
(4.55077e-07 -3.9325e-09 -4.133e-22 -1.98081e-07 -5.34151e-23 0)
(4.55265e-07 -1.04991e-09 3.47091e-20 -1.96234e-07 4.94573e-22 5.73018e-38)
(3.93746e-07 -1.38298e-07 0 -1.90777e-07 0 0)
(3.97835e-07 -1.26052e-07 1.43304e-22 -1.92338e-07 5.22395e-23 0)
(4.03573e-07 -1.14759e-07 1.12132e-22 -1.93034e-07 1.28238e-22 0)
(4.08117e-07 -1.04461e-07 1.23064e-22 -1.93919e-07 1.42579e-22 0)
(4.1301e-07 -9.44389e-08 0 -1.94348e-07 0 0)
(4.17398e-07 -8.53439e-08 1.66852e-23 -1.94928e-07 -7.19333e-23 0)
(4.21816e-07 -7.67287e-08 -3.68421e-22 -1.95417e-07 -2.2635e-22 0)
(4.25929e-07 -6.88217e-08 -2.35065e-22 -1.95996e-07 -2.55596e-22 0)
(4.2993e-07 -6.14314e-08 -1.32195e-22 -1.96611e-07 -6.10539e-23 0)
(4.33695e-07 -5.45841e-08 -8.47537e-25 -1.973e-07 1.63368e-22 0)
(4.37286e-07 -4.81783e-08 -1.16333e-22 -1.98052e-07 3.58292e-23 0)
(4.40666e-07 -4.21719e-08 2.43262e-22 -1.98867e-07 1.0441e-22 0)
(4.43852e-07 -3.64935e-08 2.30986e-22 -1.9973e-07 1.15878e-23 0)
(4.46824e-07 -3.10912e-08 5.57426e-24 -2.00613e-07 8.73458e-23 0)
(4.49565e-07 -2.59112e-08 9.91552e-24 -2.01468e-07 9.25999e-23 0)
(4.52051e-07 -2.09127e-08 -1.242e-22 -2.02213e-07 -1.39822e-22 0)
(4.54171e-07 -1.60713e-08 -2.65264e-29 -2.02704e-07 -2.98795e-29 0)
(4.55868e-07 -1.13544e-08 2.64811e-22 -2.02729e-07 3.8868e-22 0)
(4.56735e-07 -6.80322e-09 -1.34184e-23 -2.01875e-07 -1.02187e-22 0)
(4.56783e-07 -2.08597e-09 3.42194e-20 -1.99716e-07 1.32743e-22 -1.11058e-34)
(4.43148e-07 -1.51077e-07 1.08835e-23 -2.22264e-07 1.79027e-22 0)
(4.40562e-07 -1.38784e-07 -1.55702e-22 -2.21127e-07 -6.80707e-23 0)
(4.41106e-07 -1.26795e-07 -3.91498e-22 -2.18764e-07 -3.19197e-22 0)
(4.40506e-07 -1.16241e-07 2.57762e-22 -2.17087e-07 1.75541e-22 0)
(4.41061e-07 -1.05639e-07 6.70795e-22 -2.14944e-07 4.40822e-22 0)
(4.41391e-07 -9.60588e-08 -1.23202e-22 -2.13205e-07 -1.28865e-22 0)
(4.42305e-07 -8.68458e-08 0 -2.11549e-07 0 0)
(4.43257e-07 -7.83443e-08 1.19983e-22 -2.10191e-07 1.24945e-22 0)
(4.44516e-07 -7.03328e-08 -3.86265e-22 -2.09077e-07 -1.65145e-22 0)
(4.4587e-07 -6.2869e-08 -2.5054e-22 -2.08241e-07 -1.84745e-22 0)
(4.47387e-07 -5.58579e-08 1.41035e-23 -2.07669e-07 -1.42506e-22 0)
(4.48987e-07 -4.92675e-08 -1.26196e-22 -2.07352e-07 -2.13544e-22 0)
(4.50669e-07 -4.30295e-08 -1.29711e-23 -2.07265e-07 2.24208e-22 0)
(4.52391e-07 -3.70862e-08 2.46716e-22 -2.0737e-07 3.47997e-22 0)
(4.54111e-07 -3.13732e-08 1.20195e-22 -2.07604e-07 5.12744e-23 0)
(4.55782e-07 -2.58198e-08 -4.48208e-24 -2.07874e-07 -8.67433e-23 0)
(4.57273e-07 -2.03617e-08 2.32996e-22 -2.08023e-07 9.59043e-23 0)
(4.5851e-07 -1.48626e-08 1.14599e-22 -2.07839e-07 4.60326e-23 0)
(4.5908e-07 -9.31782e-09 4.70253e-22 -2.06933e-07 3.71557e-22 0)
(4.59023e-07 -2.99384e-09 3.52332e-20 -2.04916e-07 1.18321e-21 1.09976e-34)
(4.94252e-07 -1.5257e-07 9.17742e-23 -2.53513e-07 1.26153e-22 0)
(4.84933e-07 -1.41818e-07 2.20871e-24 -2.5008e-07 4.84406e-24 0)
(4.80445e-07 -1.30096e-07 -2.83055e-22 -2.44835e-07 -1.96264e-22 0)
(4.74707e-07 -1.20327e-07 -6.79733e-22 -2.40799e-07 -5.08949e-22 0)
(4.71006e-07 -1.10009e-07 2.65557e-22 -2.36278e-07 1.81007e-22 0)
(4.67282e-07 -1.00722e-07 2.49916e-22 -2.32336e-07 2.48265e-22 0)
(4.64682e-07 -9.1625e-08 -1.22446e-22 -2.28642e-07 -1.21822e-22 0)
(4.62433e-07 -8.31608e-08 -1.96928e-23 -2.25397e-07 5.45866e-23 0)
(4.6087e-07 -7.51105e-08 5.37305e-22 -2.22571e-07 3.20201e-22 0)
(4.59712e-07 -6.75511e-08 -3.59072e-22 -2.20185e-07 -3.66572e-22 0)
(4.59024e-07 -6.04081e-08 -1.27724e-22 -2.18236e-07 -1.32022e-22 0)
(4.58696e-07 -5.36571e-08 3.47126e-22 -2.16709e-07 5.14599e-22 0)
(4.58709e-07 -4.72421e-08 -5.07458e-22 -2.15582e-07 -1.51272e-22 0)
(4.59005e-07 -4.11031e-08 -3.61516e-22 -2.14817e-07 -3.86434e-22 0)
(4.59526e-07 -3.51701e-08 9.34517e-25 -2.14353e-07 -7.80117e-23 0)
(4.60211e-07 -2.93452e-08 -4.87231e-22 -2.14103e-07 -3.72948e-22 0)
(4.60931e-07 -2.35336e-08 -3.54649e-24 -2.13925e-07 -3.33563e-24 0)
(4.6161e-07 -1.75109e-08 4.78841e-22 -2.13641e-07 4.57891e-22 0)
(4.61903e-07 -1.12468e-08 7.49119e-24 -2.12939e-07 9.4449e-23 0)
(4.61826e-07 -3.69867e-09 3.5392e-20 -2.11489e-07 9.6212e-22 -7.9609e-37)
(5.44572e-07 -1.42778e-07 -9.61836e-23 -2.82908e-07 -1.23436e-22 0)
(5.28819e-07 -1.35284e-07 1.32916e-22 -2.77812e-07 1.21391e-22 0)
(5.19787e-07 -1.24833e-07 1.64096e-22 -2.70179e-07 8.57517e-23 0)
(5.0916e-07 -1.16838e-07 -1.29673e-22 -2.64068e-07 -1.21654e-22 0)
(5.01453e-07 -1.07728e-07 -3.07245e-22 -2.57502e-07 -1.53524e-22 0)
(4.93843e-07 -9.94766e-08 1.49992e-22 -2.51495e-07 7.46181e-23 0)
(4.87813e-07 -9.11953e-08 4.24489e-22 -2.45873e-07 2.73224e-22 0)
(4.82422e-07 -8.33417e-08 -6.82942e-22 -2.40782e-07 -4.587e-22 0)
(4.78042e-07 -7.57706e-08 -4.21258e-22 -2.36261e-07 -2.77583e-22 0)
(4.74362e-07 -6.85652e-08 6.61176e-22 -2.32324e-07 4.47886e-22 0)
(4.71426e-07 -6.16975e-08 -2.69679e-22 -2.28983e-07 -1.29025e-22 0)
(4.69109e-07 -5.51565e-08 3.5722e-22 -2.26226e-07 3.66057e-22 0)
(4.67375e-07 -4.89042e-08 3.84717e-22 -2.24035e-07 2.50738e-22 0)
(4.66152e-07 -4.28841e-08 -2.24456e-22 -2.22377e-07 -3.12633e-22 0)
(4.65377e-07 -3.7026e-08 -1.46641e-22 -2.21203e-07 7.58928e-23 0)
(4.64982e-07 -3.12121e-08 6.94255e-24 -2.20443e-07 6.40655e-24 0)
(4.64862e-07 -2.53285e-08 -5.93649e-22 -2.19992e-07 -4.94164e-22 0)
(4.64934e-07 -1.90851e-08 1.17863e-22 -2.19719e-07 1.32454e-22 0)
(4.64984e-07 -1.24392e-08 2.33699e-22 -2.1942e-07 1.82906e-22 0)
(4.64952e-07 -4.14767e-09 3.54979e-20 -2.18846e-07 9.67565e-22 -3.26022e-37)
(5.91479e-07 -1.2243e-07 1.15195e-24 -3.07869e-07 3.93247e-24 0)
(5.70046e-07 -1.19866e-07 -1.37418e-22 -3.01932e-07 -1.20928e-22 0)
(5.57238e-07 -1.1177e-07 2.95056e-23 -2.92918e-07 -3.20315e-23 0)
(5.42259e-07 -1.06211e-07 0 -2.85099e-07 0 0)
(5.30953e-07 -9.91327e-08 0 -2.77126e-07 0 0)
(5.19908e-07 -9.24952e-08 -4.11499e-22 -2.69526e-07 -3.22296e-22 0)
(5.10715e-07 -8.56694e-08 3.66093e-22 -2.62399e-07 3.41505e-22 0)
(5.02428e-07 -7.89854e-08 7.7184e-22 -2.55778e-07 6.73346e-22 0)
(4.95362e-07 -7.24168e-08 -5.83814e-22 -2.49771e-07 -5.609e-22 0)
(4.89242e-07 -6.60301e-08 -5.11429e-22 -2.44404e-07 -4.35639e-22 0)
(4.84082e-07 -5.98469e-08 2.35838e-22 -2.39721e-07 2.34621e-22 0)
(4.79768e-07 -5.38742e-08 -2.30967e-23 -2.35735e-07 4.64647e-23 0)
(4.76252e-07 -4.80996e-08 4.03666e-22 -2.32449e-07 1.99584e-22 0)
(4.7346e-07 -4.24818e-08 6.2872e-22 -2.29854e-07 4.35034e-22 0)
(4.71333e-07 -3.696e-08 8.58088e-24 -2.27928e-07 7.84308e-24 0)
(4.69803e-07 -3.14128e-08 2.86212e-22 -2.26635e-07 -7.80416e-23 0)
(4.68808e-07 -2.57193e-08 0 -2.25921e-07 0 0)
(4.68256e-07 -1.95535e-08 -2.40872e-22 -2.25718e-07 -1.06446e-22 0)
(4.68101e-07 -1.2872e-08 1.15889e-22 -2.25948e-07 4.90768e-23 0)
(4.68172e-07 -4.33031e-09 3.59437e-20 -2.26459e-07 1.05962e-21 -8.65232e-37)
(6.32973e-07 -9.34919e-08 -9.02252e-25 -3.26584e-07 -3.43958e-24 0)
(6.06679e-07 -9.67594e-08 1.70584e-22 -3.20399e-07 1.01976e-22 0)
(5.91234e-07 -9.26951e-08 -1.69666e-22 -3.12092e-07 -1.03365e-22 0)
(5.72896e-07 -9.00502e-08 -1.6699e-22 -3.03226e-07 -1.00671e-22 0)
(5.58342e-07 -8.58519e-08 4.58456e-22 -2.94351e-07 3.12834e-22 0)
(5.44367e-07 -8.12259e-08 3.26612e-22 -2.85443e-07 1.95054e-22 0)
(5.32284e-07 -7.61849e-08 -4.33796e-22 -2.7699e-07 -2.90439e-22 0)
(5.21407e-07 -7.09189e-08 5.76915e-23 -2.69045e-07 -6.10084e-23 0)
(5.11895e-07 -6.55756e-08 9.84748e-23 -2.61748e-07 9.13582e-23 0)
(5.03543e-07 -6.02355e-08 -5.35166e-23 -2.55158e-07 7.19349e-23 0)
(4.96321e-07 -5.49674e-08 -4.40457e-22 -2.49323e-07 -2.4162e-22 0)
(4.90128e-07 -4.98003e-08 3.9412e-24 -2.44275e-07 3.80317e-24 0)
(4.8491e-07 -4.47429e-08 -2.01428e-22 -2.40036e-07 -2.74214e-22 0)
(4.80596e-07 -3.97697e-08 -6.80575e-24 -2.36618e-07 -6.22746e-24 0)
(4.77142e-07 -3.48304e-08 2.57284e-22 -2.3403e-07 1.25346e-22 0)
(4.74481e-07 -2.98087e-08 -5.13139e-24 -2.32273e-07 -4.48596e-24 0)
(4.72611e-07 -2.45861e-08 3.13622e-22 -2.31358e-07 4.20701e-22 0)
(4.71432e-07 -1.88297e-08 -1.18455e-22 -2.31285e-07 -5.30376e-23 0)
(4.71089e-07 -1.24953e-08 -5.54925e-22 -2.32114e-07 -5.49376e-22 0)
(4.71279e-07 -4.23122e-09 3.54826e-20 -2.33807e-07 5.6487e-22 -6.53082e-35)
(6.66013e-07 -5.6381e-08 -2.17503e-23 -3.3876e-07 -1.09695e-23 0)
(6.38772e-07 -6.35319e-08 -1.82889e-22 -3.31184e-07 -1.07841e-22 0)
(6.21121e-07 -6.52156e-08 1.48482e-22 -3.25454e-07 1.16622e-22 0)
(6.01494e-07 -6.58984e-08 -3.88608e-22 -3.17383e-07 -3.54012e-22 0)
(5.84308e-07 -6.55745e-08 -3.99825e-22 -3.08985e-07 -3.32512e-22 0)
(5.68066e-07 -6.40846e-08 2.36542e-22 -2.99994e-07 2.44378e-22 0)
(5.53384e-07 -6.17808e-08 2.05597e-22 -2.90941e-07 2.45243e-22 0)
(5.40061e-07 -5.87983e-08 3.5838e-22 -2.82105e-07 3.23129e-22 0)
(5.28166e-07 -5.53466e-08 -4.20512e-22 -2.73715e-07 -3.14074e-22 0)
(5.17601e-07 -5.15814e-08 1.03087e-24 -2.65946e-07 8.6152e-24 0)
(5.08325e-07 -4.76284e-08 -5.09028e-24 -2.58916e-07 -2.56863e-23 0)
(5.00253e-07 -4.35769e-08 -3.28829e-22 -2.52713e-07 -3.21553e-22 0)
(4.93331e-07 -3.94802e-08 0 -2.47403e-07 0 0)
(4.87486e-07 -3.53511e-08 -2.98023e-22 -2.43038e-07 -9.69406e-23 0)
(4.82689e-07 -3.11701e-08 -1.39088e-24 -2.39667e-07 -5.9334e-24 0)
(4.78878e-07 -2.68469e-08 -3.84735e-22 -2.37338e-07 -1.87427e-22 0)
(4.76106e-07 -2.22818e-08 1.0536e-22 -2.36131e-07 1.11195e-22 0)
(4.74271e-07 -1.71654e-08 2.42646e-22 -2.36122e-07 1.1111e-22 0)
(4.73725e-07 -1.14588e-08 3.01728e-24 -2.37522e-07 -2.44132e-25 0)
(4.74047e-07 -3.89334e-09 3.57814e-20 -2.40412e-07 5.07937e-22 -2.76432e-37)
(6.82185e-07 -2.58208e-08 1.88145e-22 -3.39821e-07 1.65581e-22 0)
(6.57357e-07 -2.96388e-08 -1.74048e-22 -3.33449e-07 -1.09453e-22 0)
(6.38276e-07 -3.66861e-08 -1.00837e-22 -3.29431e-07 -8.37251e-23 0)
(6.18794e-07 -4.00278e-08 1.67243e-22 -3.22883e-07 1.02274e-22 0)
(6.0075e-07 -4.23813e-08 -3.30582e-22 -3.15206e-07 -1.50328e-22 0)
(5.83627e-07 -4.3442e-08 -2.22943e-22 -3.06787e-07 -1.05373e-22 0)
(5.67836e-07 -4.34831e-08 -2.77918e-22 -2.97975e-07 -2.01744e-22 0)
(5.53275e-07 -4.26827e-08 3.35057e-23 -2.89145e-07 -2.32579e-23 0)
(5.40068e-07 -4.12027e-08 5.61801e-22 -2.80563e-07 3.58261e-22 0)
(5.28158e-07 -3.92121e-08 -1.93194e-23 -2.72454e-07 -2.07795e-23 0)
(5.17548e-07 -3.68409e-08 3.00282e-22 -2.64984e-07 1.70161e-22 0)
(5.08184e-07 -3.42007e-08 -1.48121e-23 -2.58285e-07 -1.67863e-23 0)
(5.00038e-07 -3.13672e-08 1.09709e-36 -2.52465e-07 1.11454e-36 0)
(4.93057e-07 -2.83794e-08 -1.32016e-22 -2.47616e-07 -6.58185e-23 0)
(4.87237e-07 -2.52439e-08 1.29053e-22 -2.43833e-07 6.28824e-23 0)
(4.82532e-07 -2.19062e-08 -5.79229e-24 -2.41209e-07 -8.36889e-24 0)
(4.79054e-07 -1.82958e-08 2.05518e-23 -2.39892e-07 -5.43915e-23 0)
(4.76698e-07 -1.41732e-08 1.16777e-24 -2.4002e-07 3.88306e-24 0)
(4.7597e-07 -9.51076e-09 -1.19398e-24 -2.41934e-07 1.54596e-24 0)
(4.76356e-07 -3.23115e-09 3.61572e-20 -2.4583e-07 1.9036e-22 3.22023e-37)
(6.68701e-07 4.17188e-09 1.7473e-22 -3.27491e-07 1.38209e-22 0)
(6.52133e-07 -2.14715e-10 0 -3.29299e-07 0 0)
(6.34864e-07 -8.81578e-09 -1.36291e-22 -3.26206e-07 -1.2012e-22 0)
(6.1759e-07 -1.44582e-08 1.78162e-36 -3.21235e-07 1.44277e-36 0)
(6.01119e-07 -1.8903e-08 4.08334e-37 -3.14664e-07 2.96292e-37 0)
(5.85212e-07 -2.20553e-08 1.93651e-36 -3.07165e-07 1.44049e-36 0)
(5.70284e-07 -2.40943e-08 2.97031e-36 -2.99087e-07 2.40076e-36 0)
(5.56279e-07 -2.52024e-08 -1.19421e-22 -2.90815e-07 -1.11953e-22 0)
(5.43367e-07 -2.5524e-08 0 -2.82632e-07 0 0)
(5.31543e-07 -2.52195e-08 1.14111e-22 -2.74784e-07 1.10615e-22 0)
(5.20859e-07 -2.44155e-08 -1.633e-37 -2.67462e-07 -2.74463e-37 0)
(5.11299e-07 -2.32245e-08 -1.09765e-22 -2.60828e-07 -1.10173e-22 0)
(5.02877e-07 -2.1729e-08 1.07957e-22 -2.55014e-07 1.10233e-22 0)
(4.95574e-07 -1.99834e-08 1.5508e-36 -2.50141e-07 1.12998e-36 0)
(4.89423e-07 -1.8009e-08 -1.05068e-22 -2.46337e-07 -1.10856e-22 0)
(4.84405e-07 -1.57895e-08 -9.31554e-37 -2.43733e-07 -8.61551e-37 0)
(4.80677e-07 -1.32759e-08 1.03191e-22 -2.42517e-07 1.12165e-22 0)
(4.78153e-07 -1.03184e-08 1.02649e-22 -2.42875e-07 1.13143e-22 0)
(4.77462e-07 -6.91949e-09 -1.10827e-36 -2.45245e-07 -9.66828e-37 0)
(4.78017e-07 -2.33004e-09 3.62876e-20 -2.49857e-07 -9.81729e-37 -2.14064e-49)