/*--------------------------------*- C++ -*----------------------------------*\
  =========                 |
  \\      /  F ield         | OpenFOAM: The Open Source CFD Toolbox
   \\    /   O peration     | Website:  https://openfoam.org
    \\  /    A nd           | Version:  9
     \\/     M anipulation  |
\*---------------------------------------------------------------------------*/
FoamFile
{
    format      ascii;
    class       volScalarField;
    location    "1";
    object      epsilonEq;
}
// * * * * * * * * * * * * * * * * * * * * * * * * * * * * * * * * * * * * * //

dimensions      [0 0 0 0 0 0 0];

internalField   nonuniform List<scalar> 
1000
(
6.81885e-07
6.47156e-07
6.37117e-07
6.41901e-07
6.42517e-07
6.41149e-07
6.36684e-07
6.29896e-07
6.2232e-07
6.12863e-07
7.94715e-07
7.21407e-07
6.85907e-07
6.74915e-07
6.65098e-07
6.56728e-07
6.47017e-07
6.36731e-07
6.25087e-07
6.14805e-07
9.04991e-07
7.92946e-07
7.30091e-07
7.01122e-07
6.79156e-07
6.62481e-07
6.46628e-07
6.31933e-07
6.16485e-07
6.04131e-07
1.01057e-06
8.60889e-07
7.69796e-07
7.21142e-07
6.85527e-07
6.59486e-07
6.36858e-07
6.17455e-07
5.9832e-07
5.83774e-07
1.10815e-06
9.23615e-07
8.04256e-07
7.34807e-07
6.84333e-07
6.48013e-07
6.18116e-07
5.93718e-07
5.71108e-07
5.54224e-07
1.1982e-06
9.80635e-07
8.32979e-07
7.42063e-07
6.75892e-07
6.28765e-07
5.91372e-07
5.61931e-07
5.36055e-07
5.16764e-07
1.27568e-06
1.0282e-06
8.51895e-07
7.39838e-07
6.58516e-07
6.01248e-07
5.57098e-07
5.23218e-07
4.94731e-07
4.73245e-07
1.3486e-06
1.06428e-06
8.57421e-07
7.26337e-07
6.32122e-07
5.66973e-07
5.18036e-07
4.81253e-07
4.51404e-07
4.28421e-07
1.39928e-06
1.068e-06
8.30539e-07
6.88037e-07
5.9046e-07
5.24301e-07
4.75626e-07
4.39142e-07
4.10014e-07
3.86707e-07
1.44304e-06
1.00697e-06
7.66744e-07
6.32923e-07
5.48301e-07
4.89672e-07
4.46468e-07
4.12803e-07
3.85551e-07
3.62388e-07
1.87549e-09
5.68811e-09
2.47568e-08
5.11492e-08
8.01778e-08
1.10186e-07
1.39356e-07
1.67167e-07
1.92712e-07
2.1639e-07
6.6124e-09
3.43641e-08
7.30731e-08
1.11175e-07
1.44986e-07
1.75043e-07
2.01281e-07
2.24764e-07
2.44924e-07
2.63876e-07
2.84734e-08
8.16143e-08
1.30433e-07
1.74648e-07
2.11527e-07
2.42191e-07
2.6712e-07
2.88045e-07
3.04436e-07
3.19953e-07
6.51466e-08
1.39312e-07
1.94353e-07
2.40987e-07
2.78123e-07
3.07919e-07
3.31077e-07
3.49628e-07
3.62922e-07
3.75717e-07
1.17251e-07
2.04317e-07
2.62953e-07
3.09951e-07
3.45352e-07
3.72775e-07
3.93193e-07
4.08821e-07
4.18939e-07
4.28969e-07
1.84566e-07
2.73503e-07
3.32181e-07
3.77829e-07
4.10241e-07
4.34354e-07
4.51389e-07
4.63673e-07
4.7055e-07
4.77669e-07
2.65703e-07
3.4571e-07
4.00164e-07
4.42605e-07
4.71029e-07
4.91195e-07
5.04429e-07
5.13092e-07
5.16708e-07
5.20751e-07
3.58698e-07
4.19942e-07
4.65266e-07
5.02231e-07
5.25638e-07
5.41338e-07
5.50582e-07
5.55509e-07
5.56143e-07
5.56937e-07
4.60948e-07
4.95492e-07
5.26744e-07
5.55691e-07
5.72901e-07
5.83607e-07
5.88595e-07
5.89784e-07
5.87583e-07
5.85571e-07
5.69694e-07
5.7154e-07
5.84075e-07
6.02235e-07
6.11833e-07
6.1677e-07
6.17186e-07
6.14272e-07
6.10181e-07
6.0371e-07
2.37715e-07
2.56052e-07
2.73059e-07
2.88439e-07
3.02346e-07
3.14859e-07
3.26094e-07
3.36135e-07
3.45082e-07
3.53005e-07
3.59974e-07
3.66039e-07
3.71237e-07
3.75597e-07
3.79129e-07
3.8185e-07
3.8375e-07
3.84889e-07
3.85252e-07
3.85032e-07
2.78539e-07
2.89226e-07
3.00017e-07
3.10045e-07
3.19454e-07
3.28199e-07
3.36282e-07
3.43699e-07
3.50474e-07
3.56614e-07
3.62145e-07
3.67079e-07
3.71434e-07
3.75222e-07
3.78445e-07
3.81103e-07
3.83158e-07
3.84586e-07
3.85196e-07
3.84861e-07
3.28629e-07
3.32054e-07
3.36445e-07
3.4068e-07
3.44989e-07
3.49282e-07
3.53528e-07
3.57655e-07
3.61646e-07
3.65445e-07
3.69044e-07
3.72413e-07
3.75541e-07
3.78411e-07
3.80994e-07
3.83253e-07
3.85085e-07
3.86378e-07
3.86736e-07
3.85928e-07
3.79432e-07
3.76801e-07
3.75675e-07
3.74784e-07
3.74387e-07
3.74421e-07
3.74883e-07
3.75659e-07
3.76738e-07
3.78021e-07
3.79481e-07
3.81054e-07
3.82705e-07
3.84382e-07
3.86025e-07
3.87564e-07
3.88843e-07
3.89712e-07
3.89702e-07
3.88603e-07
4.28304e-07
4.20685e-07
4.14815e-07
4.09518e-07
4.04979e-07
4.01149e-07
3.98097e-07
3.95665e-07
3.9389e-07
3.92638e-07
3.9189e-07
3.91558e-07
3.91592e-07
3.91917e-07
3.92453e-07
3.93104e-07
3.93694e-07
3.9406e-07
3.93749e-07
3.92587e-07
4.73139e-07
4.61548e-07
4.5175e-07
4.42757e-07
4.34751e-07
4.27569e-07
4.21446e-07
4.16133e-07
4.11739e-07
4.081e-07
4.05217e-07
4.02991e-07
4.01372e-07
4.00279e-07
3.99624e-07
3.99305e-07
3.99159e-07
3.99035e-07
3.98572e-07
3.97617e-07
5.12864e-07
4.98285e-07
4.85506e-07
4.73466e-07
4.62699e-07
4.52655e-07
4.43875e-07
4.35994e-07
4.29216e-07
4.23374e-07
4.18486e-07
4.14457e-07
4.11239e-07
4.08753e-07
4.06919e-07
4.05642e-07
4.04796e-07
4.04249e-07
4.03786e-07
4.03253e-07
5.4638e-07
5.2971e-07
5.15113e-07
5.00562e-07
4.87776e-07
4.75508e-07
4.6462e-07
4.54646e-07
4.45834e-07
4.38048e-07
4.31324e-07
4.25599e-07
4.20842e-07
4.16993e-07
4.13997e-07
4.11778e-07
4.10268e-07
4.09364e-07
4.09028e-07
4.09089e-07
5.73586e-07
5.5505e-07
5.40475e-07
5.24171e-07
5.09836e-07
4.95756e-07
4.83e-07
4.71226e-07
4.60645e-07
4.51186e-07
4.42872e-07
4.35667e-07
4.29551e-07
4.24486e-07
4.20444e-07
4.17377e-07
4.15287e-07
4.14106e-07
4.13987e-07
4.14735e-07
5.93853e-07
5.7402e-07
5.60403e-07
5.44246e-07
5.29289e-07
5.14429e-07
5.0037e-07
4.87157e-07
4.74991e-07
4.63932e-07
4.54044e-07
4.45339e-07
4.37828e-07
4.31502e-07
4.26369e-07
4.22412e-07
4.19708e-07
4.18227e-07
4.18328e-07
4.19804e-07
6.01729e-07
5.83147e-07
5.69689e-07
5.54482e-07
5.39549e-07
5.24701e-07
5.10381e-07
4.96727e-07
4.83967e-07
4.72202e-07
4.61537e-07
4.52021e-07
4.43707e-07
4.36615e-07
4.30798e-07
4.26276e-07
4.23198e-07
4.21568e-07
4.21903e-07
4.23992e-07
5.8631e-07
5.76758e-07
5.64424e-07
5.51212e-07
5.37724e-07
5.24103e-07
5.10765e-07
4.97861e-07
4.85641e-07
4.7423e-07
4.63766e-07
4.54331e-07
4.46007e-07
4.3885e-07
4.3295e-07
4.28365e-07
4.25293e-07
4.23777e-07
4.24449e-07
4.27073e-07
5.73905e-07
5.66651e-07
5.57202e-07
5.45882e-07
5.34135e-07
5.21825e-07
5.09568e-07
4.97486e-07
4.85892e-07
4.74926e-07
4.64762e-07
4.55508e-07
4.47277e-07
4.40155e-07
4.34261e-07
4.29687e-07
4.26675e-07
4.25275e-07
4.26192e-07
4.29178e-07
5.59119e-07
5.54759e-07
5.47669e-07
5.3819e-07
5.28106e-07
5.17131e-07
5.06024e-07
4.94882e-07
4.84061e-07
4.73712e-07
4.64034e-07
4.55151e-07
4.472e-07
4.40287e-07
4.3455e-07
4.30113e-07
4.2721e-07
4.25967e-07
4.27135e-07
4.30316e-07
5.42272e-07
5.40194e-07
5.3533e-07
5.27787e-07
5.19478e-07
5.10005e-07
5.00213e-07
4.90183e-07
4.80308e-07
4.70748e-07
4.61725e-07
4.53381e-07
4.45865e-07
4.39306e-07
4.33835e-07
4.29638e-07
4.26835e-07
4.25913e-07
4.26496e-07
4.30413e-07
5.24337e-07
5.24295e-07
5.21435e-07
5.1571e-07
5.09074e-07
5.01087e-07
4.92629e-07
4.83772e-07
4.7493e-07
4.66271e-07
4.58029e-07
4.50356e-07
4.43414e-07
4.37332e-07
4.32272e-07
4.28364e-07
4.2588e-07
4.24956e-07
4.26169e-07
4.29235e-07
5.05632e-07
5.07267e-07
5.06159e-07
5.02134e-07
4.97087e-07
4.90576e-07
4.8347e-07
4.7584e-07
4.68106e-07
4.6044e-07
4.53083e-07
4.4619e-07
4.39929e-07
4.34431e-07
4.29856e-07
4.26325e-07
4.24099e-07
4.23229e-07
4.24349e-07
4.27227e-07
4.86536e-07
4.89562e-07
4.8998e-07
4.87493e-07
4.8391e-07
4.78808e-07
4.73024e-07
4.66631e-07
4.60043e-07
4.53429e-07
4.4703e-07
4.41003e-07
4.35513e-07
4.30685e-07
4.26671e-07
4.23574e-07
4.21623e-07
4.20873e-07
4.21852e-07
4.24339e-07
4.67219e-07
4.71349e-07
4.73062e-07
4.71949e-07
4.69707e-07
4.65948e-07
4.61452e-07
4.56298e-07
4.5088e-07
4.45366e-07
4.39988e-07
4.34897e-07
4.30253e-07
4.26171e-07
4.22788e-07
4.20184e-07
4.18548e-07
4.17904e-07
4.18695e-07
4.20713e-07
4.47765e-07
4.52761e-07
4.55569e-07
4.55673e-07
4.54659e-07
4.52167e-07
4.48921e-07
4.44997e-07
4.40764e-07
4.36382e-07
4.32072e-07
4.27977e-07
4.24243e-07
4.20973e-07
4.18282e-07
4.1623e-07
4.1495e-07
4.14446e-07
4.15025e-07
4.16498e-07
4.28144e-07
4.33804e-07
4.37533e-07
4.38723e-07
4.38844e-07
4.37564e-07
4.35538e-07
4.32842e-07
4.29812e-07
4.26596e-07
4.23398e-07
4.20349e-07
4.1758e-07
4.15182e-07
4.13241e-07
4.11797e-07
4.10925e-07
4.10593e-07
4.10969e-07
4.11881e-07
4.08262e-07
4.14436e-07
4.18957e-07
4.2114e-07
4.22332e-07
4.22229e-07
4.21416e-07
4.19956e-07
4.18153e-07
4.16139e-07
4.14097e-07
4.12141e-07
4.10386e-07
4.08908e-07
4.0777e-07
4.06988e-07
4.0658e-07
4.06477e-07
4.06692e-07
4.0706e-07
3.87927e-07
3.94527e-07
3.99762e-07
4.02895e-07
4.05143e-07
4.06221e-07
4.06643e-07
4.06456e-07
4.05924e-07
4.0516e-07
4.04321e-07
4.03505e-07
4.02809e-07
4.02295e-07
4.02003e-07
4.0193e-07
4.02041e-07
4.02232e-07
4.02358e-07
4.02249e-07
3.66951e-07
3.73958e-07
3.79896e-07
3.83995e-07
3.87334e-07
3.89643e-07
3.91356e-07
3.92506e-07
3.9331e-07
3.93856e-07
3.94273e-07
3.94643e-07
3.95044e-07
3.95525e-07
3.96108e-07
3.96777e-07
3.97454e-07
3.98005e-07
3.98141e-07
3.97664e-07
3.45003e-07
3.52497e-07
3.59217e-07
3.64386e-07
3.68924e-07
3.72579e-07
3.75699e-07
3.78291e-07
3.80526e-07
3.82464e-07
3.84205e-07
3.85812e-07
3.87344e-07
3.88838e-07
3.90308e-07
3.91728e-07
3.92999e-07
3.93964e-07
3.94223e-07
3.93528e-07
3.21962e-07
3.30126e-07
3.37794e-07
3.44215e-07
3.50128e-07
3.55294e-07
3.5997e-07
3.64138e-07
3.67914e-07
3.71334e-07
3.74467e-07
3.77352e-07
3.80034e-07
3.8254e-07
3.84878e-07
3.87026e-07
3.88882e-07
3.90284e-07
3.90773e-07
3.90036e-07
2.9737e-07
3.06562e-07
3.15505e-07
3.23496e-07
3.31074e-07
3.38007e-07
3.4446e-07
3.50388e-07
3.55856e-07
3.60873e-07
3.65478e-07
3.69689e-07
3.73537e-07
3.77038e-07
3.802e-07
3.83009e-07
3.85383e-07
3.87184e-07
3.87976e-07
3.87384e-07
2.71718e-07
2.82415e-07
2.9304e-07
3.02969e-07
3.12519e-07
3.21474e-07
3.29904e-07
3.37742e-07
3.4501e-07
3.51692e-07
3.57802e-07
3.63346e-07
3.68335e-07
3.7278e-07
3.76685e-07
3.80046e-07
3.82816e-07
3.84901e-07
3.85973e-07
3.85659e-07
2.44496e-07
2.57502e-07
2.70476e-07
2.82898e-07
2.94871e-07
3.06192e-07
3.16862e-07
3.268e-07
3.36001e-07
3.44437e-07
3.52104e-07
3.58998e-07
3.6512e-07
3.70467e-07
3.75031e-07
3.78807e-07
3.81762e-07
3.83875e-07
3.84996e-07
3.84972e-07
2.18892e-07
2.34862e-07
2.50635e-07
2.65805e-07
2.80355e-07
2.94083e-07
3.06971e-07
3.1893e-07
3.29951e-07
3.40006e-07
3.49095e-07
3.57209e-07
3.64342e-07
3.70481e-07
3.75595e-07
3.7966e-07
3.82619e-07
3.84495e-07
3.85236e-07
3.85116e-07
3.42821e-07
3.66168e-07
4.05844e-07
4.49448e-07
4.92778e-07
5.30881e-07
5.61707e-07
5.83799e-07
5.97487e-07
6.00312e-07
3.2468e-07
3.46446e-07
3.83069e-07
4.24296e-07
4.66698e-07
5.05576e-07
5.38838e-07
5.64361e-07
5.82065e-07
5.89006e-07
3.08433e-07
3.29185e-07
3.63264e-07
4.0189e-07
4.42302e-07
4.80169e-07
5.13732e-07
5.41209e-07
5.62641e-07
5.75847e-07
2.93574e-07
3.13644e-07
3.45615e-07
3.81932e-07
4.20484e-07
4.57256e-07
4.90523e-07
5.18592e-07
5.41058e-07
5.58076e-07
2.79634e-07
2.99237e-07
3.29417e-07
3.63557e-07
4.00124e-07
4.35527e-07
4.68189e-07
4.96767e-07
5.19955e-07
5.39158e-07
2.66551e-07
2.85856e-07
3.1456e-07
3.46769e-07
3.81416e-07
4.15269e-07
4.46812e-07
4.75152e-07
4.98355e-07
5.18979e-07
2.54082e-07
2.73181e-07
3.00635e-07
3.31122e-07
3.63965e-07
3.96294e-07
4.26646e-07
4.54511e-07
4.77384e-07
4.9847e-07
2.42187e-07
2.61121e-07
2.87494e-07
3.16429e-07
3.47556e-07
3.78319e-07
4.07328e-07
4.34421e-07
4.56792e-07
4.779e-07
2.30784e-07
2.4955e-07
2.74954e-07
3.02476e-07
3.31997e-07
3.61235e-07
3.88887e-07
4.15025e-07
4.36736e-07
4.57483e-07
2.19877e-07
2.3842e-07
2.62899e-07
2.89078e-07
3.17051e-07
3.44762e-07
3.71029e-07
3.96081e-07
4.17063e-07
4.37248e-07
2.09492e-07
2.2771e-07
2.5124e-07
2.76088e-07
3.02536e-07
3.28713e-07
3.53582e-07
3.7745e-07
3.97632e-07
4.17119e-07
1.99715e-07
2.17446e-07
2.39919e-07
2.63365e-07
2.88241e-07
3.12834e-07
3.36272e-07
3.58885e-07
3.78219e-07
3.9694e-07
1.90714e-07
2.07704e-07
2.28886e-07
2.50742e-07
2.73915e-07
2.9683e-07
3.18782e-07
3.4008e-07
3.58529e-07
3.76456e-07
1.8274e-07
1.98606e-07
2.18118e-07
2.38083e-07
2.59331e-07
2.80421e-07
3.00803e-07
3.20731e-07
3.38273e-07
3.55411e-07
1.76272e-07
1.90344e-07
2.07472e-07
2.25009e-07
2.43976e-07
2.6305e-07
2.81774e-07
3.00311e-07
3.1697e-07
3.33378e-07
1.71876e-07
1.83006e-07
1.96795e-07
2.11287e-07
2.27558e-07
2.44398e-07
2.61378e-07
2.78528e-07
2.94364e-07
3.10146e-07
1.70804e-07
1.76775e-07
1.85272e-07
1.95645e-07
2.08718e-07
2.2318e-07
2.38475e-07
2.54402e-07
2.69647e-07
2.85068e-07
1.73267e-07
1.70436e-07
1.71998e-07
1.77671e-07
1.87299e-07
1.99386e-07
2.13173e-07
2.28146e-07
2.43132e-07
2.58538e-07
1.82368e-07
1.62411e-07
1.52895e-07
1.52821e-07
1.59404e-07
1.69864e-07
1.83004e-07
1.97895e-07
2.13463e-07
2.29636e-07
1.86073e-07
1.42306e-07
1.26613e-07
1.22083e-07
1.27185e-07
1.37185e-07
1.50823e-07
1.6672e-07
1.83839e-07
2.0165e-07
)
;

boundaryField
{
    left
    {
        type            calculated;
        value           nonuniform List<scalar> 
30
(
3.38872e-07
3.20947e-07
3.04903e-07
2.90223e-07
2.76479e-07
2.63608e-07
2.51392e-07
2.39802e-07
2.28775e-07
2.18328e-07
2.08508e-07
1.99421e-07
1.9125e-07
1.84274e-07
1.78994e-07
1.76153e-07
1.77245e-07
1.84073e-07
2.02844e-07
2.31881e-07
1.53672e-06
9.85862e-07
7.41959e-07
6.16588e-07
5.38525e-07
4.83125e-07
4.41593e-07
4.08606e-07
3.81676e-07
3.58426e-07
)
;
    }
    right
    {
        type            calculated;
        value           nonuniform List<scalar> 
30
(
3.84966e-07
3.84862e-07
3.85893e-07
3.88547e-07
3.92519e-07
3.97552e-07
4.03203e-07
4.09067e-07
4.14744e-07
4.1986e-07
4.24065e-07
4.27196e-07
4.29315e-07
4.30462e-07
4.3045e-07
4.2936e-07
4.2736e-07
4.24448e-07
4.20797e-07
4.16554e-07
4.11907e-07
4.07059e-07
4.02227e-07
3.97628e-07
3.93486e-07
3.89999e-07
3.87363e-07
3.85657e-07
3.84987e-07
3.85041e-07
)
;
    }
    down
    {
        type            calculated;
        value           nonuniform List<scalar> 
30
(
1.74694e-09
1.59854e-09
1.77539e-08
4.32821e-08
7.26915e-08
1.0344e-07
1.33483e-07
1.62128e-07
1.88406e-07
2.12752e-07
2.34671e-07
2.53771e-07
2.71315e-07
2.87092e-07
3.01324e-07
3.14077e-07
3.25511e-07
3.35702e-07
3.44772e-07
3.5279e-07
3.59835e-07
3.65956e-07
3.71198e-07
3.75586e-07
3.79134e-07
3.81858e-07
3.83752e-07
3.84883e-07
3.85248e-07
3.85125e-07
)
;
    }
    up
    {
        type            calculated;
        value           nonuniform List<scalar> 
30
(
1.83245e-07
1.40599e-07
1.25742e-07
1.21134e-07
1.261e-07
1.35951e-07
1.49495e-07
1.65365e-07
1.82469e-07
2.00354e-07
2.17649e-07
2.33747e-07
2.49673e-07
2.64969e-07
2.7965e-07
2.93492e-07
3.06488e-07
3.18541e-07
3.29648e-07
3.39777e-07
3.4893e-07
3.57099e-07
3.64278e-07
3.70453e-07
3.75592e-07
3.79672e-07
3.82632e-07
3.84501e-07
3.85229e-07
3.85174e-07
)
;
    }
    hole
    {
        type            calculated;
        value           nonuniform List<scalar> 
20
(
6.86674e-07
8.05393e-07
9.21409e-07
1.03244e-06
1.13498e-06
1.22966e-06
1.31133e-06
1.39016e-06
1.45083e-06
1.52176e-06
5.28727e-10
5.0198e-10
1.37667e-08
4.63575e-08
9.71669e-08
1.65745e-07
2.49828e-07
3.47037e-07
4.54324e-07
5.68644e-07
)
;
    }
    frontAndBack
    {
        type            empty;
    }
}


// ************************************************************************* //
