/*--------------------------------*- C++ -*----------------------------------*\
  =========                 |
  \\      /  F ield         | OpenFOAM: The Open Source CFD Toolbox
   \\    /   O peration     | Website:  https://openfoam.org
    \\  /    A nd           | Version:  9
     \\/     M anipulation  |
\*---------------------------------------------------------------------------*/
FoamFile
{
    format      ascii;
    class       pointVectorField;
    location    "1";
    object      pointD;
}
// * * * * * * * * * * * * * * * * * * * * * * * * * * * * * * * * * * * * * //

dimensions      [0 1 0 0 0 0 0];

internalField   nonuniform List<vector> 
2142
(
(7.40868e-07 2.17373e-07 -1.02695e-20)
(6.8667e-07 2.5159e-07 0)
(6.48791e-07 2.76003e-07 0)
(6.21232e-07 2.95847e-07 0)
(6.01401e-07 3.12112e-07 0)
(5.87335e-07 3.26122e-07 0)
(5.77629e-07 3.38446e-07 0)
(5.71293e-07 3.49587e-07 0)
(5.67562e-07 3.59846e-07 0)
(5.65879e-07 3.69429e-07 0)
(5.66216e-07 3.79832e-07 0)
(6.76947e-07 1.99436e-07 -1.13522e-20)
(6.19586e-07 2.26397e-07 0)
(5.7983e-07 2.45397e-07 0)
(5.51076e-07 2.60982e-07 0)
(5.30438e-07 2.73727e-07 0)
(5.15774e-07 2.84756e-07 0)
(5.05564e-07 2.94465e-07 0)
(4.98756e-07 3.03278e-07 0)
(4.94524e-07 3.11396e-07 0)
(4.92288e-07 3.19065e-07 0)
(4.8246e-07 3.19439e-07 0)
(6.10432e-07 1.81797e-07 -1.21115e-20)
(5.5152e-07 2.00679e-07 0)
(5.10942e-07 2.13852e-07 0)
(4.81758e-07 2.2498e-07 0)
(4.6089e-07 2.34148e-07 0)
(4.46072e-07 2.42219e-07 0)
(4.35704e-07 2.49382e-07 0)
(4.28688e-07 2.55952e-07 0)
(4.2417e-07 2.62015e-07 0)
(4.21528e-07 2.67809e-07 0)
(4.1272e-07 2.67204e-07 0)
(5.4159e-07 1.64614e-07 -1.24175e-20)
(4.82872e-07 1.7495e-07 0)
(4.42618e-07 1.82098e-07 0)
(4.13842e-07 1.88723e-07 0)
(3.93379e-07 1.94373e-07 0)
(3.78896e-07 1.99615e-07 0)
(3.68756e-07 2.04401e-07 0)
(3.61841e-07 2.08916e-07 0)
(3.573e-07 2.13128e-07 0)
(3.54501e-07 2.1722e-07 0)
(3.4689e-07 2.15953e-07 0)
(4.70669e-07 1.4798e-07 -1.21857e-20)
(4.13927e-07 1.49694e-07 0)
(3.75195e-07 1.50858e-07 0)
(3.47721e-07 1.53111e-07 0)
(3.28344e-07 1.55439e-07 0)
(3.14721e-07 1.58085e-07 0)
(3.05219e-07 1.60747e-07 0)
(2.98727e-07 1.63462e-07 0)
(2.94425e-07 1.66081e-07 0)
(2.91691e-07 1.68709e-07 0)
(2.85333e-07 1.6707e-07 0)
(3.97998e-07 1.31888e-07 -1.13904e-20)
(3.44903e-07 1.25293e-07 0)
(3.08893e-07 1.2078e-07 0)
(2.83655e-07 1.19007e-07 0)
(2.66085e-07 1.18379e-07 0)
(2.53866e-07 1.18801e-07 0)
(2.45413e-07 1.19701e-07 0)
(2.39656e-07 1.20958e-07 0)
(2.3583e-07 1.22309e-07 0)
(2.3335e-07 1.23768e-07 0)
(2.28241e-07 1.22042e-07 0)
(3.23794e-07 1.16159e-07 -1.00622e-20)
(2.75816e-07 1.01961e-07 0)
(2.43758e-07 9.23754e-08 0)
(2.21742e-07 8.72005e-08 0)
(2.0673e-07 8.42036e-08 0)
(1.96465e-07 8.29362e-08 0)
(1.89454e-07 8.25489e-08 0)
(1.84713e-07 8.27696e-08 0)
(1.81565e-07 8.32311e-08 0)
(1.79492e-07 8.38673e-08 0)
(1.75584e-07 8.23209e-08 0)
(2.48689e-07 1.00325e-07 -8.30343e-21)
(2.0675e-07 7.95993e-08 0)
(1.79887e-07 6.59692e-08 0)
(1.62129e-07 5.84237e-08 0)
(1.50414e-07 5.39371e-08 0)
(1.42593e-07 5.17049e-08 0)
(1.37341e-07 5.06186e-08 0)
(1.33822e-07 5.0284e-08 0)
(1.31488e-07 5.02669e-08 0)
(1.29923e-07 5.0442e-08 0)
(1.27133e-07 4.92926e-08 0)
(1.73085e-07 8.29701e-08 -6.23362e-21)
(1.3738e-07 5.73772e-08 0)
(1.17278e-07 4.15475e-08 0)
(1.04869e-07 3.33303e-08 0)
(9.70934e-08 2.8642e-08 0)
(9.20796e-08 2.63574e-08 0)
(8.87716e-08 2.52225e-08 0)
(8.65736e-08 2.48047e-08 0)
(8.51066e-08 2.4678e-08 0)
(8.40932e-08 2.47055e-08 0)
(8.23155e-08 2.40694e-08 0)
(1.01742e-07 6.1072e-08 -4.0035e-21)
(6.82924e-08 3.37918e-08 0)
(5.68663e-08 1.97754e-08 0)
(5.07443e-08 1.34754e-08 0)
(4.71513e-08 1.02414e-08 0)
(4.49057e-08 8.82622e-09 0)
(4.34283e-08 8.191e-09 0)
(4.24425e-08 8.0073e-09 0)
(4.17682e-08 7.98393e-09 0)
(4.12797e-08 8.03266e-09 0)
(4.0405e-08 7.84304e-09 0)
(3.42275e-08 2.42744e-08 -1.43884e-21)
(0 0 0)
(0 0 0)
(0 0 0)
(0 0 0)
(0 0 0)
(0 0 0)
(0 0 0)
(0 0 0)
(0 0 0)
(0 0 0)
(7.40868e-07 2.17373e-07 -1.02695e-20)
(6.8667e-07 2.5159e-07 0)
(6.48791e-07 2.76003e-07 0)
(6.21232e-07 2.95847e-07 0)
(6.01401e-07 3.12112e-07 0)
(5.87335e-07 3.26122e-07 0)
(5.77629e-07 3.38446e-07 0)
(5.71293e-07 3.49587e-07 0)
(5.67562e-07 3.59846e-07 0)
(5.65879e-07 3.69429e-07 0)
(5.66216e-07 3.79832e-07 0)
(6.76947e-07 1.99436e-07 -1.13522e-20)
(6.19586e-07 2.26397e-07 0)
(5.7983e-07 2.45397e-07 0)
(5.51076e-07 2.60982e-07 0)
(5.30438e-07 2.73727e-07 0)
(5.15774e-07 2.84756e-07 0)
(5.05564e-07 2.94465e-07 0)
(4.98756e-07 3.03278e-07 0)
(4.94524e-07 3.11396e-07 0)
(4.92288e-07 3.19065e-07 0)
(4.8246e-07 3.19439e-07 0)
(6.10432e-07 1.81797e-07 -1.21115e-20)
(5.5152e-07 2.00679e-07 0)
(5.10942e-07 2.13852e-07 0)
(4.81758e-07 2.2498e-07 0)
(4.6089e-07 2.34148e-07 0)
(4.46072e-07 2.42219e-07 0)
(4.35704e-07 2.49382e-07 0)
(4.28688e-07 2.55952e-07 0)
(4.2417e-07 2.62015e-07 0)
(4.21528e-07 2.67809e-07 0)
(4.1272e-07 2.67204e-07 0)
(5.4159e-07 1.64614e-07 -1.24175e-20)
(4.82872e-07 1.7495e-07 0)
(4.42618e-07 1.82098e-07 0)
(4.13842e-07 1.88723e-07 0)
(3.93379e-07 1.94373e-07 0)
(3.78896e-07 1.99615e-07 0)
(3.68756e-07 2.04401e-07 0)
(3.61841e-07 2.08916e-07 0)
(3.573e-07 2.13128e-07 0)
(3.54501e-07 2.1722e-07 0)
(3.4689e-07 2.15953e-07 0)
(4.70669e-07 1.4798e-07 -1.21857e-20)
(4.13927e-07 1.49694e-07 0)
(3.75195e-07 1.50858e-07 0)
(3.47721e-07 1.53111e-07 0)
(3.28344e-07 1.55439e-07 0)
(3.14721e-07 1.58085e-07 0)
(3.05219e-07 1.60747e-07 0)
(2.98727e-07 1.63462e-07 0)
(2.94425e-07 1.66081e-07 0)
(2.91691e-07 1.68709e-07 0)
(2.85333e-07 1.6707e-07 0)
(3.97998e-07 1.31888e-07 -1.13904e-20)
(3.44903e-07 1.25293e-07 0)
(3.08893e-07 1.2078e-07 0)
(2.83655e-07 1.19007e-07 0)
(2.66085e-07 1.18379e-07 0)
(2.53866e-07 1.18801e-07 0)
(2.45413e-07 1.19701e-07 0)
(2.39656e-07 1.20958e-07 0)
(2.3583e-07 1.22309e-07 0)
(2.3335e-07 1.23768e-07 0)
(2.28241e-07 1.22042e-07 0)
(3.23794e-07 1.16159e-07 -1.00622e-20)
(2.75816e-07 1.01961e-07 0)
(2.43758e-07 9.23754e-08 0)
(2.21742e-07 8.72005e-08 0)
(2.0673e-07 8.42036e-08 0)
(1.96465e-07 8.29362e-08 0)
(1.89454e-07 8.25489e-08 0)
(1.84713e-07 8.27696e-08 0)
(1.81565e-07 8.32311e-08 0)
(1.79492e-07 8.38673e-08 0)
(1.75584e-07 8.23209e-08 0)
(2.48689e-07 1.00325e-07 -8.30343e-21)
(2.0675e-07 7.95993e-08 0)
(1.79887e-07 6.59692e-08 0)
(1.62129e-07 5.84237e-08 0)
(1.50414e-07 5.39371e-08 0)
(1.42593e-07 5.17049e-08 0)
(1.37341e-07 5.06186e-08 0)
(1.33822e-07 5.0284e-08 0)
(1.31488e-07 5.02669e-08 0)
(1.29923e-07 5.0442e-08 0)
(1.27133e-07 4.92926e-08 0)
(1.73085e-07 8.29701e-08 -6.23362e-21)
(1.3738e-07 5.73772e-08 0)
(1.17278e-07 4.15475e-08 0)
(1.04869e-07 3.33303e-08 0)
(9.70934e-08 2.8642e-08 0)
(9.20796e-08 2.63574e-08 0)
(8.87716e-08 2.52225e-08 0)
(8.65736e-08 2.48047e-08 0)
(8.51066e-08 2.4678e-08 0)
(8.40932e-08 2.47055e-08 0)
(8.23155e-08 2.40694e-08 0)
(1.01742e-07 6.1072e-08 -4.0035e-21)
(6.82924e-08 3.37918e-08 0)
(5.68663e-08 1.97754e-08 0)
(5.07443e-08 1.34754e-08 0)
(4.71513e-08 1.02414e-08 0)
(4.49057e-08 8.82622e-09 0)
(4.34283e-08 8.191e-09 0)
(4.24425e-08 8.0073e-09 0)
(4.17682e-08 7.98393e-09 0)
(4.12797e-08 8.03266e-09 0)
(4.0405e-08 7.84304e-09 0)
(3.42275e-08 2.42744e-08 -1.43884e-21)
(0 0 0)
(0 0 0)
(0 0 0)
(0 0 0)
(0 0 0)
(0 0 0)
(0 0 0)
(0 0 0)
(0 0 0)
(0 0 0)
(1.20225e-06 3.56759e-07 -2.78123e-21)
(1.21081e-06 3.91256e-07 -1.53777e-21)
(1.20973e-06 4.35609e-07 -1.67789e-21)
(1.20899e-06 4.76759e-07 -1.81813e-21)
(1.20968e-06 5.14637e-07 -1.95821e-21)
(1.2122e-06 5.49627e-07 -2.09808e-21)
(1.2167e-06 5.8218e-07 -2.23776e-21)
(1.22316e-06 6.12757e-07 -2.37728e-21)
(1.2315e-06 6.4174e-07 -2.51666e-21)
(1.24155e-06 6.69491e-07 -2.65594e-21)
(1.25319e-06 6.96156e-07 -2.75714e-21)
(1.17552e-06 3.43384e-07 -4.15119e-21)
(1.17182e-06 3.89691e-07 0)
(1.16872e-06 4.33761e-07 0)
(1.16706e-06 4.74302e-07 0)
(1.16724e-06 5.11328e-07 0)
(1.16939e-06 5.45293e-07 0)
(1.1735e-06 5.76697e-07 0)
(1.17948e-06 6.06041e-07 0)
(1.1872e-06 6.33735e-07 0)
(1.19648e-06 6.60168e-07 0)
(1.2079e-06 6.85664e-07 0)
(1.13912e-06 3.37709e-07 -4.25641e-21)
(1.13145e-06 3.85032e-07 0)
(1.12521e-06 4.28693e-07 0)
(1.1212e-06 4.68382e-07 0)
(1.11958e-06 5.04322e-07 0)
(1.1203e-06 5.37076e-07 0)
(1.12319e-06 5.67191e-07 0)
(1.12803e-06 5.95198e-07 0)
(1.13463e-06 6.21523e-07 0)
(1.14277e-06 6.4658e-07 0)
(1.15388e-06 6.70957e-07 0)
(1.10056e-06 3.28537e-07 -4.37728e-21)
(1.08808e-06 3.77404e-07 0)
(1.07809e-06 4.20501e-07 0)
(1.0711e-06 4.59025e-07 0)
(1.0671e-06 4.93529e-07 0)
(1.06586e-06 5.24764e-07 0)
(1.06706e-06 5.53335e-07 0)
(1.07038e-06 5.79801e-07 0)
(1.07557e-06 6.04598e-07 0)
(1.08231e-06 6.2815e-07 0)
(1.09311e-06 6.51441e-07 0)
(1.05913e-06 3.1671e-07 -4.60322e-21)
(1.04103e-06 3.66918e-07 0)
(1.02688e-06 4.09204e-07 0)
(1.01658e-06 4.46275e-07 0)
(1.0099e-06 4.79039e-07 0)
(1.00643e-06 5.08468e-07 0)
(1.00571e-06 5.3524e-07 0)
(1.00732e-06 5.59942e-07 0)
(1.01094e-06 5.83021e-07 0)
(1.01617e-06 6.049e-07 0)
(1.02668e-06 6.27106e-07 0)
(1.01446e-06 3.02797e-07 -5.0206e-21)
(9.90089e-07 3.53623e-07 0)
(9.71515e-07 3.94669e-07 0)
(9.57784e-07 4.29937e-07 0)
(9.48367e-07 4.6065e-07 0)
(9.42621e-07 4.87997e-07 0)
(9.39946e-07 5.12726e-07 0)
(9.39818e-07 5.35453e-07 0)
(9.4184e-07 5.56631e-07 0)
(9.45552e-07 5.76676e-07 0)
(9.55861e-07 5.9781e-07 0)
(9.6638e-07 2.87312e-07 -5.6872e-21)
(9.35368e-07 3.37642e-07 0)
(9.12288e-07 3.76859e-07 0)
(8.95163e-07 4.09929e-07 0)
(8.83086e-07 4.38294e-07 0)
(8.75155e-07 4.63321e-07 0)
(8.70611e-07 4.85804e-07 0)
(8.68824e-07 5.0638e-07 0)
(8.6933e-07 5.25504e-07 0)
(8.71604e-07 5.43575e-07 0)
(8.81821e-07 5.63661e-07 0)
(9.14881e-07 2.70674e-07 -6.61327e-21)
(8.77186e-07 3.19149e-07 0)
(8.4971e-07 3.5582e-07 0)
(8.29371e-07 3.8625e-07 0)
(8.14832e-07 4.11974e-07 0)
(8.04907e-07 4.34469e-07 0)
(7.9867e-07 4.54542e-07 0)
(7.95387e-07 4.72832e-07 0)
(7.94524e-07 4.89787e-07 0)
(7.95505e-07 5.05776e-07 0)
(8.05743e-07 5.24852e-07 0)
(8.60032e-07 2.5326e-07 -7.75499e-21)
(8.15996e-07 2.98406e-07 0)
(7.84446e-07 3.31749e-07 0)
(7.6121e-07 3.5908e-07 0)
(7.44501e-07 3.81886e-07 0)
(7.32849e-07 4.01673e-07 0)
(7.25157e-07 4.19217e-07 0)
(7.20594e-07 4.35135e-07 0)
(7.18549e-07 4.49848e-07 0)
(7.18421e-07 4.63684e-07 0)
(7.28789e-07 4.81775e-07 0)
(8.01968e-07 2.35396e-07 -9.01846e-21)
(7.52312e-07 2.75748e-07 0)
(7.17227e-07 3.04984e-07 0)
(6.91543e-07 3.2877e-07 0)
(6.73042e-07 3.48407e-07 0)
(6.59991e-07 3.6535e-07 0)
(6.51128e-07 3.80293e-07 0)
(6.45533e-07 3.93804e-07 0)
(6.42525e-07 4.06256e-07 0)
(6.41509e-07 4.17893e-07 0)
(6.52058e-07 4.34992e-07 0)
(1.20225e-06 3.56759e-07 -2.78123e-21)
(1.21081e-06 3.91256e-07 -1.53777e-21)
(1.20973e-06 4.35609e-07 -1.67789e-21)
(1.20899e-06 4.76759e-07 -1.81813e-21)
(1.20968e-06 5.14637e-07 -1.95821e-21)
(1.2122e-06 5.49627e-07 -2.09808e-21)
(1.2167e-06 5.8218e-07 -2.23776e-21)
(1.22316e-06 6.12757e-07 -2.37728e-21)
(1.2315e-06 6.4174e-07 -2.51666e-21)
(1.24155e-06 6.69491e-07 -2.65594e-21)
(1.25319e-06 6.96156e-07 -2.75714e-21)
(1.17552e-06 3.43384e-07 -4.15119e-21)
(1.17182e-06 3.89691e-07 0)
(1.16872e-06 4.33761e-07 0)
(1.16706e-06 4.74302e-07 0)
(1.16724e-06 5.11328e-07 0)
(1.16939e-06 5.45293e-07 0)
(1.1735e-06 5.76697e-07 0)
(1.17948e-06 6.06041e-07 0)
(1.1872e-06 6.33735e-07 0)
(1.19648e-06 6.60168e-07 0)
(1.2079e-06 6.85664e-07 0)
(1.13912e-06 3.37709e-07 -4.25641e-21)
(1.13145e-06 3.85032e-07 0)
(1.12521e-06 4.28693e-07 0)
(1.1212e-06 4.68382e-07 0)
(1.11958e-06 5.04322e-07 0)
(1.1203e-06 5.37076e-07 0)
(1.12319e-06 5.67191e-07 0)
(1.12803e-06 5.95198e-07 0)
(1.13463e-06 6.21523e-07 0)
(1.14277e-06 6.4658e-07 0)
(1.15388e-06 6.70957e-07 0)
(1.10056e-06 3.28537e-07 -4.37728e-21)
(1.08808e-06 3.77404e-07 0)
(1.07809e-06 4.20501e-07 0)
(1.0711e-06 4.59025e-07 0)
(1.0671e-06 4.93529e-07 0)
(1.06586e-06 5.24764e-07 0)
(1.06706e-06 5.53335e-07 0)
(1.07038e-06 5.79801e-07 0)
(1.07557e-06 6.04598e-07 0)
(1.08231e-06 6.2815e-07 0)
(1.09311e-06 6.51441e-07 0)
(1.05913e-06 3.1671e-07 -4.60322e-21)
(1.04103e-06 3.66918e-07 0)
(1.02688e-06 4.09204e-07 0)
(1.01658e-06 4.46275e-07 0)
(1.0099e-06 4.79039e-07 0)
(1.00643e-06 5.08468e-07 0)
(1.00571e-06 5.3524e-07 0)
(1.00732e-06 5.59942e-07 0)
(1.01094e-06 5.83021e-07 0)
(1.01617e-06 6.049e-07 0)
(1.02668e-06 6.27106e-07 0)
(1.01446e-06 3.02797e-07 -5.0206e-21)
(9.90089e-07 3.53623e-07 0)
(9.71515e-07 3.94669e-07 0)
(9.57784e-07 4.29937e-07 0)
(9.48367e-07 4.6065e-07 0)
(9.42621e-07 4.87997e-07 0)
(9.39946e-07 5.12726e-07 0)
(9.39818e-07 5.35453e-07 0)
(9.4184e-07 5.56631e-07 0)
(9.45552e-07 5.76676e-07 0)
(9.55861e-07 5.9781e-07 0)
(9.6638e-07 2.87312e-07 -5.6872e-21)
(9.35368e-07 3.37642e-07 0)
(9.12288e-07 3.76859e-07 0)
(8.95163e-07 4.09929e-07 0)
(8.83086e-07 4.38294e-07 0)
(8.75155e-07 4.63321e-07 0)
(8.70611e-07 4.85804e-07 0)
(8.68824e-07 5.0638e-07 0)
(8.6933e-07 5.25504e-07 0)
(8.71604e-07 5.43575e-07 0)
(8.81821e-07 5.63661e-07 0)
(9.14881e-07 2.70674e-07 -6.61327e-21)
(8.77186e-07 3.19149e-07 0)
(8.4971e-07 3.5582e-07 0)
(8.29371e-07 3.8625e-07 0)
(8.14832e-07 4.11974e-07 0)
(8.04907e-07 4.34469e-07 0)
(7.9867e-07 4.54542e-07 0)
(7.95387e-07 4.72832e-07 0)
(7.94524e-07 4.89787e-07 0)
(7.95505e-07 5.05776e-07 0)
(8.05743e-07 5.24852e-07 0)
(8.60032e-07 2.5326e-07 -7.75499e-21)
(8.15996e-07 2.98406e-07 0)
(7.84446e-07 3.31749e-07 0)
(7.6121e-07 3.5908e-07 0)
(7.44501e-07 3.81886e-07 0)
(7.32849e-07 4.01673e-07 0)
(7.25157e-07 4.19217e-07 0)
(7.20594e-07 4.35135e-07 0)
(7.18549e-07 4.49848e-07 0)
(7.18421e-07 4.63684e-07 0)
(7.28789e-07 4.81775e-07 0)
(8.01968e-07 2.35396e-07 -9.01846e-21)
(7.52312e-07 2.75748e-07 0)
(7.17227e-07 3.04984e-07 0)
(6.91543e-07 3.2877e-07 0)
(6.73042e-07 3.48407e-07 0)
(6.59991e-07 3.6535e-07 0)
(6.51128e-07 3.80293e-07 0)
(6.45533e-07 3.93804e-07 0)
(6.42525e-07 4.06256e-07 0)
(6.41509e-07 4.17893e-07 0)
(6.52058e-07 4.34992e-07 0)
(1.26643e-06 7.22066e-07 -2.78152e-21)
(1.28104e-06 7.47571e-07 -2.76715e-21)
(1.29679e-06 7.72693e-07 -2.7528e-21)
(1.31356e-06 7.97554e-07 -2.73847e-21)
(1.33126e-06 8.22255e-07 -2.72416e-21)
(1.34978e-06 8.46877e-07 -2.70988e-21)
(1.36903e-06 8.71492e-07 -2.69562e-21)
(1.38893e-06 8.96157e-07 -2.68139e-21)
(1.4094e-06 9.20923e-07 -2.66718e-21)
(1.43038e-06 9.45831e-07 -2.653e-21)
(1.4518e-06 9.70917e-07 -2.63885e-21)
(1.4736e-06 9.96212e-07 -2.62472e-21)
(1.49574e-06 1.02174e-06 -2.61063e-21)
(1.51814e-06 1.04752e-06 -2.59656e-21)
(1.54076e-06 1.07356e-06 -2.58252e-21)
(1.56354e-06 1.09986e-06 -2.56853e-21)
(1.58641e-06 1.12641e-06 -2.55457e-21)
(1.60932e-06 1.15319e-06 -2.54066e-21)
(1.63217e-06 1.18012e-06 -2.52682e-21)
(1.63974e-06 1.19689e-06 4.7232e-22)
(1.22203e-06 7.10793e-07 0)
(1.23788e-06 7.35757e-07 0)
(1.25465e-06 7.60391e-07 0)
(1.27226e-06 7.84824e-07 0)
(1.29063e-06 8.09154e-07 0)
(1.30968e-06 8.33458e-07 0)
(1.32935e-06 8.57804e-07 0)
(1.34956e-06 8.82246e-07 0)
(1.37027e-06 9.06831e-07 0)
(1.39142e-06 9.31598e-07 0)
(1.41296e-06 9.56581e-07 0)
(1.43484e-06 9.81807e-07 0)
(1.45702e-06 1.0073e-06 0)
(1.47945e-06 1.03308e-06 0)
(1.50208e-06 1.05915e-06 0)
(1.52488e-06 1.08551e-06 0)
(1.5478e-06 1.11217e-06 0)
(1.57081e-06 1.13907e-06 0)
(1.59385e-06 1.16616e-06 0)
(1.6168e-06 1.1933e-06 3.48791e-21)
(1.16937e-06 6.95576e-07 0)
(1.18715e-06 7.2036e-07 0)
(1.20559e-06 7.44832e-07 0)
(1.22464e-06 7.69131e-07 0)
(1.24424e-06 7.93358e-07 0)
(1.26436e-06 8.17587e-07 0)
(1.28494e-06 8.41888e-07 0)
(1.30594e-06 8.66314e-07 0)
(1.32734e-06 8.90913e-07 0)
(1.34908e-06 9.15722e-07 0)
(1.37114e-06 9.40774e-07 0)
(1.39349e-06 9.66097e-07 0)
(1.41608e-06 9.91715e-07 0)
(1.4389e-06 1.01764e-06 0)
(1.46191e-06 1.0439e-06 0)
(1.48508e-06 1.07048e-06 0)
(1.50838e-06 1.09738e-06 0)
(1.53177e-06 1.12457e-06 0)
(1.55523e-06 1.15202e-06 0)
(1.5785e-06 1.17958e-06 3.51904e-21)
(1.11029e-06 6.75856e-07 0)
(1.13047e-06 7.0087e-07 0)
(1.15104e-06 7.25567e-07 0)
(1.17196e-06 7.5008e-07 0)
(1.19323e-06 7.74521e-07 0)
(1.21481e-06 7.98964e-07 0)
(1.23669e-06 8.23486e-07 0)
(1.25885e-06 8.48139e-07 0)
(1.28127e-06 8.72975e-07 0)
(1.30394e-06 8.98032e-07 0)
(1.32683e-06 9.23345e-07 0)
(1.34994e-06 9.48944e-07 0)
(1.37324e-06 9.74854e-07 0)
(1.39671e-06 1.0011e-06 0)
(1.42035e-06 1.02768e-06 0)
(1.44412e-06 1.05463e-06 0)
(1.46802e-06 1.08194e-06 0)
(1.492e-06 1.1096e-06 0)
(1.51604e-06 1.1376e-06 0)
(1.5398e-06 1.16583e-06 3.57813e-21)
(1.04585e-06 6.51599e-07 0)
(1.0688e-06 6.77232e-07 0)
(1.09188e-06 7.0252e-07 0)
(1.11504e-06 7.27583e-07 0)
(1.13831e-06 7.5255e-07 0)
(1.16169e-06 7.77493e-07 0)
(1.18518e-06 8.02497e-07 0)
(1.2088e-06 8.27619e-07 0)
(1.23254e-06 8.52915e-07 0)
(1.2564e-06 8.78428e-07 0)
(1.28038e-06 9.04196e-07 0)
(1.30449e-06 9.30254e-07 0)
(1.32872e-06 9.56628e-07 0)
(1.35307e-06 9.83346e-07 0)
(1.37753e-06 1.01043e-06 0)
(1.4021e-06 1.0379e-06 0)
(1.42675e-06 1.06576e-06 0)
(1.45148e-06 1.09405e-06 0)
(1.47625e-06 1.12277e-06 0)
(1.50066e-06 1.15185e-06 3.66447e-21)
(9.77229e-07 6.22678e-07 0)
(1.00324e-06 6.49328e-07 0)
(1.02911e-06 6.75588e-07 0)
(1.05477e-06 7.01547e-07 0)
(1.08032e-06 7.2736e-07 0)
(1.10575e-06 7.53098e-07 0)
(1.1311e-06 7.78857e-07 0)
(1.15641e-06 8.047e-07 0)
(1.18168e-06 8.30689e-07 0)
(1.20695e-06 8.56874e-07 0)
(1.23222e-06 8.83298e-07 0)
(1.25752e-06 9.1e-07 0)
(1.28285e-06 9.37015e-07 0)
(1.30823e-06 9.64373e-07 0)
(1.33367e-06 9.92106e-07 0)
(1.35916e-06 1.02024e-06 0)
(1.38471e-06 1.04882e-06 0)
(1.41031e-06 1.07787e-06 0)
(1.43592e-06 1.10743e-06 0)
(1.46113e-06 1.13748e-06 3.7768e-21)
(9.05544e-07 5.89196e-07 0)
(9.3481e-07 6.17246e-07 0)
(9.63658e-07 6.44844e-07 0)
(9.92016e-07 6.72034e-07 0)
(1.02002e-06 6.99003e-07 0)
(1.04769e-06 7.25822e-07 0)
(1.07509e-06 7.52602e-07 0)
(1.10225e-06 7.79411e-07 0)
(1.12923e-06 8.06323e-07 0)
(1.15606e-06 8.33392e-07 0)
(1.18277e-06 8.60671e-07 0)
(1.2094e-06 8.88204e-07 0)
(1.23597e-06 9.16032e-07 0)
(1.2625e-06 9.44194e-07 0)
(1.28902e-06 9.72728e-07 0)
(1.31555e-06 1.00168e-06 0)
(1.34208e-06 1.03108e-06 0)
(1.36863e-06 1.06101e-06 0)
(1.39519e-06 1.09152e-06 0)
(1.42132e-06 1.12261e-06 3.9135e-21)
(8.3189e-07 5.5134e-07 0)
(8.64487e-07 5.81145e-07 0)
(8.96417e-07 6.10421e-07 0)
(9.2758e-07 6.39162e-07 0)
(9.58168e-07 6.67584e-07 0)
(9.88193e-07 6.95765e-07 0)
(1.01776e-06 7.23823e-07 0)
(1.04691e-06 7.51841e-07 0)
(1.07571e-06 7.79899e-07 0)
(1.10422e-06 8.08062e-07 0)
(1.13248e-06 8.36391e-07 0)
(1.16054e-06 8.64935e-07 0)
(1.18843e-06 8.93745e-07 0)
(1.21621e-06 9.22865e-07 0)
(1.24389e-06 9.52342e-07 0)
(1.27151e-06 9.82228e-07 0)
(1.29909e-06 1.01258e-06 0)
(1.32666e-06 1.04348e-06 0)
(1.35422e-06 1.075e-06 0)
(1.38138e-06 1.10718e-06 4.07259e-21)
(7.57349e-07 5.09464e-07 0)
(7.93243e-07 5.41344e-07 0)
(8.28265e-07 5.72588e-07 0)
(8.6227e-07 6.03169e-07 0)
(8.95483e-07 6.33302e-07 0)
(9.27929e-07 6.63092e-07 0)
(9.59724e-07 6.92662e-07 0)
(9.90932e-07 7.2211e-07 0)
(1.02163e-06 7.51525e-07 0)
(1.05189e-06 7.80981e-07 0)
(1.08176e-06 8.10546e-07 0)
(1.11132e-06 8.40278e-07 0)
(1.1406e-06 8.70233e-07 0)
(1.16966e-06 9.00462e-07 0)
(1.19856e-06 9.31019e-07 0)
(1.22732e-06 9.61962e-07 0)
(1.25599e-06 9.93359e-07 0)
(1.28461e-06 1.0253e-06 0)
(1.31321e-06 1.05788e-06 0)
(1.34149e-06 1.09116e-06 4.25192e-21)
(6.82889e-07 4.64073e-07 0)
(7.2191e-07 4.98257e-07 0)
(7.59905e-07 5.31678e-07 0)
(7.96724e-07 5.6435e-07 0)
(8.32558e-07 5.96434e-07 0)
(8.67452e-07 6.28062e-07 0)
(9.01513e-07 6.59359e-07 0)
(9.34819e-07 6.90438e-07 0)
(9.67456e-07 7.21399e-07 0)
(9.99502e-07 7.52327e-07 0)
(1.03103e-06 7.83297e-07 0)
(1.06211e-06 8.14376e-07 0)
(1.09282e-06 8.45624e-07 0)
(1.1232e-06 8.771e-07 0)
(1.15332e-06 9.08859e-07 0)
(1.18324e-06 9.40967e-07 0)
(1.21302e-06 9.73493e-07 0)
(1.2427e-06 1.00653e-06 0)
(1.27235e-06 1.04019e-06 0)
(1.30182e-06 1.07458e-06 4.449e-21)
(6.16787e-07 4.22773e-07 0)
(6.58138e-07 4.5894e-07 0)
(6.98354e-07 4.94137e-07 0)
(7.37354e-07 5.28579e-07 0)
(7.75254e-07 5.62359e-07 0)
(8.12111e-07 5.95614e-07 0)
(8.48011e-07 6.28463e-07 0)
(8.83033e-07 6.61018e-07 0)
(9.17264e-07 6.93382e-07 0)
(9.50784e-07 7.25643e-07 0)
(9.83675e-07 7.57882e-07 0)
(1.01601e-06 7.90166e-07 0)
(1.04787e-06 8.22559e-07 0)
(1.07933e-06 8.55121e-07 0)
(1.11044e-06 8.87907e-07 0)
(1.14129e-06 9.20982e-07 0)
(1.17193e-06 9.54414e-07 0)
(1.20245e-06 9.88294e-07 0)
(1.23292e-06 1.02272e-06 0)
(1.26336e-06 1.05786e-06 4.61355e-21)
(1.26643e-06 7.22066e-07 -2.78152e-21)
(1.28104e-06 7.47571e-07 -2.76715e-21)
(1.29679e-06 7.72693e-07 -2.7528e-21)
(1.31356e-06 7.97554e-07 -2.73847e-21)
(1.33126e-06 8.22255e-07 -2.72416e-21)
(1.34978e-06 8.46877e-07 -2.70988e-21)
(1.36903e-06 8.71492e-07 -2.69562e-21)
(1.38893e-06 8.96157e-07 -2.68139e-21)
(1.4094e-06 9.20923e-07 -2.66718e-21)
(1.43038e-06 9.45831e-07 -2.653e-21)
(1.4518e-06 9.70917e-07 -2.63885e-21)
(1.4736e-06 9.96212e-07 -2.62472e-21)
(1.49574e-06 1.02174e-06 -2.61063e-21)
(1.51814e-06 1.04752e-06 -2.59656e-21)
(1.54076e-06 1.07356e-06 -2.58252e-21)
(1.56354e-06 1.09986e-06 -2.56853e-21)
(1.58641e-06 1.12641e-06 -2.55457e-21)
(1.60932e-06 1.15319e-06 -2.54066e-21)
(1.63217e-06 1.18012e-06 -2.52682e-21)
(1.63974e-06 1.19689e-06 4.7232e-22)
(1.22203e-06 7.10793e-07 0)
(1.23788e-06 7.35757e-07 0)
(1.25465e-06 7.60391e-07 0)
(1.27226e-06 7.84824e-07 0)
(1.29063e-06 8.09154e-07 0)
(1.30968e-06 8.33458e-07 0)
(1.32935e-06 8.57804e-07 0)
(1.34956e-06 8.82246e-07 0)
(1.37027e-06 9.06831e-07 0)
(1.39142e-06 9.31598e-07 0)
(1.41296e-06 9.56581e-07 0)
(1.43484e-06 9.81807e-07 0)
(1.45702e-06 1.0073e-06 0)
(1.47945e-06 1.03308e-06 0)
(1.50208e-06 1.05915e-06 0)
(1.52488e-06 1.08551e-06 0)
(1.5478e-06 1.11217e-06 0)
(1.57081e-06 1.13907e-06 0)
(1.59385e-06 1.16616e-06 0)
(1.6168e-06 1.1933e-06 3.48791e-21)
(1.16937e-06 6.95576e-07 0)
(1.18715e-06 7.2036e-07 0)
(1.20559e-06 7.44832e-07 0)
(1.22464e-06 7.69131e-07 0)
(1.24424e-06 7.93358e-07 0)
(1.26436e-06 8.17587e-07 0)
(1.28494e-06 8.41888e-07 0)
(1.30594e-06 8.66314e-07 0)
(1.32734e-06 8.90913e-07 0)
(1.34908e-06 9.15722e-07 0)
(1.37114e-06 9.40774e-07 0)
(1.39349e-06 9.66097e-07 0)
(1.41608e-06 9.91715e-07 0)
(1.4389e-06 1.01764e-06 0)
(1.46191e-06 1.0439e-06 0)
(1.48508e-06 1.07048e-06 0)
(1.50838e-06 1.09738e-06 0)
(1.53177e-06 1.12457e-06 0)
(1.55523e-06 1.15202e-06 0)
(1.5785e-06 1.17958e-06 3.51904e-21)
(1.11029e-06 6.75856e-07 0)
(1.13047e-06 7.0087e-07 0)
(1.15104e-06 7.25567e-07 0)
(1.17196e-06 7.5008e-07 0)
(1.19323e-06 7.74521e-07 0)
(1.21481e-06 7.98964e-07 0)
(1.23669e-06 8.23486e-07 0)
(1.25885e-06 8.48139e-07 0)
(1.28127e-06 8.72975e-07 0)
(1.30394e-06 8.98032e-07 0)
(1.32683e-06 9.23345e-07 0)
(1.34994e-06 9.48944e-07 0)
(1.37324e-06 9.74854e-07 0)
(1.39671e-06 1.0011e-06 0)
(1.42035e-06 1.02768e-06 0)
(1.44412e-06 1.05463e-06 0)
(1.46802e-06 1.08194e-06 0)
(1.492e-06 1.1096e-06 0)
(1.51604e-06 1.1376e-06 0)
(1.5398e-06 1.16583e-06 3.57813e-21)
(1.04585e-06 6.51599e-07 0)
(1.0688e-06 6.77232e-07 0)
(1.09188e-06 7.0252e-07 0)
(1.11504e-06 7.27583e-07 0)
(1.13831e-06 7.5255e-07 0)
(1.16169e-06 7.77493e-07 0)
(1.18518e-06 8.02497e-07 0)
(1.2088e-06 8.27619e-07 0)
(1.23254e-06 8.52915e-07 0)
(1.2564e-06 8.78428e-07 0)
(1.28038e-06 9.04196e-07 0)
(1.30449e-06 9.30254e-07 0)
(1.32872e-06 9.56628e-07 0)
(1.35307e-06 9.83346e-07 0)
(1.37753e-06 1.01043e-06 0)
(1.4021e-06 1.0379e-06 0)
(1.42675e-06 1.06576e-06 0)
(1.45148e-06 1.09405e-06 0)
(1.47625e-06 1.12277e-06 0)
(1.50066e-06 1.15185e-06 3.66447e-21)
(9.77229e-07 6.22678e-07 0)
(1.00324e-06 6.49328e-07 0)
(1.02911e-06 6.75588e-07 0)
(1.05477e-06 7.01547e-07 0)
(1.08032e-06 7.2736e-07 0)
(1.10575e-06 7.53098e-07 0)
(1.1311e-06 7.78857e-07 0)
(1.15641e-06 8.047e-07 0)
(1.18168e-06 8.30689e-07 0)
(1.20695e-06 8.56874e-07 0)
(1.23222e-06 8.83298e-07 0)
(1.25752e-06 9.1e-07 0)
(1.28285e-06 9.37015e-07 0)
(1.30823e-06 9.64373e-07 0)
(1.33367e-06 9.92106e-07 0)
(1.35916e-06 1.02024e-06 0)
(1.38471e-06 1.04882e-06 0)
(1.41031e-06 1.07787e-06 0)
(1.43592e-06 1.10743e-06 0)
(1.46113e-06 1.13748e-06 3.7768e-21)
(9.05544e-07 5.89196e-07 0)
(9.3481e-07 6.17246e-07 0)
(9.63658e-07 6.44844e-07 0)
(9.92016e-07 6.72034e-07 0)
(1.02002e-06 6.99003e-07 0)
(1.04769e-06 7.25822e-07 0)
(1.07509e-06 7.52602e-07 0)
(1.10225e-06 7.79411e-07 0)
(1.12923e-06 8.06323e-07 0)
(1.15606e-06 8.33392e-07 0)
(1.18277e-06 8.60671e-07 0)
(1.2094e-06 8.88204e-07 0)
(1.23597e-06 9.16032e-07 0)
(1.2625e-06 9.44194e-07 0)
(1.28902e-06 9.72728e-07 0)
(1.31555e-06 1.00168e-06 0)
(1.34208e-06 1.03108e-06 0)
(1.36863e-06 1.06101e-06 0)
(1.39519e-06 1.09152e-06 0)
(1.42132e-06 1.12261e-06 3.9135e-21)
(8.3189e-07 5.5134e-07 0)
(8.64487e-07 5.81145e-07 0)
(8.96417e-07 6.10421e-07 0)
(9.2758e-07 6.39162e-07 0)
(9.58168e-07 6.67584e-07 0)
(9.88193e-07 6.95765e-07 0)
(1.01776e-06 7.23823e-07 0)
(1.04691e-06 7.51841e-07 0)
(1.07571e-06 7.79899e-07 0)
(1.10422e-06 8.08062e-07 0)
(1.13248e-06 8.36391e-07 0)
(1.16054e-06 8.64935e-07 0)
(1.18843e-06 8.93745e-07 0)
(1.21621e-06 9.22865e-07 0)
(1.24389e-06 9.52342e-07 0)
(1.27151e-06 9.82228e-07 0)
(1.29909e-06 1.01258e-06 0)
(1.32666e-06 1.04348e-06 0)
(1.35422e-06 1.075e-06 0)
(1.38138e-06 1.10718e-06 4.07259e-21)
(7.57349e-07 5.09464e-07 0)
(7.93243e-07 5.41344e-07 0)
(8.28265e-07 5.72588e-07 0)
(8.6227e-07 6.03169e-07 0)
(8.95483e-07 6.33302e-07 0)
(9.27929e-07 6.63092e-07 0)
(9.59724e-07 6.92662e-07 0)
(9.90932e-07 7.2211e-07 0)
(1.02163e-06 7.51525e-07 0)
(1.05189e-06 7.80981e-07 0)
(1.08176e-06 8.10546e-07 0)
(1.11132e-06 8.40278e-07 0)
(1.1406e-06 8.70233e-07 0)
(1.16966e-06 9.00462e-07 0)
(1.19856e-06 9.31019e-07 0)
(1.22732e-06 9.61962e-07 0)
(1.25599e-06 9.93359e-07 0)
(1.28461e-06 1.0253e-06 0)
(1.31321e-06 1.05788e-06 0)
(1.34149e-06 1.09116e-06 4.25192e-21)
(6.82889e-07 4.64073e-07 0)
(7.2191e-07 4.98257e-07 0)
(7.59905e-07 5.31678e-07 0)
(7.96724e-07 5.6435e-07 0)
(8.32558e-07 5.96434e-07 0)
(8.67452e-07 6.28062e-07 0)
(9.01513e-07 6.59359e-07 0)
(9.34819e-07 6.90438e-07 0)
(9.67456e-07 7.21399e-07 0)
(9.99502e-07 7.52327e-07 0)
(1.03103e-06 7.83297e-07 0)
(1.06211e-06 8.14376e-07 0)
(1.09282e-06 8.45624e-07 0)
(1.1232e-06 8.771e-07 0)
(1.15332e-06 9.08859e-07 0)
(1.18324e-06 9.40967e-07 0)
(1.21302e-06 9.73493e-07 0)
(1.2427e-06 1.00653e-06 0)
(1.27235e-06 1.04019e-06 0)
(1.30182e-06 1.07458e-06 4.449e-21)
(6.16787e-07 4.22773e-07 0)
(6.58138e-07 4.5894e-07 0)
(6.98354e-07 4.94137e-07 0)
(7.37354e-07 5.28579e-07 0)
(7.75254e-07 5.62359e-07 0)
(8.12111e-07 5.95614e-07 0)
(8.48011e-07 6.28463e-07 0)
(8.83033e-07 6.61018e-07 0)
(9.17264e-07 6.93382e-07 0)
(9.50784e-07 7.25643e-07 0)
(9.83675e-07 7.57882e-07 0)
(1.01601e-06 7.90166e-07 0)
(1.04787e-06 8.22559e-07 0)
(1.07933e-06 8.55121e-07 0)
(1.11044e-06 8.87907e-07 0)
(1.14129e-06 9.20982e-07 0)
(1.17193e-06 9.54414e-07 0)
(1.20245e-06 9.88294e-07 0)
(1.23292e-06 1.02272e-06 0)
(1.26336e-06 1.05786e-06 4.61355e-21)
(5.18861e-07 3.53805e-07 0)
(5.68656e-07 3.94441e-07 0)
(6.10808e-07 4.31446e-07 0)
(6.51812e-07 4.67443e-07 0)
(6.91653e-07 5.0275e-07 0)
(7.304e-07 5.37427e-07 0)
(7.68097e-07 5.7159e-07 0)
(8.04817e-07 6.05338e-07 0)
(8.40626e-07 6.3877e-07 0)
(8.75601e-07 6.71973e-07 0)
(9.09818e-07 7.0503e-07 0)
(9.43354e-07 7.38013e-07 0)
(9.76285e-07 7.70985e-07 0)
(1.00868e-06 8.04005e-07 0)
(1.04063e-06 8.37128e-07 0)
(1.07218e-06 8.70406e-07 0)
(1.10343e-06 9.03894e-07 0)
(1.13445e-06 9.37653e-07 0)
(1.16531e-06 9.71761e-07 0)
(1.19612e-06 1.00629e-06 0)
(1.22697e-06 1.04142e-06 4.68347e-21)
(4.83588e-07 3.33066e-07 0)
(5.31742e-07 3.73183e-07 0)
(5.736e-07 4.10258e-07 0)
(6.14457e-07 4.46516e-07 0)
(6.54263e-07 4.82196e-07 0)
(6.93064e-07 5.17329e-07 0)
(7.30878e-07 5.51995e-07 0)
(7.67758e-07 5.86272e-07 0)
(8.03754e-07 6.20234e-07 0)
(8.3893e-07 6.53956e-07 0)
(8.73349e-07 6.87503e-07 0)
(9.07081e-07 7.20937e-07 0)
(9.40194e-07 7.54312e-07 0)
(9.72759e-07 7.87678e-07 0)
(1.00485e-06 8.21081e-07 0)
(1.03653e-06 8.54565e-07 0)
(1.06789e-06 8.88177e-07 0)
(1.099e-06 9.21964e-07 0)
(1.12994e-06 9.55984e-07 0)
(1.16084e-06 9.90292e-07 0)
(1.19178e-06 1.02501e-06 4.69737e-21)
(4.52276e-07 3.13092e-07 0)
(4.98648e-07 3.52663e-07 0)
(5.39772e-07 3.89652e-07 0)
(5.8011e-07 4.26024e-07 0)
(6.19539e-07 4.61957e-07 0)
(6.58087e-07 4.97443e-07 0)
(6.95741e-07 5.32531e-07 0)
(7.32535e-07 5.67272e-07 0)
(7.68499e-07 6.01716e-07 0)
(8.03683e-07 6.35918e-07 0)
(8.38137e-07 6.69929e-07 0)
(8.71921e-07 7.03795e-07 0)
(9.05095e-07 7.3756e-07 0)
(9.37725e-07 7.71263e-07 0)
(9.69876e-07 8.04941e-07 0)
(1.00162e-06 8.38628e-07 0)
(1.03303e-06 8.72356e-07 0)
(1.06419e-06 9.0616e-07 0)
(1.09518e-06 9.40075e-07 0)
(1.12613e-06 9.7413e-07 0)
(1.15713e-06 1.00839e-06 4.70663e-21)
(4.24351e-07 2.94044e-07 0)
(4.68831e-07 3.32937e-07 0)
(5.08964e-07 3.69699e-07 0)
(5.48509e-07 4.06065e-07 0)
(5.87297e-07 4.42146e-07 0)
(6.25344e-07 4.77896e-07 0)
(6.62606e-07 5.13329e-07 0)
(6.99102e-07 5.48468e-07 0)
(7.34842e-07 5.83339e-07 0)
(7.69861e-07 6.17977e-07 0)
(8.04198e-07 6.52415e-07 0)
(8.37901e-07 6.86685e-07 0)
(8.71023e-07 7.20818e-07 0)
(9.03619e-07 7.54842e-07 0)
(9.35753e-07 7.88782e-07 0)
(9.67489e-07 8.22659e-07 0)
(9.98898e-07 8.56494e-07 0)
(1.03006e-06 8.90303e-07 0)
(1.06107e-06 9.24098e-07 0)
(1.09205e-06 9.57881e-07 0)
(1.12307e-06 9.91666e-07 4.71089e-21)
(3.99329e-07 2.7598e-07 0)
(4.41876e-07 3.14127e-07 0)
(4.80826e-07 3.50553e-07 0)
(5.1937e-07 3.86803e-07 0)
(5.57314e-07 4.22926e-07 0)
(5.94657e-07 4.58842e-07 0)
(6.31336e-07 4.94535e-07 0)
(6.67352e-07 5.29996e-07 0)
(7.02702e-07 5.6523e-07 0)
(7.37407e-07 6.00249e-07 0)
(7.71492e-07 6.35068e-07 0)
(8.04995e-07 6.69704e-07 0)
(8.3796e-07 7.04174e-07 0)
(8.70436e-07 7.38494e-07 0)
(9.02477e-07 7.72675e-07 0)
(9.34144e-07 8.06727e-07 0)
(9.65503e-07 8.40655e-07 0)
(9.96629e-07 8.74459e-07 0)
(1.02761e-06 9.08121e-07 0)
(1.05857e-06 9.41631e-07 0)
(1.08958e-06 9.74954e-07 4.70982e-21)
(3.76713e-07 2.58903e-07 0)
(4.1734e-07 2.96247e-07 0)
(4.54985e-07 3.32251e-07 0)
(4.92386e-07 3.68294e-07 0)
(5.29332e-07 4.0437e-07 0)
(5.65816e-07 4.40367e-07 0)
(6.01758e-07 4.7624e-07 0)
(6.37148e-07 5.11952e-07 0)
(6.71969e-07 5.47484e-07 0)
(7.0623e-07 5.82826e-07 0)
(7.39946e-07 6.17976e-07 0)
(7.73145e-07 6.52935e-07 0)
(8.05861e-07 6.87704e-07 0)
(8.38137e-07 7.22288e-07 0)
(8.70019e-07 7.56685e-07 0)
(9.01562e-07 7.90892e-07 0)