/*--------------------------------*- C++ -*----------------------------------*\
  =========                 |
  \\      /  F ield         | OpenFOAM: The Open Source CFD Toolbox
   \\    /   O peration     | Website:  https://openfoam.org
    \\  /    A nd           | Version:  9
     \\/     M anipulation  |
\*---------------------------------------------------------------------------*/
FoamFile
{
    format      ascii;
    class       volSymmTensorField;
    location    "1";
    object      sigma;
}
// * * * * * * * * * * * * * * * * * * * * * * * * * * * * * * * * * * * * * //

dimensions      [1 -1 -2 0 0 0 0];

internalField   nonuniform List<symmTensor> 
1000
(
(122992 -84178 -7.83842e-11 71458.8 -7.65731e-11 19543.4)
(144269 -64923.5 -6.96915e-11 39031.4 -6.30066e-11 19246.2)
(154962 -49730.1 -6.16723e-11 23751.4 -5.24853e-11 19211.2)
(159485 -38272.9 -5.58694e-11 11740.7 -4.45473e-11 18808.4)
(161141 -29057.7 -5.09263e-11 4721.26 -3.82102e-11 18495.2)
(160467 -21854.9 -4.71243e-11 -518.683 -3.32633e-11 18080.5)
(158847 -16001.3 -4.39617e-11 -3892.57 -2.92595e-11 17708)
(156349 -11347.5 -4.14734e-11 -6333.06 -2.60817e-11 17314.2)
(153775 -7479.07 -3.93693e-11 -7937.3 -2.34482e-11 16971.4)
(150368 -4261.21 -3.77108e-11 -9475.29 -2.12556e-11 16549.4)
(155947 -93588.2 -8.26477e-11 72090.5 -8.28929e-11 22687.3)
(169980 -67011.3 -6.94489e-11 41147.8 -6.44222e-11 21857.9)
(175712 -47821.9 -5.89417e-11 27236.5 -5.12353e-11 21478.4)
(176255 -34033.9 -5.17663e-11 15844.5 -4.17402e-11 20756.6)
(174839 -23521.5 -4.60725e-11 9367.93 -3.45409e-11 20198.9)
(171646 -15659.2 -4.19448e-11 4345.73 -2.91557e-11 19563.8)
(167974 -9520.12 -3.86818e-11 1123.64 -2.49646e-11 19007.9)
(163778 -4853.76 -3.62842e-11 -1423.62 -2.17785e-11 18443.3)
(159622 -1071.41 -3.43047e-11 -2972.34 -1.92057e-11 17952.6)
(155032 1954.68 -3.29053e-11 -5070.84 -1.71339e-11 17373.3)
(191436 -99531.2 -8.505e-11 69428 -8.68151e-11 25847)
(196171 -66926.3 -6.79369e-11 42309.8 -6.43551e-11 24457.6)
(195824 -44513.5 -5.5307e-11 31037.5 -4.90468e-11 23717.6)
(191700 -28899.8 -4.70079e-11 21016.5 -3.83491e-11 22665.1)
(186806 -17469.7 -4.0762e-11 15532.9 -3.05521e-11 21855.6)
(180854 -9233.33 -3.64642e-11 10998.2 -2.49262e-11 20995.5)
(175015 -3046.04 -3.32305e-11 8102.32 -2.07103e-11 20257.1)
(169042 1472.92 -3.10109e-11 5581.6 -1.76263e-11 19523.2)
(163441 4986.25 -2.92645e-11 4096.98 -1.52376e-11 18897)
(157612 7841.42 -2.80828e-11 1662.6 -1.32766e-11 18172.3)
(228317 -101158 -8.50333e-11 63990.1 -8.77773e-11 28957.9)
(222255 -64405.2 -6.49994e-11 42645.2 -6.26314e-11 27000.5)
(214987 -39857.9 -5.08249e-11 35110.8 -4.59553e-11 25895.7)
(205641 -23121 -4.17836e-11 27108.5 -3.45411e-11 24503.6)
(196936 -11274.2 -3.52701e-11 22978.3 -2.64906e-11 23434.6)
(188055 -3014.77 -3.10071e-11 19111.6 -2.08638e-11 22344.7)
(179971 2958.03 -2.79668e-11 16591.5 -1.68014e-11 21418.3)
(172261 7163.48 -2.60244e-11 14127.5 -1.39316e-11 20520)
(165267 10265.3 -2.46138e-11 12603.7 -1.18213e-11 19754.5)
(158416 12789.9 -2.37181e-11 9989.61 -1.00817e-11 18915.8)
(264928 -97709.4 -8.21031e-11 56442.6 -8.52806e-11 31916.8)
(247465 -59103.2 -6.043e-11 42323.9 -5.90215e-11 29428.4)
(232758 -33782.6 -4.54727e-11 39438.7 -4.19124e-11 27969.3)
(217826 -16821.8 -3.62016e-11 34000.5 -3.03974e-11 26238.3)
(205105 -5209.63 -2.98012e-11 31522.5 -2.2538e-11 24908.3)
(193225 2613.65 -2.585e-11 28460.1 -1.72227e-11 23589.1)
(182924 8039.47 -2.32096e-11 26341.3 -1.35386e-11 22477)
(173557 11703.5 -2.16859e-11 23926.2 -1.10366e-11 21420)
(165316 14228.6 -2.07241e-11 22263.2 -9.31441e-12 20520.4)
(157572 16285.8 -2.01945e-11 19470.8 -7.88788e-12 19579.6)
(300451 -88995.5 -7.60121e-11 47968.6 -7.92184e-11 34736.2)
(271445 -50795.6 -5.4022e-11 41930.2 -5.33853e-11 31753.1)
(249025 -26200.1 -3.91516e-11 44373.8 -3.68653e-11 29954.9)
(228237 -10120.8 -3.03244e-11 41794.6 -2.60003e-11 27874)
(211378 462.482 -2.45332e-11 41073.2 -1.88697e-11 26274.1)
(196516 7302.19 -2.12445e-11 38786.6 -1.42347e-11 24721.5)
(184097 11817.8 -1.92446e-11 36973.5 -1.1172e-11 23423.4)
(173220 14708.8 -1.82917e-11 34521.8 -9.19257e-12 22213.7)
(163893 16521.9 -1.78732e-11 32594.3 -7.94729e-12 21185.2)
(155419 18001.5 -1.77751e-11 29602.1 -6.90745e-12 20155.1)
(332658 -74460.7 -6.63837e-11 39499.9 -6.92341e-11 37277.3)
(293061 -38862.5 -4.53461e-11 42104.4 -4.53163e-11 33918.7)
(262755 -16883.7 -3.17017e-11 50379.5 -3.06701e-11 31790.5)
(236102 -3088.94 -2.42131e-11 50643.9 -2.14014e-11 29348.2)
(215285 5480.44 -1.96791e-11 51466 -1.56601e-11 27472.8)
(197728 10695.3 -1.74827e-11 49692.8 -1.21322e-11 25689.9)
(183503 13921.7 -1.63844e-11 47931.3 -9.94222e-12 24214)
(171405 15826 -1.61494e-11 45260.8 -8.62556e-12 22863.9)
(161252 16842.6 -1.63381e-11 42910.9 -7.91102e-12 21718.8)
(152238 17687.8 -1.67062e-11 39659.4 -7.2953e-12 20613)
(363716 -54058.7 -5.27205e-11 33599 -5.53387e-11 39942.9)
(312542 -22690.8 -3.36696e-11 45189.8 -3.44412e-11 36129.5)
(273942 -5690.6 -2.27756e-11 59271.2 -2.32616e-11 33614.3)
(241607 3877.59 -1.79792e-11 61477.3 -1.68834e-11 30746.7)
(217197 9308.76 -1.5526e-11 62935.7 -1.3273e-11 28554.1)
(197432 12299.8 -1.48802e-11 60960.9 -1.1244e-11 26529.3)
(181833 13988.5 -1.48957e-11 58714.1 -1.00842e-11 24874.4)
(168886 14839.9 -1.54495e-11 55501.3 -9.4695e-12 23394.6)
(158202 15117.3 -1.62224e-11 52528.2 -9.24337e-12 22146.2)
(148862 15385.7 -1.7021e-11 48945.3 -9.01132e-12 20980.2)
(389606 -25252.6 -3.31595e-11 33423.3 -3.58798e-11 42604.9)
(325753 -2228.98 -1.8581e-11 55294.9 -2.08004e-11 38301.9)
(278525 5872.54 -1.32312e-11 73172.8 -1.56971e-11 35188.7)
(241794 8905.04 -1.28897e-11 74781.7 -1.37213e-11 31810.2)
(215469 10425.6 -1.32164e-11 74828.4 -1.27262e-11 29300.5)
(194812 10944.6 -1.4388e-11 71433.4 -1.2341e-11 27065.5)
(178804 11199.5 -1.55059e-11 67974.7 -1.21277e-11 25269.6)
(165649 11196.3 -1.6738e-11 63878.6 -1.20743e-11 23697)
(154852 11000.1 -1.79231e-11 60159.9 -1.2155e-11 22377.8)
(145434 10899.7 -1.90077e-11 56233.9 -1.21657e-11 21175.7)
(423449 22712.1 2.52525e-12 58337.1 -3.92245e-12 48066.3)
(331730 25401 3.74284e-12 86831.5 -2.70194e-12 41459)
(278014 16792.2 -3.05826e-12 96165.7 -8.7288e-12 36961.8)
(240163 10904 -9.2985e-12 91728.5 -1.26661e-11 32956.2)
(213741 8606.5 -1.28066e-11 86480.1 -1.41552e-11 30008.7)
(193189 7321.3 -1.55428e-11 80098.5 -1.49353e-11 27544.6)
(177291 6858.65 -1.74044e-11 74572.9 -1.51703e-11 25597.2)
(164202 6586.96 -1.89581e-11 69387.4 -1.52791e-11 23946.3)
(153419 6373.68 -2.02555e-11 64949 -1.53589e-11 22573.6)
(143965 6227.61 -2.14006e-11 60813.6 -1.5397e-11 21351.8)
(-564.109 197.746 -4.10318e-11 -319.154 -1.85758e-11 2806.96)
(448.715 -704.442 -4.15011e-11 60.8434 -1.91895e-11 2926.93)
(4525.29 -2215.08 -4.23012e-11 -227.725 -2.01988e-11 3285.58)
(11049.7 -3424.1 -4.27813e-11 -465.96 -2.10027e-11 3884.78)
(18631 -4169.53 -4.28982e-11 -589.67 -2.14949e-11 4597.11)
(26587.4 -4593.83 -4.27833e-11 -650.144 -2.17709e-11 5352.42)
(34382.7 -4760.34 -4.25054e-11 -660.073 -2.18743e-11 6097.8)
(41831.4 -4773.31 -4.21426e-11 -632.729 -2.18751e-11 6813.87)
(48660.1 -4646.62 -4.17226e-11 -618.819 -2.17823e-11 7470.41)
(55026 -4548.93 -4.1331e-11 -512.895 -2.1711e-11 8089.36)
(743.484 -758.431 -4.1537e-11 -48.2657 -1.92238e-11 2946.48)
(6002.5 -4101.11 -4.30363e-11 2527.82 -2.15164e-11 3624.07)
(13638.8 -7793.52 -4.49902e-11 2638.47 -2.39998e-11 4339.74)
(21742.3 -10615.1 -4.64963e-11 1840.94 -2.58799e-11 5036.97)
(29890.3 -12350.7 -4.73056e-11 1075.43 -2.70282e-11 5748.17)
(37634.2 -13323.7 -4.76399e-11 381.959 -2.76637e-11 6431.22)
(44815.5 -13674.9 -4.75837e-11 -150.632 -2.78832e-11 7076.79)
(51461 -13651.4 -4.72949e-11 -531.744 -2.78535e-11 7684.99)
(57321 -13274.5 -4.68123e-11 -859.071 -2.75869e-11 8224.39)
(62879.1 -12973.8 -4.63509e-11 -889.229 -2.73774e-11 8756.96)
(2300.63 -3729.33 -4.29819e-11 2532.02 -2.12698e-11 3272.05)
(11507 -10240.6 -4.62522e-11 5446.96 -2.57007e-11 4332.54)
(22054.4 -14814.7 -4.8695e-11 5049.39 -2.87668e-11 5282.65)
(31743.8 -17879.6 -5.0442e-11 3093.6 -3.07894e-11 6042.14)
(40659.9 -19568.5 -5.13313e-11 1283.08 -3.18871e-11 6747.83)
(48512.4 -20362.9 -5.16718e-11 -292.925 -3.23871e-11 7375.41)
(55407.4 -20460.1 -5.15627e-11 -1489.3 -3.24241e-11 7944.77)
(61551.8 -20134 -5.11747e-11 -2352.51 -3.21826e-11 8470.29)
(66689.2 -19421.9 -5.05602e-11 -3003.61 -3.16853e-11 8918.05)
(71662 -18823.2 -4.99612e-11 -3192.31 -3.12728e-11 9384.46)
(5518.81 -8385.53 -4.49426e-11 8458.74 -2.45082e-11 4000.02)
(18953.1 -17600.4 -5.0027e-11 9224.73 -3.07208e-11 5284.2)
(31904.7 -22409.7 -5.26654e-11 7661.53 -3.39228e-11 6374.56)
(42963.4 -25106.8 -5.42839e-11 4483.98 -3.56746e-11 7174.92)
(52527.6 -26223.9 -5.49175e-11 1690.74 -3.63693e-11 7871.78)
(60489.7 -26432 -5.49991e-11 -729.892 -3.64588e-11 8449.59)
(67138.5 -25982.3 -5.46492e-11 -2590.22 -3.61164e-11 8948.45)
(72839.9 -25149.2 -5.4033e-11 -3966.53 -3.55243e-11 9395.95)
(77301.4 -23990 -5.32239e-11 -5006.17 -3.47198e-11 9752.35)
(81746 -23010.3 -5.24401e-11 -5422.43 -3.40468e-11 10153.4)
(11010.3 -14962.6 -4.76219e-11 17133.9 -2.90867e-11 5142)
(28944.1 -25613.3 -5.40375e-11 13380.7 -3.61848e-11 6504.16)
(43899.1 -29935.7 -5.6568e-11 9696.05 -3.90198e-11 7628.54)
(55902.9 -31733.2 -5.77889e-11 4961.14 -4.01373e-11 8407.08)
(65735.9 -31852.2 -5.79201e-11 1140.2 -4.01406e-11 9058.28)
(73537.5 -31149 -5.75423e-11 -2065.7 -3.96025e-11 9567.04)
(79759 -29918.3 -5.67971e-11 -4494.24 -3.87237e-11 9987.05)
(84895.3 -28410.1 -5.58391e-11 -6286.23 -3.767e-11 10353.3)
(88622 -26715.9 -5.47672e-11 -7622.3 -3.65003e-11 10620.3)
(92491 -25274.7 -5.37418e-11 -8196.25 -3.55142e-11 10957.3)
(19499.5 -23604.7 -5.11722e-11 27885.9 -3.50902e-11 6715.47)
(41808.3 -33737.5 -5.79067e-11 18030.4 -4.17292e-11 8036.45)
(58354.9 -36705.2 -5.98824e-11 11633 -4.36023e-11 9116.12)
(70830.8 -37143.4 -6.04588e-11 5180.79 -4.37727e-11 9818.44)
(80510.5 -35995.9 -5.99315e-11 382.543 -4.29054e-11 10389.2)
(87809.1 -34219.4 -5.89923e-11 -3500.2 -4.16324e-11 10805.5)
(93346.6 -32109.3 -5.77867e-11 -6383.5 -4.01537e-11 11131.2)
(97716.3 -29868.7 -5.6445e-11 -8490.18 -3.86015e-11 11404.9)
(100581 -27623.5 -5.50988e-11 -10057.7 -3.7057e-11 11575.4)
(103751 -25698.2 -5.38151e-11 -10735.1 -3.57436e-11 11840.7)
(31580.2 -34217.6 -5.56807e-11 39457 -4.24328e-11 8682.28)
(57500.3 -41649.8 -6.14773e-11 22848.8 -4.71303e-11 9854)
(75025.2 -42316.8 -6.23639e-11 13478.3 -4.73995e-11 10816.9)
(87399 -40935.7 -6.2043e-11 5238.14 -4.63125e-11 11385.6)
(96459.3 -38309.9 -6.07357e-11 -471.057 -4.44334e-11 11837.6)
(102873 -35373.9 -5.91842e-11 -4927.49 -4.23697e-11 12133.2)
(107444 -32360.9 -5.75001e-11 -8144.48 -4.02772e-11 12347)
(110811 -29399.8 -5.57812e-11 -10468 -3.82366e-11 12512.9)
(112684 -26641.9 -5.41776e-11 -12178 -3.6345e-11 12581)
(114986 -24249 -5.26481e-11 -12916.5 -3.4716e-11 12761.6)
(47791.8 -46406.9 -6.1039e-11 50660 -5.08272e-11 11006.5)
(75896.2 -49039.8 -6.45855e-11 27653.3 -5.21763e-11 11933.2)
(93533.3 -46502.1 -6.38192e-11 15529.9 -5.02364e-11 12719)
(105136 -42893.6 -6.23529e-11 5650.68 -4.762e-11 13104.2)
(113094 -38646.4 -6.01778e-11 -819.516 -4.46357e-11 13403.5)
(118248 -34537 -5.80063e-11 -5723 -4.17741e-11 13552.3)
(121586 -30668 -5.58712e-11 -9174.41 -3.91018e-11 13635.7)
(123736 -27067.9 -5.38247e-11 -11622.8 -3.66295e-11 13679.8)
(124508 -23887.1 -5.20241e-11 -13457.3 -3.44518e-11 13635.7)
(125777 -21089 -5.02897e-11 -14205.5 -3.25507e-11 13719.2)
(68453 -59457.8 -6.69484e-11 60298.2 -5.97715e-11 13632.4)
(96737.5 -55602.5 -6.70949e-11 32113.2 -5.66551e-11 14226.2)
(113376 -49138.9 -6.41832e-11 17875.2 -5.20326e-11 14781.8)
(123446 -42996.8 -6.13649e-11 6705.19 -4.76871e-11 14938.9)
(129803 -37052 -5.82631e-11 -286.607 -4.35505e-11 15056.5)
(133331 -31812.3 -5.54972e-11 -5493.26 -3.99236e-11 15033.9)
(135198 -27174.5 -5.29613e-11 -9048.15 -3.67327e-11 14973.7)
(135913 -23070 -5.06774e-11 -11592.5 -3.39199e-11 14876.3)
(135536 -19574.3 -4.874e-11 -13464 -3.1531e-11 14721.4)
(135561 -16449 -4.68894e-11 -14428.5 -2.94065e-11 14671.4)
(93618.7 -72423.2 -7.29329e-11 67447.4 -6.86099e-11 16501.5)
(119674 -61014.6 -6.88537e-11 35982.6 -6.03456e-11 16682.9)
(134014 -50206.1 -6.34536e-11 20617.4 -5.27763e-11 16961.6)
(141718 -41380.9 -5.9154e-11 8695.33 -4.66111e-11 16852.7)
(145951 -33748.6 -5.5114e-11 1496.41 -4.13352e-11 16762.3)
(147506 -27460.3 -5.17938e-11 -3819.35 -3.70013e-11 16549.4)
(147669 -22172.7 -4.893e-11 -7379.02 -3.33741e-11 16329.8)
(146810 -17712.5 -4.64907e-11 -9869.31 -3.03242e-11 16088)
(145285 -14096.1 -4.45549e-11 -11896.6 -2.78524e-11 15811.9)
(143888 -10959.9 -4.27327e-11 -12614.8 -2.57265e-11 15644.4)
(60717.5 -4220.18 -4.08411e-11 -513.055 -2.14829e-11 8637.15)
(65725.9 -3765.41 -4.02884e-11 -398.955 -2.11725e-11 9129)
(70316.2 -3370.25 -3.97992e-11 -317.667 -2.09022e-11 9577.91)
(74438.4 -3011.56 -3.93596e-11 -257.67 -2.06567e-11 9980.03)
(78159.5 -2679.07 -3.89554e-11 -197.886 -2.04291e-11 10343.5)
(81489.6 -2381.46 -3.85964e-11 -154.667 -2.02255e-11 10668.1)
(84476.2 -2108.44 -3.82691e-11 -113.094 -2.00388e-11 10959.4)
(87136.3 -1862.41 -3.7977e-11 -80.9719 -1.98703e-11 11218.4)
(89503.6 -1636.83 -3.77123e-11 -52.6725 -1.97159e-11 11449.1)
(91595 -1430.09 -3.74754e-11 -30.6383 -1.95749e-11 11652.6)
(93432 -1237.79 -3.72595e-11 -12.5862 -1.94432e-11 11831.4)
(95026.9 -1057.38 -3.70643e-11 0.581215 -1.93201e-11 11986.5)
(96392.1 -884.853 -3.6886e-11 9.71346 -1.92023e-11 12119.2)
(97533.6 -717.939 -3.67226e-11 14.2796 -1.90885e-11 12230.1)
(98454.7 -554.367 -3.65731e-11 14.2796 -1.89771e-11 12319.5)
(99161.2 -393.868 -3.64368e-11 10.7223 -1.88681e-11 12388)
(99649.6 -238.982 -3.63155e-11 3.12975 -1.87631e-11 12435.3)
(99941.4 -98.2614 -3.62128e-11 -2.81683 -1.86677e-11 12463.8)
(100036 9.7178 -3.61393e-11 -2.33898 -1.85947e-11 12473.6)
(100027 35.2426 -3.61157e-11 51.7112 -1.85784e-11 12477.1)
(67352.3 -12080.5 -4.55993e-11 -1147.37 -2.67654e-11 9172.14)
(71041.8 -10873.1 -4.46457e-11 -1118.38 -2.59475e-11 9536.14)
(74599 -9809.58 -4.37805e-11 -1023.5 -2.5228e-11 9891.53)
(77773.7 -8817.98 -4.29862e-11 -975.189 -2.45564e-11 10206.2)
(80717.3 -7888.67 -4.22374e-11 -884.397 -2.39279e-11 10501.5)
(83364.5 -7049.16 -4.15655e-11 -825.144 -2.336e-11 10765.4)
(85783.3 -6272.05 -4.09413e-11 -753.148 -2.28342e-11 11008)
(87956.3 -5566.18 -4.03784e-11 -698.885 -2.23568e-11 11225.2)
(89919.3 -4915.36 -3.986e-11 -646.215 -2.19165e-11 11421.7)
(91672.8 -4316.53 -3.93873e-11 -606.023 -2.15114e-11 11596.9)
(93236.7 -3758.33 -3.89503e-11 -572.308 -2.11337e-11 11753.1)
(94617.3 -3234.2 -3.85458e-11 -547.619 -2.07792e-11 11890.9)
(95825.7 -2735.6 -3.81662e-11 -529.832 -2.04418e-11 12011.4)
(96869 -2256.11 -3.78087e-11 -517.461 -2.01175e-11 12115.6)
(97753.3 -1791.58 -3.7468e-11 -506.683 -1.98033e-11 12204.3)
(98485.8 -1341.49 -3.71433e-11 -490.277 -1.94994e-11 12278.8)
(99067.5 -911.046 -3.6837e-11 -457.889 -1.92089e-11 12339.9)
(99514.8 -519.354 -3.65553e-11 -384.778 -1.89455e-11 12391)
(99810 -194.213 -3.6313e-11 -237.441 -1.87285e-11 12432.7)
(100000 -21.2861 -3.61497e-11 70.2942 -1.86167e-11 12475.5)
(75046.9 -17484.3 -4.89915e-11 -3533.44 -3.036e-11 9691.94)
(77397.7 -15838.5 -4.78176e-11 -3448.38 -2.92491e-11 9934.84)
(79928.6 -14362.6 -4.67104e-11 -3137.3 -2.82561e-11 10211.1)
(82116.8 -12992.7 -4.57028e-11 -2934.11 -2.73331e-11 10445.4)
(84254.9 -11687.6 -4.47268e-11 -2644.16 -2.64557e-11 10681.3)
(86175.6 -10503.3 -4.38471e-11 -2420.79 -2.56586e-11 10890.3)
(87986.9 -9395.17 -4.30208e-11 -2185 -2.49134e-11 11089.3)
(89629.7 -8383.26 -4.2269e-11 -1990.99 -2.42325e-11 11268.4)
(91147.5 -7443.79 -4.15716e-11 -1813.13 -2.36002e-11 11433.7)
(92523.4 -6576.35 -4.09319e-11 -1667.59 -2.30163e-11 11582.5)
(93775.6 -5767.17 -4.0338e-11 -1546.33 -2.2471e-11 11717.2)
(94903.1 -5008.78 -3.97875e-11 -1452.4 -2.19599e-11 11837.5)
(95914.7 -4290.61 -3.92714e-11 -1381.26 -2.14759e-11 11944.8)
(96815.1 -3605.72 -3.8784e-11 -1328.59 -2.10139e-11 12039.7)
(97608.6 -2947.55 -3.83205e-11 -1286.43 -2.05698e-11 12123.4)
(98302.4 -2313.57 -3.78766e-11 -1239.81 -2.01423e-11 12197.7)
(98891.6 -1705.52 -3.74505e-11 -1166.33 -1.97326e-11 12263.9)
(99388 -1132.48 -3.70419e-11 -1022.02 -1.93482e-11 12326.3)
(99748.5 -612.499 -3.66534e-11 -743.697 -1.90019e-11 12385.5)
(100013 -168.688 -3.62848e-11 -222.681 -1.87112e-11 12453.5)
(84043.6 -21296 -5.13029e-11 -5881.22 -3.28802e-11 10350.2)
(84967.5 -19410.9 -5.00509e-11 -5828.39 -3.16088e-11 10455.5)
(86435 -17672.5 -4.88069e-11 -5351.55 -3.0443e-11 10644.1)
(87558.5 -16087.3 -4.77022e-11 -5063.73 -2.93775e-11 10784.4)
(88829.4 -14544.8 -4.65955e-11 -4612.32 -2.83437e-11 10950.9)
(89946.3 -13144.2 -4.56009e-11 -4260.35 -2.74039e-11 11094.1)
(91081.8 -11818.3 -4.46479e-11 -3880.2 -2.65151e-11 11240.8)
(92124.3 -10601.1 -4.37779e-11 -3559.99 -2.56984e-11 11373.3)
(93132.6 -9463.86 -4.29625e-11 -3262.39 -2.49354e-11 11500.3)
(94067.8 -8409.72 -4.22115e-11 -3012.48 -2.42277e-11 11616)
(94950.2 -7423.61 -4.15105e-11 -2799.3 -2.35654e-11 11723.4)
(95767.3 -6499.24 -4.08586e-11 -2627.86 -2.29439e-11 11821)
(96526.8 -5625.11 -4.02464e-11 -2491.67 -2.2356e-11 11910)
(97226.4 -4793.62 -3.96683e-11 -2385.86 -2.17963e-11 11990.7)
(97867.2 -3996.07 -3.91176e-11 -2298.99 -2.12594e-11 12064.1)
(98451.4 -3226.99 -3.85877e-11 -2212.4 -2.07414e-11 12131.9)
(98967.2 -2481.56 -3.80724e-11 -2098.93 -2.02399e-11 12194.9)
(99422.5 -1755.5 -3.75613e-11 -1909.07 -1.97531e-11 12257.9)
(99756 -1054.71 -3.70528e-11 -1577.28 -1.92858e-11 12319.8)
(100020 -328.385 -3.64943e-11 -987.666 -1.88057e-11 12394.8)
(93698.3 -23268.1 -5.24752e-11 -8676.91 -3.41514e-11 11049.9)
(93138 -21375.1 -5.12988e-11 -8667.09 -3.28755e-11 11009.6)
(93561.1 -19529.3 -5.00049e-11 -7964.22 -3.16422e-11 11116.1)
(93596.2 -17904.1 -4.89155e-11 -7579.02 -3.05529e-11 11159.6)
(93996.7 -16271.9 -4.77665e-11 -6934.35 -2.94626e-11 11258)
(94289.3 -14796.7 -4.67427e-11 -6425.02 -2.84761e-11 11334.7)
(94729.8 -13378.4 -4.57412e-11 -5870.71 -2.75286e-11 11428.7)
(95145.5 -12069.1 -4.48211e-11 -5392.33 -2.66536e-11 11513.7)
(95615.3 -10835.8 -4.39503e-11 -4944.96 -2.5829e-11 11601.1)
(96078.5 -9686.76 -4.31428e-11 -4561.45 -2.50601e-11 11682.4)
(96555.3 -8607.37 -4.23867e-11 -4230.52 -2.43373e-11 11760.5)
(97024.6 -7592.66 -4.16804e-11 -3958.78 -2.36572e-11 11833)
(97489.2 -6632.21 -4.10155e-11 -3739.98 -2.30126e-11 11900.6)
(97942.5 -5717.32 -4.03875e-11 -3568.27 -2.23981e-11 11963.2)
(98380.2 -4837.99 -3.97875e-11 -3431.92 -2.18069e-11 12021.5)
(98800.6 -3983.11 -3.92066e-11 -3310.87 -2.1232e-11 12076.7)
(99186.1 -3142.79 -3.86348e-11 -3177.81 -2.06671e-11 12129.5)
(99542.2 -2296.07 -3.80518e-11 -2984.28 -2.00991e-11 12184)
(99801.9 -1442.52 -3.74517e-11 -2672.88 -1.95284e-11 12238.3)
(100022 -468.705 -3.6746e-11 -2133.87 -1.88807e-11 12306.9)
(103843 -23502.8 -5.24823e-11 -11209.9 -3.42546e-11 11828.2)
(101735 -21846.7 -5.15546e-11 -11358.5 -3.31375e-11 11625.9)
(101136 -20041.4 -5.03093e-11 -10459 -3.1936e-11 11649.1)
(100061 -18536.9 -4.93457e-11 -10030.6 -3.09301e-11 11588.7)
(99590.5 -16947.6 -4.82471e-11 -9235.73 -2.98728e-11 11614.7)
(99046.4 -15517.2 -4.72746e-11 -8600.29 -2.89195e-11 11620.5)
(98776.5 -14116.5 -4.62985e-11 -7901.63 -2.7987e-11 11657.2)
(98548.5 -12812.9 -4.53936e-11 -7283.87 -2.71189e-11 11691.1)
(98456.7 -11573.5 -4.45277e-11 -6699.94 -2.62931e-11 11735)
(98423 -10409.2 -4.37171e-11 -6188.32 -2.55167e-11 11778.5)
(98465.3 -9309.37 -4.29519e-11 -5740.15 -2.47826e-11 11824)
(98555.4 -8269.8 -4.22336e-11 -5364.61 -2.40879e-11 11868.2)
(98691.3 -7282.09 -4.1556e-11 -5057.83 -2.34269e-11 11911.2)
(98861.1 -6337 -4.09131e-11 -4816.09 -2.27935e-11 11952.2)
(99056.7 -5423.32 -4.02955e-11 -4629.52 -2.21803e-11 11991.3)
(99271.9 -4526.61 -3.9695e-11 -4481.97 -2.1578e-11 12029.2)
(99488.1 -3631.91 -3.9097e-11 -4350.03 -2.09767e-11 12066)
(99705.4 -2704.73 -3.84746e-11 -4193.77 -2.03536e-11 12104.9)
(99867.6 -1740 -3.78222e-11 -3969.45 -1.97068e-11 12144)
(100017 -577.887 -3.7021e-11 -3585.52 -1.89294e-11 12195.3)
(113994 -22000 -5.13265e-11 -13330.7 -3.31933e-11 12650.1)
(110345 -20845 -5.08355e-11 -13774.7 -3.24108e-11 12274.3)
(108799 -19234.9 -4.97441e-11 -12755.5 -3.13443e-11 12214.4)
(106647 -18002.9 -4.90075e-11 -12332.3 -3.05231e-11 12048.6)
(105335 -16599.7 -4.80554e-11 -11448.4 -2.95935e-11 11999.4)
(103983 -15328.3 -4.7209e-11 -10704.5 -2.87504e-11 11934.9)
(103012 -14052.7 -4.63295e-11 -9882.05 -2.79053e-11 11913)
(102151 -12843 -4.54964e-11 -9128.74 -2.71034e-11 11895.9)
(101497 -11676.8 -4.46863e-11 -8412.77 -2.63299e-11 11895.5)
(100964 -10567.2 -4.39165e-11 -7773.88 -2.55932e-11 11900.4)
(100561 -9509.16 -4.31842e-11 -7209.65 -2.48899e-11 11911.8)
(100258 -8501.93 -4.24909e-11 -6731.96 -2.4219e-11 11925.9)
(100047 -7538.94 -4.18339e-11 -6339.59 -2.35765e-11 11941.9)
(99910.8 -6611.89 -4.1208e-11 -6032.49 -2.29568e-11 11958.5)
(99839.9 -5709.84 -4.06059e-11 -5804.02 -2.23525e-11 11975.1)
(99823 -4814.73 -4.00148e-11 -5643.36 -2.17516e-11 11991.7)
(99844.5 -3909.07 -3.94224e-11 -5534.89 -2.11425e-11 12008.2)
(99897.7 -2947.55 -3.87975e-11 -5451.69 -2.04956e-11 12026)
(99948 -1924.29 -3.81324e-11 -5364.35 -1.9807e-11 12044.3)
(100008 -647.779 -3.72967e-11 -5211.86 -1.89486e-11 12070.3)
(123742 -18871.1 -4.90431e-11 -14647.4 -3.10495e-11 13505.5)
(118660 -18474.9 -4.91657e-11 -15521.3 -3.07731e-11 12954.5)
(116256 -17227.3 -4.83566e-11 -14566.4 -2.99509e-11 12805.1)
(113130 -16370.1 -4.79122e-11 -14185.2 -2.93828e-11 12540.1)
(111010 -15279.4 -4.72036e-11 -13337.5 -2.86641e-11 12408.7)
(108917 -14256.2 -4.65467e-11 -12560.8 -2.79898e-11 12274)
(107269 -13204.4 -4.58368e-11 -11697.2 -2.72971e-11 12188.7)
(105805 -12174.2 -4.51371e-11 -10866.2 -2.66184e-11 12118.5)
(104599 -11162.3 -4.44392e-11 -10059.1 -2.59511e-11 12071.1)
(103574 -10178.4 -4.37586e-11 -9316.27 -2.53015e-11 12035.9)
(102728 -9225.85 -4.31006e-11 -8646.97 -2.46715e-11 12012.2)
(102029 -8305.62 -4.2468e-11 -8067.92 -2.40617e-11 11995.3)
(101464 -7416.13 -4.18624e-11 -7586.08 -2.34707e-11 11983.8)
(101014 -6550.82 -4.12815e-11 -7207.04 -2.28944e-11 11975.3)
(100666 -5700.75 -4.07188e-11 -6932.07 -2.2326e-11 11968.6)
(100405 -4846.27 -4.01648e-11 -6758.93 -2.17532e-11 11962.5)
(100222 -3969.61 -3.9605e-11 -6680.24 -2.11634e-11 11956.8)
(100098 -3020.38 -3.90093e-11 -6688.31 -2.05233e-11 11950.7)
(100032 -1991.64 -3.83698e-11 -6767.53 -1.98283e-11 11945.3)
(99995.4 -676.779 -3.75545e-11 -6896.18 -1.89393e-11 11940.8)
(132757 -14419.3 -4.58048e-11 -14901.2 -2.80327e-11 14380.3)
(126394 -14920.8 -4.66321e-11 -16271.1 -2.83547e-11 13662.7)
(123197 -14293.8 -4.63257e-11 -15812.5 -2.7943e-11 13395.4)
(119287 -13884.9 -4.62205e-11 -15537.1 -2.76766e-11 13044.2)
(116396 -13237.2 -4.58503e-11 -14822 -2.72554e-11 12825.8)
(113665 -12523.6 -4.54191e-11 -14030.8 -2.67909e-11 12629)
(111392 -11746.3 -4.49121e-11 -13143.7 -2.62843e-11 12483.7)
(109383 -10934.5 -4.4369e-11 -12254.4 -2.57544e-11 12364.3)
(107667 -10110.9 -4.38069e-11 -11382.4 -2.52159e-11 12271.7)
(106183 -9287.85 -4.32414e-11 -10567.1 -2.46765e-11 12196.9)
(104914 -8475.74 -4.26826e-11 -9825.13 -2.41429e-11 12137.2)
(103832 -7679.39 -4.21388e-11 -9176.69 -2.36184e-11 12088.2)
(102919 -6900.42 -4.1611e-11 -8634.12 -2.31032e-11 12047.1)
(102154 -6134.27 -4.11025e-11 -8208.94 -2.25949e-11 12011.3)
(101525 -5373.34 -4.06069e-11 -7908.37 -2.20877e-11 11978.9)
(101014 -4599.98 -4.01168e-11 -7740.75 -2.15694e-11 11947.8)
(100618 -3796.02 -3.96207e-11 -7709.48 -2.10281e-11 11917.6)
(100311 -2909.73 -3.90893e-11 -7824.96 -2.04289e-11 11885.4)
(100124 -1934.44 -3.8516e-11 -8087.93 -1.97669e-11 11854.1)
(99983 -662.212 -3.77762e-11 -8521.82 -1.89015e-11 11816.1)
(140255 -8708.27 -4.17287e-11 -14364.7 -2.41819e-11 15178.3)
(133796 -9807.44 -4.2903e-11 -15469 -2.49115e-11 14467.7)
(129707 -10065.4 -4.33386e-11 -15962.2 -2.50816e-11 14036.4)
(125356 -10168.9 -4.3632e-11 -16051.6 -2.51548e-11 13611.9)
(121701 -10117.9 -4.37398e-11 -15770.2 -2.51292e-11 13283.2)
(118368 -9886.82 -4.36795e-11 -15219.3 -2.49868e-11 13007.2)
(115463 -9530.67 -4.34911e-11 -14471 -2.47628e-11 12788)
(112899 -9070.29 -4.32043e-11 -13624.1 -2.44695e-11 12609.7)
(110668 -8537.75 -4.28502e-11 -12732.5 -2.41283e-11 12467.2)
(108723 -7956.96 -4.24525e-11 -11854.8 -2.37539e-11 12351.4)
(107039 -7347.3 -4.2031e-11 -11027.6 -2.33589e-11 12257)
(105585 -6722.68 -4.16005e-11 -10284.7 -2.2952e-11 12178.2)
(104336 -6091.11 -4.11714e-11 -9650.08 -2.25385e-11 12111.1)
(103268 -5454.99 -4.07481e-11 -9146.16 -2.21193e-11 12051.3)
(102368 -4810.73 -4.03326e-11 -8789.36 -2.16918e-11 11996.5)
(101613 -4144.81 -3.99197e-11 -8600.4 -2.1247e-11 11942.9)
(101007 -3441.74 -3.95022e-11 -8594.3 -2.07737e-11 11890.1)
(100517 -2653.81 -3.9055e-11 -8803.12 -2.02392e-11 11832.5)
(100209 -1775.28 -3.85748e-11 -9243.64 -1.96396e-11 11775.4)
(99964.8 -610.762 -3.79518e-11 -9986.27 -1.88417e-11 11703.3)
(144495 -4003.96 -3.83047e-11 -12776.9 -2.10319e-11 15737)
(138547 -4590.22 -3.91341e-11 -13927.2 -2.14143e-11 15075.4)
(133874 -5674.16 -4.02124e-11 -15049.1 -2.21312e-11 14534.8)
(129385 -6187.06 -4.08286e-11 -15533.2 -2.24738e-11 14064.3)
(125415 -6548.02 -4.12565e-11 -15546.4 -2.27215e-11 13680.2)
(121778 -6710.12 -4.14968e-11 -15252.2 -2.28399e-11 13352.9)
(118546 -6715.06 -4.15807e-11 -14697.5 -2.28564e-11 13085.3)
(115648 -6590.38 -4.15459e-11 -13995.5 -2.27876e-11 12861.6)
(113084 -6361.19 -4.14142e-11 -13204.2 -2.26496e-11 12677.6)
(110816 -6053.42 -4.12159e-11 -12390.3 -2.24588e-11 12524.1)
(108824 -5687.39 -4.09692e-11 -11598.9 -2.22277e-11 12395.9)
(107079 -5280.06 -4.06934e-11 -10871.4 -2.19675e-11 12286.5)
(105559 -4842.8 -4.04015e-11 -10240.8 -2.16852e-11 12191.8)
(104241 -4382.28 -4.0102e-11 -9737.79 -2.13845e-11 12106.8)
(103113 -3898.92 -3.98012e-11 -9388.06 -2.1066e-11 12028.5)
(102151 -3384.68 -3.94987e-11 -9222.72 -2.0723e-11 11952.3)
(101368 -2828.35 -3.919e-11 -9268.75 -2.03479e-11 11877.5)
(100720 -2193.7 -3.88615e-11 -9575.43 -1.99153e-11 11796.3)
(100305 -1475.93 -3.85114e-11 -10175.8 -1.94215e-11 11715.7)
(99960.7 -509.465 -3.80574e-11 -11183 -1.87528e-11 11612.6)
(142299 615.364 -3.52261e-11 -11000.5 -1.79496e-11 15692.7)
(137630 -59.6401 -3.62258e-11 -13405.9 -1.83686e-11 15057.6)
(133336 -1382.79 -3.74441e-11 -14568.5 -1.9246e-11 14548.7)
(129260 -2250.23 -3.82892e-11 -15223.6 -1.98244e-11 14102.3)
(125584 -2933.38 -3.89236e-11 -15354 -2.0287e-11 13735.4)
(122168 -3417.42 -3.93731e-11 -15167.7 -2.06203e-11 13418.9)
(119083 -3730.13 -3.96596e-11 -14712.2 -2.08425e-11 13155.6)
(116269 -3899.32 -3.98195e-11 -14096.8 -2.09705e-11 12931.5)
(113739 -3947.69 -3.98729e-11 -13379.4 -2.10182e-11 12743.2)
(111463 -3899.58 -3.98478e-11 -12626.7 -2.10013e-11 12582.6)
(109433 -3774.77 -3.97639e-11 -11884.2 -2.09322e-11 12445.3)
(107627 -3590.35 -3.96385e-11 -11196.5 -2.08216e-11 12325.8)
(106032 -3359.29 -3.9486e-11 -10599.5 -2.0678e-11 12219.8)
(104630 -3089.87 -3.93172e-11 -10127.8 -2.05059e-11 12123.1)
(103414 -2785.45 -3.91384e-11 -9810.9 -2.03072e-11 12032.7)
(102365 -2443.34 -3.89551e-11 -9687.25 -2.008e-11 11943.8)
(101503 -2055.92 -3.87662e-11 -9789.61 -1.98179e-11 11856)
(100783 -1600.48 -3.85669e-11 -10177.6 -1.95048e-11 11760.5)
(100325 -1077.42 -3.83597e-11 -10897.4 -1.91403e-11 11665.4)
(99942.7 -371.283 -3.80973e-11 -12078.6 -1.86441e-11 11543.7)
(140640 5247.51 -3.20663e-11 -8903.57 -1.48636e-11 15724.2)
(136340 4185.49 -3.33502e-11 -11696.8 -1.55367e-11 15092.4)
(132704 2624.74 -3.47249e-11 -13138.1 -1.65685e-11 14623.8)
(128949 1471.45 -3.57793e-11 -14094.1 -1.73342e-11 14183.4)
(125569 516.605 -3.66079e-11 -14479.3 -1.79753e-11 13823.6)
(122333 -242.857 -3.72565e-11 -14522 -1.84904e-11 13505)
(119378 -822.845 -3.77329e-11 -14258.9 -1.88893e-11 13238)
(116640 -1253.56 -3.8078e-11 -13805.9 -1.91906e-11 13007)
(114150 -1552.11 -3.83078e-11 -13219.9 -1.94051e-11 12810.9)
(111882 -1742.41 -3.84489e-11 -12572.3 -1.95471e-11 12641.5)
(109838 -1842.23 -3.85196e-11 -11912.5 -1.96279e-11 12495)
(108000 -1868.69 -3.85394e-11 -11289.8 -1.96586e-11 12366)
(106362 -1834.62 -3.85214e-11 -10743.9 -1.9647e-11 12250.6)
(104907 -1751.36 -3.84789e-11 -10314.7 -1.95997e-11 12144.5)
(103635 -1624.14 -3.84217e-11 -10037.9 -1.952e-11 12044.4)
(102530 -1456.29 -3.83576e-11 -9956.49 -1.94094e-11 11945.7)
(101614 -1243.94 -3.82902e-11 -10112.8 -1.92644e-11 11847.5)
(100846 -981.473 -3.82257e-11 -10566.1 -1.90806e-11 11741.2)
(100360 -665.954 -3.81629e-11 -11368.3 -1.88547e-11 11635.7)
(99939.4 -230.162 -3.8093e-11 -12680.6 -1.85388e-11 11498.5)
(137725 8836.75 -2.96797e-11 -7143.28 -1.24765e-11 15602.8)
(134001 7751.61 -3.09939e-11 -10252 -1.31593e-11 15002.1)
(130979 6118.43 -3.241e-11 -11867.6 -1.42362e-11 14578.6)
(127645 4829.76 -3.35574e-11 -13022.3 -1.50892e-11 14162.4)
(124638 3697.45 -3.4505e-11 -13583.2 -1.58467e-11 13824)
(121680 2740.6 -3.52884e-11 -13788.9 -1.64917e-11 13518.3)
(118951 1950.4 -3.59092e-11 -13672.6 -1.70298e-11 13260.2)
(116380 1305.47 -3.64002e-11 -13350.7 -1.7473e-11 13033.9)
(114015 792.567 -3.67757e-11 -12879.1 -1.78297e-11 12839.6)
(111835 392.857 -3.70594e-11 -12330.2 -1.81111e-11 12669.6)
(109849 90.9695 -3.72684e-11 -11753.7 -1.83271e-11 12521.1)
(108046 -129.399 -3.74187e-11 -11201.2 -1.84871e-11 12388.8)
(106424 -280.944 -3.75267e-11 -10713.9 -1.85995e-11 12269.4)
(104973 -375.827 -3.76045e-11 -10334.7 -1.86717e-11 12158.5)
(103694 -421.798 -3.76635e-11 -10101.4 -1.8708e-11 12053.4)
(102578 -429.148 -3.77184e-11 -10061.8 -1.87151e-11 11949.3)
(101647 -392.932 -3.77688e-11 -10256.1 -1.86883e-11 11845.5)
(100870 -333.731 -3.78395e-11 -10752.6 -1.86406e-11 11733.7)
(100375 -224.282 -3.7918e-11 -11626.4 -1.85522e-11 11620.5)
(99937.1 -73.6721 -3.80398e-11 -13006.2 -1.84275e-11 11474.6)
(134059 11819.3 -2.77182e-11 -5399.71 -1.04991e-11 15404)
(130919 10719.3 -2.90316e-11 -8636.29 -1.11891e-11 14849.5)
(128509 9096.14 -3.04272e-11 -10368 -1.22565e-11 14475.8)
(125634 7748.54 -3.16147e-11 -11700.2 -1.31459e-11 14089.9)
(123044 6513.86 -3.26302e-11 -12429.9 -1.39688e-11 13777.7)
(120413 5427.79 -3.35035e-11 -12806 -1.46978e-11 13489.7)
(117961 4486.31 -3.42292e-11 -12845.4 -1.53349e-11 13245.3)