/*--------------------------------*- C++ -*----------------------------------*\
  =========                 |
  \\      /  F ield         | OpenFOAM: The Open Source CFD Toolbox
   \\    /   O peration     | Website:  https://openfoam.org
    \\  /    A nd           | Version:  9
     \\/     M anipulation  |
\*---------------------------------------------------------------------------*/
FoamFile
{
    format      ascii;
    class       volScalarField;
    location    "1";
    object      sigmaEq;
}
// * * * * * * * * * * * * * * * * * * * * * * * * * * * * * * * * * * * * * //

dimensions      [1 -1 -2 0 0 0 0];

internalField   nonuniform List<scalar> 
1000
(
171126
161845
158908
158835
158226
157165
155575
153506
151364
148733
199729
181457
172609
168650
165425
162514
159520
156445
153219
150182
227644
200440
185361
177087
170901
165857
161265
156975
152728
149006
254335
218537
197139
184253
174824
167432
161102
155532
150272
145862
278967
235317
207714
190074
177212
167314
159161
152255
146026
140900
301702
250713
217026
194569
178168
165695
155697
147461
140309
134461
321297
263878
224170
197044
177293
162441
150795
141388
133464
126962
340133
274820
228794
197412
174764
157996
145109
134863
126436
119456
354391
279369
226971
192754
169062
151737
138623
128208
119728
112558
372437
274009
219513
185923
163686
147158
134616
124473
116162
108945
3273.48
2956.67
5740.68
11688.1
18676.2
26033.2
33239
40134.7
46475.7
52372.5
2991.65
7741.02
16953
26090.6
34279.8
41611.8
48064.6
53876.1
58886.3
63634
6518.91
18955.9
30719.5
41280.6
50139.7
57536.5
63602.8
68741.6
72801
76699.8
15045.5
32830.3
46121.3
57231.3
66116.9
73253.6
78841
83360.1
86626.6
89842.3
27919.8
48627.7
62715.8
73840.3
82264.8
88783.2
93667.1
97442.9
99906.1
102434
44861.2
65708.2
79678.6
90365.2
98009.8
103676
107699
110630
112270
114076
65415.9
83809.3
96597.3
106350
112946
117587
120638
122648
123456
124492
89037.6
102702
113133
121371
126646
130113
132127
133174
133201
133417
115024
122177
129109
135208
138857
140996
141895
141954
141228
140679
142650
141987
144391
147694
149371
149981
149669
148649
147359
145703
57672.1
62255.7
66499.5
70333.6
73800.6
76917.6
79716.2
82215.8
84442.9
86414.1
88147.6
89655.2
90947.3
92029.9
92906
93580.2
94049.6
94330.9
94421
94378.5
67302.5
70046.1
72809
75360.2
77756.4
79971.9
82019.1
83891.3
85599.6
87144.2
88533.5
89770.5
90860.9
91808
92613.4
93278.5
93796.9
94168.2
94353.2
94340.8
78915.3
79911.1
81167.6
82347.8
83551.4
84723.9
85877.9
86983.7
88045.1
89046.1
89987
90860.9
91666.5
92400.7
93058.8
93635.9
94111
94466.4
94619.3
94538.1
90834.4
90337.7
90274.1
90214
90299.3
90457.1
90716.7
91031.6
91408.9
91818.4
92258.4
92711.4
93171.6
93627.7
94067.9
94478.8
94829
95091.9
95166.4
95027.3
102345
100593
99390.7
98251.5
97345.7
96576.1
96001.8
95556.1
95260.2
95073.6
94995.2
95001.4
95082.3
95221.4
95401.2
95602.7
95788.3
95929.2
95925.2
95758.6
113024
110231
108074
106011
104262
102676
101361
100224
99302.8
98548.8
97964.2
97522.7
97213.1
97016
96912.2
96880.7
96885.5
96898
96838.4
96687.7
122600
118973
116076
113235
110799
108509
106545
104788
103293
102013
100949
100078
99387.4
98857.4
98469.7
98202.8
98029.2
97922.3
97834.1
97738.1
130830
126564
123180
119686
116722
113870
111377
109103
107110
105359
103854
102576
101517
100661
99992.2
99492.9
99147.9
98933.2
98841.9
98835.7
137697
132841
129343
125377
121985
118673
115707
112987
110558
108396
106504
104867
103478
102324
101398
100685
100185
99879.1
99804.1
99907.4
142967
137827
134363
130352
126710
123146
119819
116722
113893
111338
109063
107066
105344
103888
102699
101766
101107
100707
100651
100876
145297
140466
136909
133053
129357
125741
122308
119068
116067
113318
110838
108631
106703
105053
103689
102609
101843
101386
101357
101685
141854
139007
135731
132339
128980
125648
122437
119364
116480
113803
111359
109160
107219
105544
104149
103042
102266
101819
101850
102279
139174
136818
134211
131235
128264
125217
122239
119340
116586
113999
111613
109445
107516
105839
104436
103322
102549
102117
102193
102689
135806
134104
132058
129507
126922
124181
121466
118779
116197
113746
111466
109377
107506
105870
104498
103409
102655
102253
102378
102911
131907
130746
129236
127138
124967
122573
120161
117727
115361
113088
110955
108987
107212
105655
104340
103304
102568
102240
102224
102939
127687
127022
126001
124339
122566
120523
118423
116264
114138
112074
110122
108308
106665
105218
103999
103030
102372
102042
102184
102701
123238
123001
122416
121167
119778
118088
116310
114441
112576
110745
109000
107369
105886
104576
103472
102595
102001
101694
101824
102308
118653
118785
118586
117719
116690
115342
113884
112312
110720
109140
107622
106196
104897
103747
102779
102009
101489
101221
101332
101747
113977
114420
114556
114039
113346
112329
111186
109915
108606
107290
106016
104815
103719
102750
101935
101289
100854
100627
100714
101047
109236
109939
110368
110169
109789
109090
108256
107287
106267
105226
104210
103249
102373
101601
100957
100451
100113
99937.2
99999.3
100239
104429
105350
106035
106127
106041
105650
105123
104457
103733
102977
102232
101525
100883
100324
99865.4
99513.7
99286.3
99171.8
99212.7
99359.2
99539
100646
101558
101923
102120
102033
101812
101456
101036
100574
100112
99671.6
99277
98942.9
98682.6
98498.6
98394.9
98355.9
98387.3
98447.6
94528.5
95804.3
96928.7
97558.7
98037.2
98256.9
98349.8
98312.9
98208.2
98054.9
97887.1
97725
97588.7
97490.8
97439.2
97432.9
97466.2
97516.5
97555.1
97544.9
89354
90796.7
92132.9
93034.4
93804.6
94345
94767.6
95066.8
95293.5
95463.2
95604.3
95732
95863.5
96008.4
96172.2
96350.9
96530.6
96683
96749.2
96691.6
83954.6
85582.8
87150.1
88348.2
89436.5
90324.8
91103.7
91763.8
92345.3
92858
93323.1
93752.9
94159.6
94551.8
94932.1
95296.7
95625.9
95889.5
96004.8
95927.3
78287
80146.3
81985.5
83524.7
84974
86250.4
87422.4
88475.7
89438.9
90315.8
91121.3
91862.9
92549.6
93188.2
93780.5
94322.9
94796.8
95172
95352.8
95285.7
72285.6
74456.3
76640.6
78592.9
80467.3
82189.1
83803
85290.8
86669
87935.4
89098.3
90161.6
91130.9
92010.7
92802.7
93505.7
94105.2
94575.5
94829.5
94800.6
65999
68596.7
71224.3
73678.6
76053.7
78283.8
80389.1
82348.9
84168.9
85843.2
87374.2
88762.1
90009.7
91119.6
92092.5
92929.8
93622.3
94155.5
94465.1
94485.5
59432.5
62632.1
65846.6
68921.5
71892
74700.8
77351.1
79820.4
82107.2
84203.9
86110
87823.3
89344.2
90672
91804.7
92742
93476.7
94009
94309.2
94359
53075
57042.1
60963.6
64733.4
68350.7
71763.6
74968.1
77940.8
80681.5
83181.1
85441.1
87458.1
89231.4
90756.9
92027.5
93036.6
93770.3
94234.2
94416.4
94394.9
102849
106360
113017
120464
128110
134856
140241
143885
145824
145582
97239.9
100550
106814
114027
121746
128924
135093
139717
142692
143313
92183.4
95330.8
101192
107999
115427
122510
128858
134041
137998
140271
87549.1
90596.2
96156
102641
109839
116846
123271
128707
132964
136174
83199.6
86163.4
91440
97577.8
104468
111294
117697
123365
127891
131741
79110.9
82022.9
87077.2
92919
99517
106122
112382
118093
122692
126963
75203.4
78072.4
82931.1
88497.2
94806.1
101180
107272
112976
117582
122056
71457.5
74292.5
78985.9
84305.8
90338.9
96465.8
102348
107963
112527
117085
67836.5
70635.6
75178.9
80272.1
86043.5
91924.5
97589.5
103072
107562
112108
64330
67085.6
71485.6
76363.4
81880.9
87509.2
92946.7
98260.6
102657
107135
60929.9
63625.3
67875.6
72536.7
77801.5
83172.1
88376.4
93496.6
97782.6
102157
57644.7
60253
64331.1
68759.3
73758.4
78857.4
83819.3
88726.7
92891.4
97139.9
54500
56976.7
60835.4
64991.7
69695.9
74501.7
79207.4
83886.9
87921.2
92035.5
51544.8
53817.9
57376
61196.1
65556
70035.3
74466.1
78904.1
82803.4
86783.4
48876.6
50817.2
53925.9
57298.2
61237.9
65347.6
69483.1
73674.7
77443.2
81302.2
46633.5
47997.3
50438.6
53224.1
56649.6
60340.7
64162.6
68109.2
71763.2
75526
45090.4
45412.1
46764.1
48736.8
51537.8
54778.7
58298
62034.7
65624.6
69350.9
44415.4
42818.1
42661.8
43662.5
45775.7
48563.9
51821.9
55413.7
59020.1
62793.9
45323.9
39857.2
37315.1
37141.5
38660.1
41162
44347.1
47984.8
51791.1
55783.5
45688.3
34203.1
30257.2
29111.3
30364.5
32831.3
36202.6
40139
44377.4
48799.5
)
;

boundaryField
{
    left
    {
        type            calculated;
        value           nonuniform List<scalar> 
30
(
101934
96346.5
91308.9
86683.8
82346.9
78274.3
74390
70678.1
67104.8
63663.2
60349.1
57175.7
54172.6
51395.3
48949.4
47015.4
45945
46318.1
49862.6
57534.1
396185
266833
212324
181403
161118
145525
133480
123535
115312
108061
)
;
    }
    right
    {
        type            calculated;
        value           nonuniform List<scalar> 
30
(
94359.7
94340.6
94528
95011.1
95739.1
96669.8
97724.7
98830.3
99910.5
100893
101706
102314
102727
102951
102949
102736
102346
101780
101073
100257
99369.3
98450.3
97541.7
96684.1
95917.6
95276.6
94795
94485
94363.3
94373.1
)
;
    }
    down
    {
        type            calculated;
        value           nonuniform List<scalar> 
30
(
3079.36
2737.5
4132.75
9887.77
17035
24601.7
32023.5
39111.4
45618.9
51650.8
57083.1
61817.8
66167
70078.4
73607.5
76770.2
79605.2
82132.5
84381.9
86370.3
88117.3
89635.6
90935.4
92023.9
92903.7
93579.5
94049.2
94329.8
94420.4
94389.8
)
;
    }
    up
    {
        type            calculated;
        value           nonuniform List<scalar> 
30
(
44340.6
33783.7
30109.7
28970.9
30198.2
32634.1
35984.6
39913.1
44148.3
48578.6
52864.4
56853.9
60801.4
64594
68233.6
71665.6
74888
77876.7
80631.1
83142.6
85413.1
87439.1
89219.3
90750.9
92025.7
93037.1
93771.6
94234.9
94415.5
94401.9
)
;
    }
    hole
    {
        type            calculated;
        value           nonuniform List<scalar> 
20
(
170150
199609
228352
255817
281144
304498
324611
344026
358941
376427
2927.56
2926.93
3383.75
10669.9
23230.9
40342.6
61344.8
85609
112356
140814
)
;
    }
    frontAndBack
    {
        type            empty;
    }
}


// ************************************************************************* //
