/*--------------------------------*- C++ -*----------------------------------*\
  =========                 |
  \\      /  F ield         | OpenFOAM: The Open Source CFD Toolbox
   \\    /   O peration     | Website:  https://openfoam.org
    \\  /    A nd           | Version:  9
     \\/     M anipulation  |
\*---------------------------------------------------------------------------*/
FoamFile
{
    format      ascii;
    class       volVectorField;
    location    "15";
    object      D;
}
// * * * * * * * * * * * * * * * * * * * * * * * * * * * * * * * * * * * * * //

dimensions      [0 1 0 0 0 0 0];

internalField   nonuniform List<vector> 
1000
(
(1.01599e-05 3.42132e-06 0)
(9.48025e-06 3.77601e-06 0)
(8.98514e-06 4.07609e-06 0)
(8.62739e-06 4.30967e-06 0)
(8.37212e-06 4.51157e-06 0)
(8.19178e-06 4.68522e-06 0)
(8.06958e-06 4.84172e-06 0)
(7.99179e-06 4.98427e-06 0)
(7.94772e-06 5.11728e-06 0)
(7.9319e-06 5.24339e-06 0)
(9.15404e-06 3.08843e-06 0)
(8.45016e-06 3.34253e-06 0)
(7.94003e-06 3.57027e-06 0)
(7.57257e-06 3.74476e-06 0)
(7.31096e-06 3.89828e-06 0)
(7.12532e-06 4.03028e-06 0)
(6.99806e-06 4.14994e-06 0)
(6.91456e-06 4.25944e-06 0)
(6.86388e-06 4.36099e-06 0)
(6.83859e-06 4.46011e-06 0)
(8.1225e-06 2.75291e-06 0)
(7.41874e-06 2.90241e-06 0)
(6.9068e-06 3.05368e-06 0)
(6.54027e-06 3.16904e-06 0)
(6.28009e-06 3.27467e-06 0)
(6.09537e-06 3.36688e-06 0)
(5.96793e-06 3.452e-06 0)
(5.88278e-06 3.53104e-06 0)
(5.82892e-06 3.60411e-06 0)
(5.79853e-06 3.67746e-06 0)
(7.08189e-06 2.41536e-06 0)
(6.39239e-06 2.46427e-06 0)
(5.89306e-06 2.53828e-06 0)
(5.53844e-06 2.59632e-06 0)
(5.28802e-06 2.65635e-06 0)
(5.11095e-06 2.7117e-06 0)
(4.98871e-06 2.76552e-06 0)
(4.90626e-06 2.81734e-06 0)
(4.8532e-06 2.8655e-06 0)
(4.82097e-06 2.91581e-06 0)
(6.03164e-06 2.09424e-06 0)
(5.37412e-06 2.04138e-06 0)
(4.90316e-06 2.03928e-06 0)
(4.57178e-06 2.04271e-06 0)
(4.34027e-06 2.06105e-06 0)
(4.17783e-06 2.08389e-06 0)
(4.06622e-06 2.11092e-06 0)
(3.99072e-06 2.13984e-06 0)
(3.94178e-06 2.16745e-06 0)
(3.9106e-06 2.19834e-06 0)
(4.96928e-06 1.78382e-06 0)
(4.36653e-06 1.63682e-06 0)
(3.93816e-06 1.56471e-06 0)
(3.64308e-06 1.52097e-06 0)
(3.44029e-06 1.50435e-06 0)
(3.29979e-06 1.50132e-06 0)
(3.20417e-06 1.50765e-06 0)
(3.13959e-06 1.51925e-06 0)
(3.0977e-06 1.53162e-06 0)
(3.06992e-06 1.54774e-06 0)
(3.88778e-06 1.47655e-06 0)
(3.36298e-06 1.24985e-06 0)
(2.99632e-06 1.12152e-06 0)
(2.75236e-06 1.04349e-06 0)
(2.58844e-06 1.00259e-06 0)
(2.47696e-06 9.82805e-07 0)
(2.40208e-06 9.76026e-07 0)
(2.35169e-06 9.76805e-07 0)
(2.31902e-06 9.79717e-07 0)
(2.29645e-06 9.86202e-07 0)
(2.80903e-06 1.16295e-06 0)
(2.37124e-06 8.77594e-07 0)
(2.08675e-06 7.17395e-07 0)
(1.906e-06 6.23823e-07 0)
(1.78902e-06 5.73583e-07 0)
(1.71118e-06 5.48224e-07 0)
(1.65972e-06 5.37006e-07 0)
(1.62516e-06 5.33821e-07 0)
(1.60269e-06 5.33113e-07 0)
(1.58639e-06 5.35146e-07 0)
(1.69663e-06 8.28436e-07 0)
(1.38573e-06 5.25155e-07 0)
(1.2075e-06 3.62504e-07 0)
(1.10094e-06 2.80103e-07 0)
(1.03633e-06 2.37733e-07 0)
(9.94296e-07 2.18317e-07 0)
(9.66963e-07 2.10186e-07 0)
(9.48383e-07 2.08274e-07 0)
(9.3605e-07 2.07993e-07 0)
(9.2636e-07 2.09207e-07 0)
(5.91616e-07 4.29809e-07 0)
(4.4133e-07 2.03343e-07 0)
(3.85472e-07 9.57753e-08 0)
(3.56962e-07 5.57793e-08 0)
(3.39498e-07 3.73041e-08 0)
(3.27894e-07 3.14642e-08 0)
(3.20011e-07 2.99968e-08 0)
(3.14393e-07 3.09245e-08 0)
(3.1046e-07 3.20054e-08 0)
(3.07033e-07 3.33834e-08 0)
(1.79015e-05 5.5338e-06 0)
(1.78718e-05 6.2211e-06 0)
(1.78514e-05 6.86148e-06 0)
(1.78521e-05 7.44774e-06 0)
(1.78789e-05 7.98596e-06 0)
(1.7934e-05 8.48281e-06 0)
(1.80175e-05 8.94605e-06 0)
(1.81277e-05 9.38238e-06 0)
(1.82637e-05 9.79711e-06 0)
(1.84221e-05 1.01961e-05 0)
(1.73402e-05 5.48834e-06 0)
(1.72606e-05 6.17363e-06 0)
(1.72064e-05 6.80618e-06 0)
(1.71823e-05 7.38062e-06 0)
(1.71912e-05 7.9044e-06 0)
(1.72312e-05 8.38463e-06 0)
(1.7301e-05 8.8298e-06 0)
(1.73975e-05 9.247e-06 0)
(1.75193e-05 9.64175e-06 0)
(1.76616e-05 1.00207e-05 0)
(1.67449e-05 5.3962e-06 0)
(1.66061e-05 6.07968e-06 0)
(1.65059e-05 6.69933e-06 0)
(1.64456e-05 7.25523e-06 0)
(1.64257e-05 7.75867e-06 0)
(1.64415e-05 8.21772e-06 0)
(1.64902e-05 8.64147e-06 0)
(1.65668e-05 9.03711e-06 0)
(1.66695e-05 9.41038e-06 0)
(1.6792e-05 9.76819e-06 0)
(1.61015e-05 5.26229e-06 0)
(1.58963e-05 5.94242e-06 0)
(1.57428e-05 6.54628e-06 0)
(1.56395e-05 7.07951e-06 0)
(1.55844e-05 7.55847e-06 0)
(1.55703e-05 7.9924e-06 0)
(1.55929e-05 8.39126e-06 0)
(1.56455e-05 8.76229e-06 0)
(1.57259e-05 9.11148e-06 0)
(1.58258e-05 9.44565e-06 0)
(1.54029e-05 5.08786e-06 0)
(1.51249e-05 5.7592e-06 0)
(1.49142e-05 6.34228e-06 0)
(1.47655e-05 6.84764e-06 0)
(1.46733e-05 7.2973e-06 0)
(1.46276e-05 7.70179e-06 0)
(1.46226e-05 8.07206e-06 0)
(1.465e-05 8.4153e-06 0)
(1.47072e-05 8.73781e-06 0)
(1.47841e-05 9.04594e-06 0)
(1.46479e-05 4.87702e-06 0)
(1.42931e-05 5.53029e-06 0)
(1.4024e-05 6.08658e-06 0)
(1.383e-05 6.55924e-06 0)
(1.3701e-05 6.97565e-06 0)
(1.36241e-05 7.34718e-06 0)
(1.35919e-05 7.68579e-06 0)
(1.35946e-05 7.99846e-06 0)
(1.36291e-05 8.29191e-06 0)
(1.36836e-05 8.57168e-06 0)
(1.38386e-05 4.63286e-06 0)
(1.34058e-05 5.25561e-06 0)
(1.30797e-05 5.77749e-06 0)
(1.28425e-05 6.21223e-06 0)
(1.26789e-05 6.59156e-06 0)
(1.25731e-05 6.92706e-06 0)
(1.25156e-05 7.23147e-06 0)
(1.24955e-05 7.51138e-06 0)
(1.25089e-05 7.77384e-06 0)
(1.2543e-05 8.02346e-06 0)
(1.29792e-05 4.36028e-06 0)
(1.24712e-05 4.93797e-06 0)
(1.20916e-05 5.41691e-06 0)
(1.18149e-05 5.80848e-06 0)
(1.16203e-05 6.14735e-06 0)
(1.14888e-05 6.44437e-06 0)
(1.14091e-05 6.71274e-06 0)
(1.1369e-05 6.95832e-06 0)
(1.13636e-05 7.1885e-06 0)
(1.138e-05 7.4064e-06 0)
(1.20756e-05 4.06346e-06 0)
(1.14989e-05 4.58101e-06 0)
(1.10718e-05 5.00837e-06 0)
(1.07609e-05 5.35167e-06 0)
(1.05399e-05 5.64708e-06 0)
(1.0387e-05 5.90382e-06 0)
(1.02887e-05 6.13494e-06 0)
(1.0232e-05 6.34553e-06 0)
(1.02105e-05 6.54249e-06 0)
(1.02124e-05 6.72824e-06 0)
(1.11335e-05 3.74973e-06 0)
(1.04987e-05 4.19158e-06 0)
(1.00325e-05 4.55872e-06 0)
(9.69393e-06 4.84896e-06 0)
(9.45242e-06 5.09845e-06 0)
(9.28283e-06 5.31375e-06 0)
(9.1701e-06 5.50736e-06 0)
(9.10055e-06 5.68291e-06 0)
(9.06626e-06 5.84716e-06 0)
(9.05785e-06 5.9987e-06 0)
(1.86113e-05 1.058e-05 0)
(1.88286e-05 1.09609e-05 0)
(1.90626e-05 1.13358e-05 0)
(1.93114e-05 1.17064e-05 0)
(1.95737e-05 1.20745e-05 0)
(1.9848e-05 1.24413e-05 0)
(2.01332e-05 1.2808e-05 0)
(2.0428e-05 1.31753e-05 0)
(2.07314e-05 1.35443e-05 0)
(2.10425e-05 1.39153e-05 0)
(2.13603e-05 1.42892e-05 0)
(2.16839e-05 1.46662e-05 0)
(2.20127e-05 1.50468e-05 0)
(2.23458e-05 1.54313e-05 0)
(2.26825e-05 1.58199e-05 0)
(2.30219e-05 1.62128e-05 0)
(2.33634e-05 1.66097e-05 0)
(2.37063e-05 1.70105e-05 0)
(2.40499e-05 1.74145e-05 0)
(2.43934e-05 1.78204e-05 0)
(1.78589e-05 1.03901e-05 0)
(1.81029e-05 1.07647e-05 0)
(1.83601e-05 1.11336e-05 0)
(1.86282e-05 1.14989e-05 0)
(1.8907e-05 1.18625e-05 0)
(1.91951e-05 1.22255e-05 0)
(1.94919e-05 1.2589e-05 0)
(1.97965e-05 1.29539e-05 0)
(2.0108e-05 1.3321e-05 0)
(2.04259e-05 1.36908e-05 0)
(2.07495e-05 1.40639e-05 0)
(2.10781e-05 1.44408e-05 0)
(2.14111e-05 1.48217e-05 0)
(2.17479e-05 1.52071e-05 0)
(2.20881e-05 1.55971e-05 0)
(2.24311e-05 1.59917e-05 0)
(2.27763e-05 1.6391e-05 0)
(2.31231e-05 1.67947e-05 0)
(2.34712e-05 1.7202e-05 0)
(2.38197e-05 1.7612e-05 0)
(1.70001e-05 1.01266e-05 0)
(1.72787e-05 1.05018e-05 0)
(1.75667e-05 1.08716e-05 0)
(1.78615e-05 1.12375e-05 0)
(1.81637e-05 1.16022e-05 0)
(1.84722e-05 1.19662e-05 0)
(1.87869e-05 1.23311e-05 0)
(1.91071e-05 1.26975e-05 0)
(1.94325e-05 1.30664e-05 0)
(1.97626e-05 1.34383e-05 0)
(2.0097e-05 1.38138e-05 0)
(2.04354e-05 1.41934e-05 0)
(2.07773e-05 1.45773e-05 0)
(2.11224e-05 1.49659e-05 0)
(2.14704e-05 1.53596e-05 0)
(2.18209e-05 1.57583e-05 0)
(2.21736e-05 1.61622e-05 0)
(2.25279e-05 1.65711e-05 0)
(2.28836e-05 1.69847e-05 0)
(2.32396e-05 1.74023e-05 0)
(1.60476e-05 9.79521e-06 0)
(1.63672e-05 1.01765e-05 0)
(1.66926e-05 1.05526e-05 0)
(1.70203e-05 1.09241e-05 0)
(1.73521e-05 1.12943e-05 0)
(1.76868e-05 1.16636e-05 0)
(1.80249e-05 1.20337e-05 0)
(1.8366e-05 1.24052e-05 0)
(1.87102e-05 1.27793e-05 0)
(1.90572e-05 1.31564e-05 0)
(1.9407e-05 1.35371e-05 0)
(1.97594e-05 1.3922e-05 0)
(2.01142e-05 1.43115e-05 0)
(2.04714e-05 1.47059e-05 0)
(2.08308e-05 1.51056e-05 0)
(2.11922e-05 1.55107e-05 0)
(2.15553e-05 1.59215e-05 0)
(2.19199e-05 1.63381e-05 0)
(2.22857e-05 1.67606e-05 0)
(2.26516e-05 1.71886e-05 0)
(1.50221e-05 9.38968e-06 0)
(1.53875e-05 9.78322e-06 0)
(1.57554e-05 1.01718e-05 0)
(1.61206e-05 1.05545e-05 0)
(1.64866e-05 1.09354e-05 0)
(1.68518e-05 1.13146e-05 0)
(1.72176e-05 1.16943e-05 0)
(1.75836e-05 1.20749e-05 0)
(1.79504e-05 1.24578e-05 0)
(1.8318e-05 1.28434e-05 0)
(1.86866e-05 1.32325e-05 0)
(1.90562e-05 1.36258e-05 0)
(1.9427e-05 1.40235e-05 0)
(1.97991e-05 1.44263e-05 0)
(2.01725e-05 1.48344e-05 0)
(2.05472e-05 1.52483e-05 0)
(2.09231e-05 1.56684e-05 0)
(2.13e-05 1.60949e-05 0)
(2.16778e-05 1.65284e-05 0)
(2.20556e-05 1.69692e-05 0)
(1.39402e-05 8.91232e-06 0)
(1.43549e-05 9.3238e-06 0)
(1.4769e-05 9.73072e-06 0)
(1.51751e-05 1.01297e-05 0)
(1.55788e-05 1.05262e-05 0)
(1.59779e-05 1.092e-05 0)
(1.63746e-05 1.13133e-05 0)
(1.67687e-05 1.1707e-05 0)
(1.71612e-05 1.21022e-05 0)
(1.75521e-05 1.24997e-05 0)
(1.79422e-05 1.29004e-05 0)
(1.83317e-05 1.33047e-05 0)
(1.87208e-05 1.37135e-05 0)
(1.911e-05 1.41271e-05 0)
(1.94994e-05 1.45461e-05 0)
(1.98893e-05 1.4971e-05 0)
(2.02796e-05 1.54024e-05 0)
(2.06705e-05 1.58408e-05 0)
(2.10619e-05 1.62873e-05 0)
(2.14531e-05 1.67422e-05 0)
(1.28197e-05 8.36402e-06 0)
(1.32855e-05 8.79921e-06 0)
(1.37481e-05 9.23012e-06 0)
(1.41974e-05 9.65075e-06 0)
(1.46411e-05 1.00676e-05 0)
(1.50764e-05 1.04803e-05 0)
(1.55064e-05 1.08915e-05 0)
(1.59308e-05 1.13019e-05 0)
(1.6351e-05 1.1713e-05 0)
(1.67675e-05 1.21257e-05 0)
(1.7181e-05 1.2541e-05 0)
(1.7592e-05 1.29594e-05 0)
(1.80013e-05 1.33819e-05 0)
(1.84091e-05 1.38088e-05 0)
(1.8816e-05 1.4241e-05 0)
(1.92223e-05 1.4679e-05 0)
(1.96283e-05 1.51237e-05 0)
(2.00343e-05 1.55757e-05 0)
(2.04403e-05 1.60365e-05 0)
(2.08463e-05 1.65068e-05 0)
(1.16775e-05 7.74965e-06 0)
(1.21946e-05 8.21398e-06 0)
(1.27062e-05 8.67343e-06 0)
(1.31999e-05 9.12061e-06 0)
(1.36844e-05 9.56211e-06 0)
(1.41575e-05 9.9981e-06 0)
(1.4622e-05 1.04309e-05 0)
(1.50783e-05 1.08619e-05 0)
(1.55278e-05 1.12924e-05 0)
(1.59712e-05 1.17235e-05 0)
(1.64096e-05 1.21563e-05 0)
(1.68436e-05 1.25916e-05 0)
(1.72741e-05 1.30302e-05 0)
(1.77016e-05 1.34729e-05 0)
(1.8127e-05 1.39204e-05 0)
(1.85506e-05 1.43735e-05 0)
(1.89731e-05 1.48331e-05 0)
(1.93949e-05 1.53001e-05 0)
(1.98163e-05 1.57763e-05 0)
(2.02377e-05 1.62624e-05 0)
(1.05307e-05 7.07497e-06 0)
(1.10977e-05 7.57414e-06 0)
(1.16571e-05 8.06564e-06 0)
(1.21953e-05 8.54391e-06 0)
(1.27207e-05 9.01358e-06 0)
(1.32319e-05 9.47626e-06 0)
(1.37314e-05 9.93404e-06 0)
(1.42202e-05 1.03886e-05 0)
(1.46995e-05 1.08415e-05 0)
(1.51706e-05 1.1294e-05 0)
(1.56345e-05 1.17471e-05 0)
(1.60921e-05 1.2202e-05 0)
(1.65445e-05 1.26594e-05 0)
(1.69925e-05 1.31202e-05 0)
(1.74368e-05 1.35852e-05 0)
(1.78784e-05 1.40553e-05 0)
(1.83177e-05 1.45314e-05 0)
(1.87557e-05 1.50148e-05 0)
(1.91929e-05 1.5507e-05 0)
(1.96302e-05 1.60093e-05 0)
(9.39257e-06 6.3503e-06 0)
(1.0007e-05 6.88789e-06 0)
(1.06092e-05 7.4125e-06 0)
(1.11909e-05 7.92517e-06 0)
(1.17564e-05 8.4268e-06 0)
(1.23059e-05 8.91982e-06 0)
(1.2841e-05 9.40603e-06 0)
(1.33628e-05 9.88736e-06 0)
(1.38728e-05 1.03655e-05 0)
(1.43721e-05 1.08418e-05 0)
(1.4862e-05 1.13177e-05 0)
(1.53437e-05 1.17943e-05 0)
(1.58183e-05 1.22726e-05 0)
(1.62869e-05 1.27534e-05 0)
(1.67504e-05 1.32377e-05 0)
(1.72099e-05 1.37263e-05 0)
(1.76662e-05 1.42204e-05 0)
(1.81204e-05 1.47209e-05 0)
(1.85732e-05 1.52298e-05 0)
(1.90264e-05 1.57481e-05 0)
(8.51434e-06 5.8068e-06 0)
(9.1551e-06 6.37233e-06 0)
(9.77983e-06 6.91569e-06 0)
(1.03851e-05 7.44799e-06 0)
(1.09735e-05 7.96919e-06 0)
(1.1545e-05 8.48156e-06 0)
(1.21012e-05 8.9868e-06 0)
(1.2643e-05 9.48657e-06 0)
(1.31717e-05 9.98242e-06 0)
(1.36885e-05 1.04757e-05 0)
(1.41946e-05 1.09677e-05 0)
(1.46913e-05 1.14595e-05 0)
(1.51796e-05 1.1952e-05 0)
(1.56607e-05 1.24461e-05 0)
(1.61357e-05 1.29427e-05 0)
(1.66057e-05 1.34426e-05 0)
(1.70717e-05 1.39468e-05 0)
(1.75351e-05 1.44562e-05 0)
(1.79967e-05 1.49725e-05 0)
(1.84587e-05 1.54967e-05 0)
(7.92806e-06 5.48149e-06 0)
(8.56896e-06 6.04702e-06 0)
(9.19391e-06 6.59487e-06 0)
(9.80123e-06 7.13321e-06 0)
(1.03926e-05 7.66186e-06 0)
(1.09679e-05 8.18239e-06 0)
(1.15284e-05 8.69616e-06 0)
(1.20747e-05 9.20448e-06 0)
(1.2608e-05 9.70866e-06 0)
(1.31293e-05 1.02098e-05 0)
(1.36396e-05 1.07091e-05 0)
(1.41402e-05 1.12074e-05 0)
(1.4632e-05 1.17056e-05 0)
(1.51161e-05 1.22045e-05 0)
(1.55937e-05 1.27048e-05 0)
(1.6066e-05 1.32073e-05 0)
(1.65339e-05 1.37127e-05 0)
(1.69989e-05 1.42219e-05 0)
(1.74618e-05 1.47361e-05 0)
(1.79255e-05 1.52561e-05 0)
(7.41046e-06 5.16911e-06 0)
(8.03985e-06 5.73301e-06 0)
(8.65845e-06 6.28248e-06 0)
(9.26113e-06 6.8245e-06 0)
(9.85014e-06 7.35852e-06 0)
(1.04244e-05 7.88551e-06 0)
(1.09849e-05 8.40648e-06 0)
(1.15321e-05 8.92234e-06 0)
(1.20667e-05 9.43411e-06 0)
(1.25897e-05 9.94268e-06 0)
(1.31018e-05 1.04489e-05 0)
(1.36042e-05 1.09536e-05 0)
(1.40978e-05 1.14574e-05 0)
(1.45836e-05 1.1961e-05 0)
(1.50627e-05 1.2465e-05 0)
(1.55363e-05 1.297e-05 0)
(1.60053e-05 1.34766e-05 0)
(1.64713e-05 1.39853e-05 0)
(1.69353e-05 1.44971e-05 0)
(1.74e-05 1.50123e-05 0)
(6.94648e-06 4.8682e-06 0)
(7.56082e-06 5.4276e-06 0)
(8.16833e-06 5.9766e-06 0)
(8.76204e-06 6.52081e-06 0)
(9.34443e-06 7.05892e-06 0)
(9.91367e-06 7.59137e-06 0)
(1.04707e-05 8.11867e-06 0)
(1.10154e-05 8.64138e-06 0)
(1.15484e-05 9.16017e-06 0)
(1.20704e-05 9.67567e-06 0)
(1.25822e-05 1.01885e-05 0)
(1.30845e-05 1.06993e-05 0)
(1.35782e-05 1.12085e-05 0)
(1.40643e-05 1.17167e-05 0)
(1.45438e-05 1.22243e-05 0)
(1.50177e-05 1.27316e-05 0)
(1.54871e-05 1.32391e-05 0)
(1.59536e-05 1.37473e-05 0)
(1.6418e-05 1.42564e-05 0)
(1.68834e-05 1.47665e-05 0)
(6.53082e-06 4.58197e-06 0)
(7.12669e-06 5.13516e-06 0)
(7.71931e-06 5.68191e-06 0)
(8.30039e-06 6.22645e-06 0)
(8.87262e-06 6.76697e-06 0)
(9.43355e-06 7.30339e-06 0)
(9.98395e-06 7.83575e-06 0)
(1.05234e-05 8.36422e-06 0)
(1.10523e-05 8.88912e-06 0)
(1.15711e-05 9.4108e-06 0)
(1.20804e-05 9.92965e-06 0)
(1.25808e-05 1.0446e-05 0)
(1.30732e-05 1.09603e-05 0)
(1.35583e-05 1.14728e-05 0)
(1.4037e-05 1.19837e-05 0)
(1.45104e-05 1.24933e-05 0)
(1.49796e-05 1.30016e-05 0)
(1.54456e-05 1.3509e-05 0)
(1.59104e-05 1.4015e-05 0)
(1.63761e-05 1.45198e-05 0)
(6.1555e-06 4.31025e-06 0)
(6.73105e-06 4.85565e-06 0)
(7.30625e-06 5.3986e-06 0)
(7.8722e-06 5.94201e-06 0)
(8.43158e-06 6.48355e-06 0)
(8.9816e-06 7.02269e-06 0)
(9.52283e-06 7.55897e-06 0)
(1.00546e-05 8.09219e-06 0)
(1.05772e-05 8.62232e-06 0)
(1.10908e-05 9.14943e-06 0)
(1.15958e-05 9.67363e-06 0)
(1.20928e-05 1.01951e-05 0)
(1.25824e-05 1.07139e-05 0)
(1.30654e-05 1.12303e-05 0)
(1.35425e-05 1.17442e-05 0)
(1.40146e-05 1.22557e-05 0)
(1.44828e-05 1.27648e-05 0)
(1.49484e-05 1.32711e-05 0)
(1.54122e-05 1.37741e-05 0)
(1.5877e-05 1.42739e-05 0)
(5.81405e-06 4.05326e-06 0)
(6.36809e-06 4.58995e-06 0)
(6.92412e-06 5.12795e-06 0)
(7.47307e-06 5.66896e-06 0)
(8.01757e-06 6.21026e-06 0)
(8.55461e-06 6.75088e-06 0)
(9.08465e-06 7.28993e-06 0)
(9.60679e-06 7.82684e-06 0)
(1.01212e-05 8.36124e-06 0)
(1.06279e-05 8.89291e-06 0)
(1.11272e-05 9.42171e-06 0)
(1.16194e-05 9.94757e-06 0)
(1.2105e-05 1.04704e-05 0)
(1.25848e-05 1.09902e-05 0)
(1.30593e-05 1.15068e-05 0)
(1.35295e-05 1.202e-05 0)
(1.39961e-05 1.25295e-05 0)
(1.44604e-05 1.30349e-05 0)
(1.49232e-05 1.35352e-05 0)
(1.53869e-05 1.40299e-05 0)
(5.50007e-06 3.81037e-06 0)
(6.03205e-06 4.33775e-06 0)
(6.56784e-06 4.86996e-06 0)
(7.09855e-06 5.40761e-06 0)
(7.6267e-06 5.94763e-06 0)
(8.14924e-06 6.4887e-06 0)
(8.6665e-06 7.02949e-06 0)
(9.17748e-06 7.56911e-06 0)
(9.68224e-06 8.10686e-06 0)
(1.01806e-05 8.64224e-06 0)
(1.06728e-05 9.17487e-06 0)
(1.1159e-05 9.70444e-06 0)
(1.16397e-05 1.02307e-05 0)
(1.21154e-05 1.07534e-05 0)
(1.25866e-05 1.12722e-05 0)
(1.30542e-05 1.17868e-05 0)
(1.35187e-05 1.22967e-05 0)
(1.39813e-05 1.2801e-05 0)
(1.44425e-05 1.32987e-05 0)
(1.49047e-05 1.37891e-05 0)
(5.20791e-06 3.58086e-06 0)
(5.7176e-06 4.09875e-06 0)
(6.2325e-06 4.62468e-06 0)
(6.74415e-06 5.15825e-06 0)
(7.25492e-06 5.69619e-06 0)
(7.76182e-06 6.23681e-06 0)
(8.26511e-06 6.77842e-06 0)
(8.76373e-06 7.31983e-06 0)
(9.25763e-06 7.86004e-06 0)
(9.74656e-06 8.39829e-06 0)
(1.02306e-05 8.93395e-06 0)
(1.07099e-05 9.46653e-06 0)
(1.11848e-05 9.99556e-06 0)
(1.16557e-05 1.05206e-05 0)
(1.2123e-05 1.10413e-05 0)
(1.25873e-05 1.15569e-05 0)
(1.30492e-05 1.20669e-05 0)
(1.35097e-05 1.25704e-05 0)
(1.39692e-05 1.30658e-05 0)
(1.44295e-05 1.35523e-05 0)
(4.93229e-06 3.36387e-06 0)
(5.41969e-06 3.87238e-06 0)
(5.91338e-06 4.39178e-06 0)
(6.40546e-06 4.92082e-06 0)
(6.89815e-06 5.45606e-06 0)
(7.38862e-06 5.9955e-06 0)
(7.87707e-06 6.53715e-06 0)
(8.36243e-06 7.07952e-06 0)
(8.84459e-06 7.62137e-06 0)
(9.32321e-06 8.16167e-06 0)
(9.79833e-06 8.6996e-06 0)
(1.027e-05 9.23445e-06 0)
(1.07384e-05 9.7656e-06 0)
(1.12038e-05 1.02925e-05 0)
(1.16666e-05 1.08145e-05 0)
(1.21273e-05 1.13309e-05 0)
(1.25863e-05 1.18409e-05 0)
(1.30443e-05 1.23436e-05 0)
(1.35017e-05 1.28371e-05 0)
(1.39598e-05 1.33205e-05 0)
(4.66838e-06 3.15854e-06 0)
(5.13356e-06 3.65802e-06 0)
(5.60588e-06 4.17088e-06 0)
(6.07808e-06 4.69515e-06 0)
(6.55225e-06 5.22726e-06 0)
(7.02576e-06 5.76494e-06 0)
(7.49877e-06 6.30594e-06 0)
(7.97024e-06 6.84854e-06 0)
(8.44002e-06 7.39125e-06 0)
(8.90773e-06 7.93284e-06 0)
(9.37333e-06 8.47228e-06 0)
(9.83676e-06 9.0087e-06 0)
(1.02982e-05 9.54132e-06 0)
(1.07577e-05 1.00694e-05 0)
(1.12157e-05 1.05923e-05 0)
(1.16724e-05 1.11092e-05 0)
(1.21282e-05 1.16191e-05 0)
(1.25835e-05 1.2121e-05 0)
(1.30385e-05 1.26132e-05 0)
(1.34942e-05 1.30944e-05 0)
(4.41166e-06 2.96416e-06 0)
(4.85468e-06 3.45513e-06 0)
(5.30555e-06 3.96158e-06 0)
(5.7577e-06 4.48099e-06 0)
(6.21307e-06 5.00967e-06 0)
(6.6693e-06 5.54513e-06 0)
(7.1265e-06 6.08491e-06 0)
(7.5837e-06 6.62708e-06 0)
(8.04071e-06 7.16994e-06 0)
(8.49713e-06 7.71209e-06 0)
(8.95282e-06 8.25232e-06 0)
(9.4077e-06 8.78962e-06 0)
(9.8618e-06 9.32306e-06 0)
(1.03152e-05 9.85184e-06 0)
(1.0768e-05 1.03751e-05 0)
(1.12205e-05 1.08921e-05 0)
(1.16729e-05 1.14018e-05 0)
(1.21254e-05 1.19031e-05 0)
(1.2578e-05 1.23943e-05 0)
(1.30311e-05 1.28743e-05 0)
(4.15772e-06 2.78006e-06 0)
(4.5786e-06 3.26314e-06 0)
(5.00795e-06 3.76344e-06 0)
(5.43995e-06 4.27801e-06 0)
(5.8764e-06 4.80306e-06 0)
(6.31519e-06 5.33594e-06 0)
(6.75643e-06 5.87399e-06 0)
(7.19919e-06 6.41513e-06 0)
(7.64327e-06 6.95749e-06 0)
(8.08823e-06 7.49952e-06 0)
(8.53389e-06 8.03986e-06 0)
(8.98007e-06 8.57737e-06 0)
(9.42673e-06 9.11102e-06 0)
(9.87385e-06 9.63991e-06 0)
(1.03215e-05 1.01632e-05 0)
(1.07697e-05 1.06799e-05 0)
(1.12185e-05 1.11892e-05 0)
(1.16681e-05 1.169e-05 0)
(1.21182e-05 1.21807e-05 0)
(1.25688e-05 1.26603e-05 0)
(3.90228e-06 2.60597e-06 0)
(4.3009e-06 3.08179e-06 0)
(4.70865e-06 3.57624e-06 0)
(5.12045e-06 4.08602e-06 0)
(5.53795e-06 4.60728e-06 0)
(5.95931e-06 5.13723e-06 0)
(6.3846e-06 5.67309e-06 0)
(6.81298e-06 6.21264e-06 0)
(7.24419e-06 6.75388e-06 0)
(7.67777e-06 7.29513e-06 0)
(8.11348e-06 7.83491e-06 0)
(8.55107e-06 8.37199e-06 0)
(8.99038e-06 8.90525e-06 0)
(9.4313e-06 9.43371e-06 0)
(9.87375e-06 9.95647e-06 0)
(1.03177e-05 1.04727e-05 0)
(1.07631e-05 1.09814e-05 0)
(1.12097e-05 1.14818e-05 0)
(1.16574e-05 1.19724e-05 0)
(1.21056e-05 1.24524e-05 0)
(3.64082e-06 2.44141e-06 0)
(4.01696e-06 2.91061e-06 0)
(4.40298e-06 3.39949e-06 0)
(4.79457e-06 3.90454e-06 0)
(5.19322e-06 4.42187e-06 0)
(5.59731e-06 4.94859e-06 0)
(6.00688e-06 5.48182e-06 0)
(6.42116e-06 6.01926e-06 0)
(6.83981e-06 6.55879e-06 0)
(7.26236e-06 7.09864e-06 0)
(7.68847e-06 7.63726e-06 0)
(8.1178e-06 8.1733e-06 0)
(8.55008e-06 8.70561e-06 0)
(8.9851e-06 9.23314e-06 0)
(9.42265e-06 9.75497e-06 0)
(9.86255e-06 1.02703e-05 0)
(1.03046e-05 1.07783e-05 0)
(1.07485e-05 1.12782e-05 0)
(1.11939e-05 1.17689e-05 0)
(1.16399e-05 1.22501e-05 0)
(3.36874e-06 2.28693e-06 0)
(3.72204e-06 2.74995e-06 0)
(4.08618e-06 3.2334e-06 0)
(4.45763e-06 3.73366e-06 0)
(4.83761e-06 4.24681e-06 0)
(5.22478e-06 4.7699e-06 0)
(5.61909e-06 5.30001e-06 0)
(6.01978e-06 5.83474e-06 0)
(6.42646e-06 6.37194e-06 0)
(6.83858e-06 6.90976e-06 0)
(7.25572e-06 7.44658e-06 0)
(7.67741e-06 7.981e-06 0)
(8.10327e-06 8.5118e-06 0)
(8.53294e-06 9.03791e-06 0)
(8.96607e-06 9.55841e-06 0)
(9.40235e-06 1.00725e-05 0)
(9.84145e-06 1.05795e-05 0)
(1.02829e-05 1.10789e-05 0)
(1.07262e-05 1.15699e-05 0)
(1.11703e-05 1.20527e-05 0)
(3.08065e-06 2.1417e-06 0)
(3.41069e-06 2.59891e-06 0)
(3.75283e-06 3.07703e-06 0)
(4.1043e-06 3.5724e-06 0)
(4.46602e-06 4.08111e-06 0)
(4.83685e-06 4.60018e-06 0)
(5.2166e-06 5.12668e-06 0)
(5.60453e-06 5.65818e-06 0)
(6.00015e-06 6.19248e-06 0)
(6.4028e-06 6.72769e-06 0)
(6.81193e-06 7.26215e-06 0)
(7.22696e-06 7.79442e-06 0)
(7.64733e-06 8.32324e-06 0)
(8.07254e-06 8.84753e-06 0)
(8.50207e-06 9.36635e-06 0)
(8.93543e-06 9.87895e-06 0)
(9.37215e-06 1.03847e-05 0)
(9.81164e-06 1.08834e-05 0)
(1.02533e-05 1.13748e-05 0)
(1.06959e-05 1.18592e-05 0)
(2.77121e-06 2.00803e-06 0)
(3.07756e-06 2.45929e-06 0)
(3.39767e-06 2.93169e-06 0)
(3.72947e-06 3.42166e-06 0)
(4.07355e-06 3.92531e-06 0)
(4.42886e-06 4.43967e-06 0)
(4.79508e-06 4.96182e-06 0)
(5.1714e-06 5.48934e-06 0)
(5.55718e-06 6.01999e-06 0)
(5.95164e-06 6.55188e-06 0)
(6.35409e-06 7.08332e-06 0)
(6.76376e-06 7.61285e-06 0)
(7.17994e-06 8.13918e-06 0)
(7.60192e-06 8.66122e-06 0)
(8.02901e-06 9.17803e-06 0)
(8.46051e-06 9.68889e-06 0)
(8.89575e-06 1.01933e-05 0)
(9.33399e-06 1.06911e-05 0)
(9.7745e-06 1.11825e-05 0)
(1.02161e-05 1.16685e-05 0)
(2.43263e-06 1.88268e-06 0)
(2.71497e-06 2.3279e-06 0)
(3.01327e-06 2.79431e-06 0)
(3.32608e-06 3.2785e-06 0)
(3.65352e-06 3.77663e-06 0)
(3.9946e-06 4.28579e-06 0)
(4.34877e-06 4.80306e-06 0)
(4.71509e-06 5.32604e-06 0)
(5.09275e-06 5.85251e-06 0)
(5.48082e-06 6.38057e-06 0)
(5.87839e-06 6.90853e-06 0)
(6.28454e-06 7.4349e-06 0)
(6.69835e-06 7.9584e-06 0)
(7.1189e-06 8.47792e-06 0)
(7.54526e-06 8.99253e-06 0)
(7.9765e-06 9.50151e-06 0)
(8.41171e-06 1.00044e-05 0)
(8.8499e-06 1.05012e-05 0)
(9.29018e-06 1.09924e-05 0)
(9.73137e-06 1.14794e-05 0)
(2.06049e-06 1.77306e-06 0)
(2.31867e-06 2.2108e-06 0)
(2.59569e-06 2.66973e-06 0)
(2.89041e-06 3.14667e-06 0)
(3.20253e-06 3.63787e-06 0)
(3.53094e-06 4.14046e-06 0)
(3.87482e-06 4.65158e-06 0)
(4.23304e-06 5.16884e-06 0)
(4.60458e-06 5.69005e-06 0)
(4.98829e-06 6.21329e-06 0)
(5.38308e-06 6.73689e-06 0)
(5.78781e-06 7.25937e-06 0)
(6.20134e-06 7.77945e-06 0)
(6.62255e-06 8.296e-06 0)
(7.05026e-06 8.80812e-06 0)
(7.48327e-06 9.3151e-06 0)
(7.92036e-06 9.81652e-06 0)
(8.36017e-06 1.03123e-05 0)
(8.80156e-06 1.08031e-05 0)
(9.24306e-06 1.12904e-05 0)
(2.96782e-07 3.18394e-08 0)
(8.96465e-07 1.97127e-07 0)
(1.53399e-06 5.05703e-07 0)
(2.21756e-06 9.36837e-07 0)
(2.96032e-06 1.47877e-06 0)
(3.76632e-06 2.11211e-06 0)
(4.63874e-06 2.81623e-06 0)
(5.57601e-06 3.56953e-06 0)
(6.57529e-06 4.35019e-06 0)
(7.6313e-06 5.14032e-06 0)
(2.79539e-07 2.8437e-08 0)
(8.45002e-07 1.76928e-07 0)
(1.44462e-06 4.57048e-07 0)
(2.08471e-06 8.52023e-07 0)
(2.77728e-06 1.353e-06 0)
(3.52612e-06 1.94369e-06 0)
(4.33448e-06 2.60618e-06 0)
(5.20093e-06 3.32141e-06 0)
(6.12224e-06 4.06841e-06 0)
(7.0929e-06 4.833e-06 0)
(2.64032e-07 2.43978e-08 0)
(7.98812e-07 1.56443e-07 0)
(1.36486e-06 4.09965e-07 0)
(1.9664e-06 7.71199e-07 0)
(2.61414e-06 1.23351e-06 0)
(3.31129e-06 1.7831e-06 0)
(4.06135e-06 2.40436e-06 0)
(4.86376e-06 3.08088e-06 0)
(5.71726e-06 3.79362e-06 0)
(6.61591e-06 4.5325e-06 0)
(2.49845e-07 1.97296e-08 0)
(7.56736e-07 1.35908e-07 0)
(1.29308e-06 3.65425e-07 0)
(1.86117e-06 6.96668e-07 0)
(2.47059e-06 1.12462e-06 0)
(3.12369e-06 1.63742e-06 0)
(3.82375e-06 2.22111e-06 0)
(4.56979e-06 2.86104e-06 0)
(5.36194e-06 3.53915e-06 0)
(6.193e-06 4.24672e-06 0)
(2.3658e-07 1.43666e-08 0)
(7.17456e-07 1.14571e-07 0)
(1.22652e-06 3.21331e-07 0)
(1.76432e-06 6.24638e-07 0)
(2.33942e-06 1.02068e-06 0)
(2.95338e-06 1.49911e-06 0)
(3.60947e-06 2.04747e-06 0)
(4.30632e-06 2.65276e-06 0)
(5.04545e-06 3.29845e-06 0)
(5.81739e-06 3.97569e-06 0)
(2.2413e-07 8.41013e-09 0)
(6.80648e-07 9.25934e-08 0)
(1.1646e-06 2.77943e-07 0)
(1.67495e-06 5.55619e-07 0)
(2.21938e-06 9.22671e-07 0)
(2.79859e-06 1.36986e-06 0)
(3.41572e-06 1.88582e-06 0)
(4.06879e-06 2.45858e-06 0)
(4.76065e-06 3.07311e-06 0)
(5.48025e-06 3.71995e-06 0)
(2.12243e-07 1.82558e-09 0)
(6.45529e-07 6.96465e-08 0)
(1.10582e-06 2.34323e-07 0)
(1.59066e-06 4.87885e-07 0)
(2.10701e-06 8.28014e-07 0)
(2.65482e-06 1.24633e-06 0)
(3.23715e-06 1.73243e-06 0)
(3.85144e-06 2.27512e-06 0)
(4.5014e-06 2.86084e-06 0)
(5.17494e-06 3.47908e-06 0)
(2.00827e-07 -5.29786e-09 0)
(6.1181e-07 4.58351e-08 0)
(1.04962e-06 1.90508e-07 0)
(1.51051e-06 4.21394e-07 0)
(2.00085e-06 7.36611e-07 0)
(2.51988e-06 1.12837e-06 0)
(3.07055e-06 1.58702e-06 0)
(3.64986e-06 2.10187e-06 0)
(4.26212e-06 2.6607e-06 0)
(4.89488e-06 3.25216e-06 0)
(1.89734e-07 -1.2964e-08 0)
(5.79052e-07 2.10276e-08 0)
(9.95184e-07 1.46084e-07 0)
(1.43323e-06 3.55356e-07 0)
(1.89904e-06 6.47268e-07 0)
(2.39127e-06 1.01446e-06 0)
(2.91277e-06 1.44787e-06 0)
(3.46025e-06 1.93717e-06 0)
(4.03826e-06 2.47126e-06 0)
(4.63453e-06 3.03814e-06 0)
(1.78885e-07 -2.11219e-08 0)
(5.47008e-07 -4.72652e-09 0)
(9.42041e-07 1.01012e-07 0)
(1.35802e-06 2.89615e-07 0)
(1.80035e-06 5.59676e-07 0)
(2.26718e-06 9.04099e-07 0)
(2.76128e-06 1.31427e-06 0)
(3.27926e-06 1.78011e-06 0)
(3.82568e-06 2.29145e-06 0)
(4.38886e-06 2.83589e-06 0)
(1.68191e-07 -2.97704e-08 0)
(5.15421e-07 -3.14887e-08 0)
(8.89717e-07 5.50897e-08 0)
(1.28411e-06 2.23793e-07 0)
(1.70359e-06 4.73264e-07 0)
(2.14595e-06 7.96544e-07 0)
(2.61385e-06 1.18534e-06 0)
(3.10398e-06 1.62972e-06 0)
(3.62075e-06 2.12024e-06 0)
(4.15337e-06 2.64436e-06 0)
(1.57593e-07 -3.88915e-08 0)
(4.8413e-07 -5.92599e-08 0)
(8.37889e-07 8.26262e-09 0)
(1.21091e-06 1.57781e-07 0)
(1.6078e-06 3.87838e-07 0)
(2.02612e-06 6.91491e-07 0)
(2.46845e-06 1.06062e-06 0)
(2.93173e-06 1.4854e-06 0)
(3.42014e-06 1.95693e-06 0)
(3.92393e-06 2.46274e-06 0)
(1.47057e-07 -4.85087e-08 0)
(4.53065e-07 -8.81291e-08 0)
(7.8635e-07 -3.96229e-08 0)
(1.13796e-06 9.13789e-08 0)
(1.51213e-06 3.03139e-07 0)
(1.90637e-06 5.88602e-07 0)
(2.32322e-06 9.39677e-07 0)
(2.76001e-06 1.34662e-06 0)
(3.22066e-06 1.80091e-06 0)
(3.6966e-06 2.29029e-06 0)
(1.3658e-07 -5.87013e-08 0)
(4.22272e-07 -1.18196e-07 0)
(7.35025e-07 -8.86129e-08 0)
(1.06492e-06 2.46484e-08 0)
(1.41586e-06 2.19293e-07 0)
(1.78545e-06 4.8801e-07 0)
(2.17634e-06 8.22601e-07 0)
(2.58636e-06 1.21336e-06 0)
(3.01921e-06 1.65207e-06 0)
(3.46754e-06 2.12675e-06 0)
(1.26256e-07 -6.9619e-08 0)
(3.92125e-07 -1.49723e-07 0)
(6.84187e-07 -1.38946e-07 0)
(9.91717e-07 -4.25709e-08 0)
(1.31837e-06 1.36208e-07 0)
(1.66217e-06 3.89631e-07 0)
(2.02595e-06 7.09268e-07 0)
(2.40822e-06 1.08543e-06 0)
(2.8125e-06 1.5101e-06 0)
(3.23274e-06 1.97168e-06 0)
(1.16285e-07 -8.17678e-08 0)
(3.63237e-07 -1.83084e-07 0)
(6.34289e-07 -1.90529e-07 0)
(9.18372e-07 -1.09675e-07 0)
(1.21908e-06 5.48231e-08 0)
(1.53524e-06 2.94563e-07 0)
(1.87009e-06 6.00796e-07 0)
(2.22292e-06 9.63856e-07 0)
(2.59718e-06 1.37592e-06 0)
(2.98808e-06 1.82583e-06 0)
(1.07404e-07 -9.57468e-08 0)
(3.37514e-07 -2.19031e-07 0)
(5.86911e-07 -2.43864e-07 0)
(8.45555e-07 -1.77009e-07 0)
(1.11761e-06 -2.50792e-08 0)
(1.40326e-06 2.02594e-07 0)
(1.70639e-06 4.96915e-07 0)
(2.02723e-06 8.48258e-07 0)
(2.36914e-06 1.249e-06 0)
(2.72867e-06 1.68847e-06 0)
(1.01184e-07 -1.14147e-07 0)
(3.17168e-07 -2.58724e-07 0)
(5.4358e-07 -2.97882e-07 0)
(7.73591e-07 -2.41888e-07 0)
(1.01323e-06 -1.00057e-07 0)
(1.26452e-06 1.17437e-07 0)
(1.5323e-06 4.01293e-07 0)
(1.81776e-06 7.42106e-07 0)
(2.12426e-06 1.13251e-06 0)
(2.44961e-06 1.56242e-06 0)
(1.05276e-07 -1.38873e-07 0)
(3.10444e-07 -3.03593e-07 0)
(5.09546e-07 -3.53606e-07 0)
(7.04322e-07 -3.05861e-07 0)
(9.05132e-07 -1.71984e-07 0)
(1.11629e-06 3.68565e-08 0)
(1.34363e-06 3.11411e-07 0)
(1.58913e-06 6.42606e-07 0)
(1.85615e-06 1.02345e-06 0)
(2.14355e-06 1.44448e-06 0)
(1.35867e-07 -1.83637e-07 0)
(3.22532e-07 -3.54682e-07 0)
(4.87303e-07 -4.03954e-07 0)
(6.37508e-07 -3.57927e-07 0)
(7.92077e-07 -2.29168e-07 0)
(9.56477e-07 -2.75635e-08 0)
(1.13773e-06 2.38288e-07 0)
(1.33814e-06 5.60103e-07 0)
(1.56118e-06 9.31341e-07 0)
(1.80627e-06 1.34327e-06 0)
)
;

boundaryField
{
    left
    {
        type            fixedDisplacement;
        value           uniform (0 0 0);
    }
    right
    {
        type            solidTraction;
        tractionSeries  
{
        file            "$FOAM_CASE/constant/timeVsTraction";
        outOfBounds     clamp;
}
        pressure        uniform 0;
        secondOrder     false;
        setEffectiveTraction false;
        relaxationFactor 1;
        value           nonuniform List<vector> 
30
(
(2.45645e-05 1.80229e-05 -1.01215e-20)
(2.39918e-05 1.78165e-05 -1.01826e-20)
(2.3414e-05 1.76116e-05 -1.02883e-20)
(2.28296e-05 1.74043e-05 -1.04305e-20)
(2.22386e-05 1.71923e-05 -1.06099e-20)
(2.16424e-05 1.69735e-05 -1.08278e-20)
(2.1043e-05 1.67466e-05 -1.10868e-20)
(2.0443e-05 1.65109e-05 -1.13894e-20)
(1.98449e-05 1.62664e-05 -1.17383e-20)
(1.92513e-05 1.60138e-05 -1.21363e-20)
(1.86899e-05 1.57652e-05 -1.23355e-20)
(1.81575e-05 1.55208e-05 -1.22811e-20)
(1.76326e-05 1.52729e-05 -1.22451e-20)
(1.71163e-05 1.50225e-05 -1.22267e-20)
(1.6609e-05 1.47714e-05 -1.2229e-20)
(1.61096e-05 1.45213e-05 -1.22505e-20)
(1.56189e-05 1.4273e-05 -1.22883e-20)
(1.5136e-05 1.40284e-05 -1.23421e-20)
(1.46598e-05 1.37886e-05 -1.2409e-20)
(1.4189e-05 1.35544e-05 -1.24863e-20)
(1.37222e-05 1.33266e-05 -1.25706e-20)
(1.32577e-05 1.31057e-05 -1.26583e-20)
(1.27941e-05 1.28917e-05 -1.27455e-20)
(1.23296e-05 1.26847e-05 -1.28284e-20)
(1.18628e-05 1.24839e-05 -1.29026e-20)
(1.13923e-05 1.22887e-05 -1.29651e-20)