/*--------------------------------*- C++ -*----------------------------------*\
  =========                 |
  \\      /  F ield         | OpenFOAM: The Open Source CFD Toolbox
   \\    /   O peration     | Website:  https://openfoam.org
    \\  /    A nd           | Version:  9
     \\/     M anipulation  |
\*---------------------------------------------------------------------------*/
FoamFile
{
    format      ascii;
    class       volVectorField;
    location    "15";
    object      D_0;
}
// * * * * * * * * * * * * * * * * * * * * * * * * * * * * * * * * * * * * * //

dimensions      [0 1 0 0 0 0 0];

internalField   nonuniform List<vector> 
1000
(
(9.46809e-06 3.18505e-06 0)
(8.83522e-06 3.515e-06 0)
(8.37414e-06 3.79445e-06 0)
(8.04078e-06 4.01237e-06 0)
(7.80299e-06 4.20063e-06 0)
(7.63511e-06 4.36258e-06 0)
(7.52144e-06 4.50851e-06 0)
(7.44921e-06 4.64142e-06 0)
(7.40842e-06 4.76541e-06 0)
(7.39396e-06 4.88296e-06 0)
(8.53166e-06 2.87244e-06 0)
(7.87523e-06 3.11135e-06 0)
(7.39936e-06 3.32283e-06 0)
(7.05707e-06 3.48573e-06 0)
(6.8133e-06 3.62878e-06 0)
(6.64058e-06 3.75188e-06 0)
(6.52224e-06 3.86348e-06 0)
(6.44474e-06 3.96559e-06 0)
(6.39782e-06 4.0603e-06 0)
(6.37457e-06 4.15272e-06 0)
(7.57309e-06 2.55528e-06 0)
(6.91274e-06 2.69954e-06 0)
(6.43531e-06 2.84046e-06 0)
(6.09414e-06 2.94835e-06 0)
(5.85183e-06 3.0471e-06 0)
(5.68014e-06 3.13316e-06 0)
(5.56171e-06 3.21271e-06 0)
(5.48275e-06 3.28649e-06 0)
(5.43291e-06 3.35472e-06 0)
(5.40492e-06 3.42316e-06 0)
(6.60273e-06 2.2447e-06 0)
(5.95487e-06 2.29102e-06 0)
(5.49005e-06 2.36051e-06 0)
(5.16001e-06 2.41416e-06 0)
(4.92694e-06 2.47069e-06 0)
(4.76243e-06 2.52231e-06 0)
(4.64891e-06 2.57281e-06 0)
(4.57248e-06 2.62124e-06 0)
(4.52339e-06 2.66633e-06 0)
(4.49368e-06 2.71334e-06 0)
(5.62223e-06 1.9483e-06 0)
(5.00445e-06 1.89518e-06 0)
(4.56688e-06 1.89561e-06 0)
(4.25854e-06 1.89777e-06 0)
(4.04348e-06 1.91588e-06 0)
(3.89266e-06 1.93714e-06 0)
(3.78913e-06 1.96282e-06 0)
(3.71917e-06 1.98994e-06 0)
(3.67392e-06 2.01593e-06 0)
(3.64516e-06 2.04486e-06 0)
(4.62948e-06 1.65757e-06 0)
(4.06335e-06 1.51672e-06 0)
(3.6671e-06 1.45282e-06 0)
(3.39293e-06 1.41126e-06 0)
(3.20489e-06 1.39715e-06 0)
(3.07452e-06 1.3944e-06 0)
(2.98589e-06 1.4009e-06 0)
(2.92605e-06 1.41191e-06 0)
(2.88731e-06 1.42373e-06 0)
(2.86168e-06 1.43892e-06 0)
(3.62055e-06 1.37203e-06 0)
(3.12789e-06 1.15571e-06 0)
(2.79004e-06 1.04051e-06 0)
(2.56339e-06 9.66762e-07 0)
(2.41157e-06 9.30304e-07 0)
(2.30807e-06 9.11847e-07 0)
(2.23866e-06 9.06159e-07 0)
(2.19193e-06 9.07032e-07 0)
(2.16169e-06 9.10025e-07 0)
(2.14083e-06 9.16195e-07 0)
(2.61021e-06 1.08455e-06 0)
(2.20415e-06 8.10999e-07 0)
(1.94324e-06 6.66032e-07 0)
(1.77549e-06 5.77292e-07 0)
(1.66716e-06 5.31877e-07 0)
(1.59481e-06 5.08025e-07 0)
(1.54706e-06 4.98046e-07 0)
(1.51495e-06 4.95115e-07 0)
(1.49413e-06 4.94652e-07 0)
(1.47903e-06 4.96613e-07 0)
(1.57319e-06 7.79312e-07 0)
(1.28672e-06 4.8606e-07 0)
(1.12499e-06 3.38723e-07 0)
(1.02565e-06 2.59287e-07 0)
(9.66054e-07 2.20744e-07 0)
(9.26819e-07 2.02032e-07 0)
(9.0148e-07 1.94697e-07 0)
(8.8417e-07 1.9279e-07 0)
(8.72736e-07 1.92613e-07 0)
(8.6374e-07 1.93736e-07 0)
(5.4793e-07 4.02346e-07 0)
(4.09618e-07 1.90236e-07 0)
(3.59142e-07 9.0201e-08 0)
(3.32412e-07 5.1892e-08 0)
(3.16456e-07 3.47495e-08 0)
(3.05592e-07 2.8978e-08 0)
(2.98326e-07 2.76393e-08 0)
(2.93088e-07 2.84179e-08 0)
(2.89454e-07 2.94405e-08 0)
(2.86272e-07 3.07078e-08 0)
(1.66922e-05 5.15445e-06 0)
(1.66644e-05 5.79539e-06 0)
(1.66453e-05 6.39254e-06 0)
(1.66457e-05 6.93921e-06 0)
(1.66707e-05 7.44105e-06 0)
(1.67219e-05 7.90427e-06 0)
(1.67997e-05 8.33611e-06 0)
(1.69025e-05 8.74283e-06 0)
(1.70293e-05 9.12938e-06 0)
(1.7177e-05 9.50126e-06 0)
(1.61688e-05 5.1121e-06 0)
(1.60945e-05 5.75117e-06 0)
(1.60438e-05 6.34103e-06 0)
(1.60213e-05 6.87668e-06 0)
(1.60294e-05 7.36504e-06 0)
(1.60667e-05 7.81276e-06 0)
(1.61318e-05 8.22774e-06 0)
(1.62218e-05 8.61662e-06 0)
(1.63354e-05 8.98453e-06 0)
(1.64681e-05 9.33774e-06 0)
(1.56137e-05 5.02621e-06 0)
(1.54841e-05 5.66361e-06 0)
(1.53906e-05 6.24145e-06 0)
(1.53342e-05 6.7598e-06 0)
(1.53156e-05 7.22919e-06 0)
(1.53304e-05 7.65715e-06 0)
(1.53758e-05 8.05215e-06 0)
(1.54472e-05 8.42092e-06 0)
(1.55431e-05 8.76881e-06 0)
(1.56572e-05 9.10225e-06 0)
(1.50137e-05 4.90136e-06 0)
(1.48222e-05 5.53566e-06 0)
(1.46789e-05 6.09877e-06 0)
(1.45824e-05 6.59599e-06 0)
(1.4531e-05 7.04253e-06 0)
(1.45179e-05 7.44707e-06 0)
(1.45389e-05 7.81885e-06 0)
(1.4588e-05 8.16467e-06 0)
(1.4663e-05 8.4901e-06 0)
(1.47563e-05 8.8015e-06 0)
(1.43621e-05 4.73873e-06 0)
(1.41027e-05 5.36485e-06 0)
(1.3906e-05 5.90859e-06 0)
(1.37673e-05 6.3798e-06 0)
(1.36812e-05 6.79902e-06 0)
(1.36386e-05 7.17609e-06 0)
(1.36339e-05 7.52121e-06 0)
(1.36595e-05 7.84111e-06 0)
(1.37129e-05 8.14165e-06 0)
(1.37847e-05 8.42878e-06 0)
(1.36579e-05 4.5421e-06 0)
(1.33267e-05 5.15139e-06 0)
(1.30756e-05 5.67015e-06 0)
(1.28946e-05 6.11087e-06 0)
(1.27742e-05 6.49908e-06 0)
(1.27026e-05 6.84541e-06 0)
(1.26725e-05 7.16101e-06 0)
(1.26751e-05 7.45239e-06 0)
(1.27073e-05 7.72584e-06 0)
(1.27583e-05 7.98651e-06 0)
(1.29028e-05 4.31448e-06 0)
(1.24989e-05 4.89529e-06 0)
(1.21946e-05 5.38192e-06 0)
(1.19733e-05 5.78725e-06 0)
(1.18207e-05 6.14088e-06 0)
(1.1722e-05 6.4536e-06 0)
(1.16685e-05 6.7373e-06 0)
(1.16499e-05 6.99815e-06 0)
(1.16624e-05 7.24272e-06 0)
(1.16943e-05 7.47529e-06 0)
(1.21009e-05 4.06014e-06 0)
(1.16267e-05 4.59894e-06 0)
(1.12726e-05 5.04555e-06 0)
(1.10146e-05 5.41064e-06 0)
(1.08331e-05 5.72654e-06 0)
(1.07105e-05 6.0034e-06 0)
(1.06363e-05 6.25352e-06 0)
(1.0599e-05 6.48236e-06 0)
(1.05941e-05 6.69684e-06 0)
(1.06096e-05 6.89985e-06 0)
(1.12573e-05 3.78352e-06 0)
(1.07192e-05 4.26608e-06 0)
(1.0321e-05 4.66445e-06 0)
(1.00311e-05 4.98453e-06 0)
(9.82516e-06 5.25989e-06 0)
(9.68267e-06 5.49921e-06 0)
(9.59114e-06 5.71461e-06 0)
(9.53848e-06 5.91087e-06 0)
(9.51865e-06 6.09439e-06 0)
(9.52062e-06 6.26746e-06 0)
(1.03778e-05 3.48995e-06 0)
(9.7857e-06 3.90237e-06 0)
(9.35111e-06 4.24473e-06 0)
(9.03561e-06 4.51548e-06 0)
(8.8106e-06 4.74808e-06 0)
(8.6527e-06 4.94883e-06 0)
(8.54781e-06 5.12929e-06 0)
(8.48321e-06 5.29292e-06 0)
(8.45149e-06 5.44599e-06 0)
(8.44391e-06 5.58719e-06 0)
(1.73535e-05 9.85897e-06 0)
(1.75562e-05 1.0214e-05 0)
(1.77744e-05 1.05634e-05 0)
(1.80065e-05 1.09087e-05 0)
(1.82511e-05 1.12517e-05 0)
(1.8507e-05 1.15935e-05 0)
(1.8773e-05 1.19351e-05 0)
(1.9048e-05 1.22774e-05 0)
(1.9331e-05 1.26212e-05 0)
(1.96212e-05 1.2967e-05 0)
(1.99177e-05 1.33153e-05 0)
(2.02197e-05 1.36666e-05 0)
(2.05264e-05 1.40213e-05 0)
(2.08371e-05 1.43796e-05 0)
(2.11512e-05 1.47418e-05 0)
(2.14679e-05 1.51079e-05 0)
(2.17866e-05 1.54778e-05 0)
(2.21064e-05 1.58514e-05 0)
(2.2427e-05 1.62279e-05 0)
(2.27475e-05 1.66062e-05 0)
(1.66521e-05 9.68191e-06 0)
(1.68797e-05 1.0031e-05 0)
(1.71196e-05 1.03748e-05 0)
(1.73697e-05 1.07151e-05 0)
(1.76297e-05 1.1054e-05 0)
(1.78985e-05 1.13922e-05 0)
(1.81753e-05 1.17309e-05 0)
(1.84594e-05 1.20709e-05 0)
(1.875e-05 1.2413e-05 0)
(1.90466e-05 1.27576e-05 0)
(1.93484e-05 1.31052e-05 0)
(1.96549e-05 1.34564e-05 0)
(1.99656e-05 1.38114e-05 0)
(2.02799e-05 1.41705e-05 0)
(2.05972e-05 1.45339e-05 0)
(2.09172e-05 1.49017e-05 0)
(2.12392e-05 1.52738e-05 0)
(2.15629e-05 1.565e-05 0)
(2.18876e-05 1.60296e-05 0)
(2.22127e-05 1.64118e-05 0)
(1.58514e-05 9.4362e-06 0)
(1.61112e-05 9.7859e-06 0)
(1.63799e-05 1.01304e-05 0)
(1.66548e-05 1.04714e-05 0)
(1.69368e-05 1.08112e-05 0)
(1.72245e-05 1.11504e-05 0)
(1.75181e-05 1.14904e-05 0)
(1.78167e-05 1.18318e-05 0)
(1.81203e-05 1.21755e-05 0)
(1.84282e-05 1.25221e-05 0)
(1.87401e-05 1.2872e-05 0)
(1.90558e-05 1.32256e-05 0)
(1.93748e-05 1.35833e-05 0)
(1.96967e-05 1.39455e-05 0)
(2.00214e-05 1.43123e-05 0)
(2.03484e-05 1.46839e-05 0)
(2.06774e-05 1.50603e-05 0)
(2.1008e-05 1.54414e-05 0)
(2.13399e-05 1.58269e-05 0)
(2.1672e-05 1.62161e-05 0)
(1.49632e-05 9.12723e-06 0)
(1.52612e-05 9.48258e-06 0)
(1.55648e-05 9.83297e-06 0)
(1.58705e-05 1.01792e-05 0)
(1.618e-05 1.05241e-05 0)
(1.64922e-05 1.08682e-05 0)
(1.68076e-05 1.1213e-05 0)
(1.71258e-05 1.15592e-05 0)
(1.74468e-05 1.19077e-05 0)
(1.77705e-05 1.22591e-05 0)
(1.80968e-05 1.26139e-05 0)
(1.84256e-05 1.29725e-05 0)
(1.87566e-05 1.33354e-05 0)
(1.90898e-05 1.3703e-05 0)
(1.94251e-05 1.40754e-05 0)
(1.97622e-05 1.4453e-05 0)
(2.01011e-05 1.48358e-05 0)
(2.04412e-05 1.52241e-05 0)
(2.07824e-05 1.56178e-05 0)
(2.11238e-05 1.60168e-05 0)
(1.40067e-05 8.74908e-06 0)
(1.43476e-05 9.11581e-06 0)
(1.46908e-05 9.4779e-06 0)
(1.50314e-05 9.83447e-06 0)
(1.53728e-05 1.01894e-05 0)
(1.57135e-05 1.05428e-05 0)
(1.60548e-05 1.08965e-05 0)
(1.63962e-05 1.12512e-05 0)
(1.67384e-05 1.16079e-05 0)
(1.70813e-05 1.19672e-05 0)
(1.74251e-05 1.23298e-05 0)
(1.777e-05 1.26962e-05 0)
(1.81159e-05 1.30668e-05 0)
(1.8463e-05 1.34421e-05 0)
(1.88114e-05 1.38225e-05 0)
(1.91609e-05 1.42082e-05 0)
(1.95116e-05 1.45996e-05 0)
(1.98633e-05 1.49971e-05 0)
(2.02158e-05 1.54012e-05 0)
(2.05682e-05 1.5812e-05 0)
(1.29976e-05 8.30395e-06 0)
(1.33845e-05 8.68741e-06 0)
(1.37708e-05 9.06661e-06 0)
(1.41497e-05 9.4384e-06 0)
(1.45263e-05 9.8079e-06 0)
(1.48986e-05 1.01748e-05 0)
(1.52687e-05 1.05413e-05 0)
(1.56363e-05 1.09081e-05 0)
(1.60024e-05 1.12763e-05 0)
(1.63672e-05 1.16467e-05 0)
(1.67311e-05 1.202e-05 0)
(1.70944e-05 1.23968e-05 0)
(1.74575e-05 1.27777e-05 0)
(1.78205e-05 1.31631e-05 0)
(1.81838e-05 1.35535e-05 0)
(1.85475e-05 1.39495e-05 0)
(1.89117e-05 1.43515e-05 0)
(1.92764e-05 1.47601e-05 0)
(1.96415e-05 1.51762e-05 0)
(2.00065e-05 1.56003e-05 0)
(1.19526e-05 7.79265e-06 0)
(1.23871e-05 8.19823e-06 0)
(1.28187e-05 8.59982e-06 0)
(1.32379e-05 8.99179e-06 0)
(1.36518e-05 9.38026e-06 0)
(1.40579e-05 9.76484e-06 0)
(1.4459e-05 1.01479e-05 0)
(1.48549e-05 1.05304e-05 0)
(1.5247e-05 1.09134e-05 0)
(1.56355e-05 1.1298e-05 0)
(1.60212e-05 1.16849e-05 0)
(1.64047e-05 1.20748e-05 0)
(1.67865e-05 1.24684e-05 0)
(1.7167e-05 1.28663e-05 0)
(1.75466e-05 1.3269e-05 0)
(1.79257e-05 1.36771e-05 0)
(1.83045e-05 1.40915e-05 0)
(1.86832e-05 1.45128e-05 0)
(1.90621e-05 1.49422e-05 0)
(1.94408e-05 1.53806e-05 0)
(1.08873e-05 7.21976e-06 0)
(1.13697e-05 7.65252e-06 0)
(1.1847e-05 8.08073e-06 0)
(1.23075e-05 8.49747e-06 0)
(1.27596e-05 8.90889e-06 0)
(1.32009e-05 9.31517e-06 0)
(1.36343e-05 9.7185e-06 0)
(1.406e-05 1.01201e-05 0)
(1.44793e-05 1.05212e-05 0)
(1.4893e-05 1.09229e-05 0)
(1.5302e-05 1.13261e-05 0)
(1.57069e-05 1.17317e-05 0)
(1.61085e-05 1.21404e-05 0)
(1.65074e-05 1.25529e-05 0)
(1.69042e-05 1.29699e-05 0)
(1.72994e-05 1.33921e-05 0)
(1.76936e-05 1.38204e-05 0)
(1.80871e-05 1.42556e-05 0)
(1.84803e-05 1.46994e-05 0)
(1.88735e-05 1.51525e-05 0)
(9.81767e-06 6.59063e-06 0)
(1.03467e-05 7.0559e-06 0)
(1.08686e-05 7.514e-06 0)
(1.13707e-05 7.95974e-06 0)
(1.18609e-05 8.39743e-06 0)
(1.23377e-05 8.8286e-06 0)
(1.28038e-05 9.25518e-06 0)
(1.32597e-05 9.67878e-06 0)
(1.3707e-05 1.01008e-05 0)
(1.41464e-05 1.05224e-05 0)
(1.45792e-05 1.09446e-05 0)
(1.50062e-05 1.13684e-05 0)
(1.54282e-05 1.17946e-05 0)
(1.58462e-05 1.2224e-05 0)
(1.62607e-05 1.26573e-05 0)
(1.66726e-05 1.30953e-05 0)
(1.70826e-05 1.3539e-05 0)
(1.74912e-05 1.39894e-05 0)
(1.78991e-05 1.44482e-05 0)
(1.83071e-05 1.49163e-05 0)
(8.75629e-06 5.91492e-06 0)
(9.3295e-06 6.41602e-06 0)
(9.89131e-06 6.905e-06 0)
(1.0434e-05 7.38282e-06 0)
(1.09616e-05 7.85032e-06 0)
(1.14742e-05 8.30977e-06 0)
(1.19734e-05 8.76287e-06 0)
(1.24602e-05 9.21139e-06 0)
(1.2936e-05 9.6569e-06 0)
(1.34018e-05 1.01008e-05 0)
(1.38589e-05 1.05442e-05 0)
(1.43084e-05 1.09883e-05 0)
(1.47512e-05 1.14339e-05 0)
(1.51883e-05 1.18819e-05 0)
(1.56208e-05 1.23332e-05 0)
(1.60494e-05 1.27885e-05 0)
(1.64751e-05 1.32488e-05 0)
(1.68989e-05 1.37153e-05 0)
(1.73214e-05 1.41895e-05 0)
(1.77442e-05 1.46725e-05 0)
(7.9375e-06 5.40813e-06 0)
(8.53524e-06 5.93529e-06 0)
(9.11803e-06 6.44174e-06 0)
(9.68269e-06 6.93785e-06 0)
(1.02316e-05 7.4236e-06 0)
(1.07648e-05 7.90109e-06 0)
(1.12837e-05 8.37192e-06 0)
(1.17891e-05 8.83763e-06 0)
(1.22824e-05 9.29968e-06 0)
(1.27645e-05 9.75935e-06 0)
(1.32367e-05 1.02178e-05 0)
(1.37001e-05 1.0676e-05 0)
(1.41557e-05 1.11349e-05 0)
(1.46045e-05 1.15953e-05 0)
(1.50477e-05 1.20581e-05 0)
(1.54862e-05 1.25239e-05 0)
(1.5921e-05 1.29936e-05 0)
(1.63533e-05 1.34683e-05 0)
(1.6784e-05 1.39495e-05 0)
(1.72151e-05 1.44379e-05 0)
(7.39111e-06 5.10479e-06 0)
(7.98893e-06 5.63191e-06 0)
(8.57192e-06 6.14253e-06 0)
(9.13845e-06 6.64426e-06 0)
(9.69015e-06 7.13694e-06 0)
(1.02269e-05 7.62203e-06 0)
(1.07498e-05 8.1008e-06 0)
(1.12594e-05 8.57449e-06 0)
(1.1757e-05 9.04429e-06 0)
(1.22433e-05 9.51131e-06 0)
(1.27194e-05 9.97653e-06 0)
(1.31864e-05 1.04408e-05 0)
(1.36452e-05 1.09051e-05 0)
(1.40969e-05 1.13699e-05 0)
(1.45425e-05 1.18361e-05 0)
(1.49831e-05 1.23042e-05 0)
(1.54197e-05 1.27752e-05 0)
(1.58535e-05 1.32497e-05 0)
(1.62855e-05 1.37288e-05 0)
(1.6718e-05 1.42134e-05 0)
(6.90881e-06 4.81353e-06 0)
(7.49587e-06 5.33911e-06 0)
(8.07291e-06 5.85121e-06 0)
(8.6351e-06 6.35635e-06 0)
(9.18457e-06 6.85402e-06 0)
(9.72027e-06 7.34512e-06 0)
(1.02432e-05 7.8306e-06 0)
(1.07537e-05 8.31131e-06 0)
(1.12525e-05 8.78819e-06 0)
(1.17403e-05 9.26208e-06 0)
(1.22181e-05 9.73379e-06 0)
(1.26868e-05 1.0204e-05 0)
(1.31473e-05 1.06735e-05 0)
(1.36006e-05 1.11427e-05 0)
(1.40476e-05 1.16123e-05 0)
(1.44894e-05 1.20829e-05 0)
(1.4927e-05 1.25549e-05 0)
(1.53618e-05 1.30289e-05 0)
(1.57947e-05 1.35057e-05 0)
(1.62283e-05 1.39859e-05 0)
(6.47654e-06 4.53302e-06 0)
(7.04954e-06 5.05435e-06 0)
(7.61622e-06 5.56599e-06 0)
(8.17003e-06 6.07314e-06 0)
(8.71331e-06 6.57461e-06 0)
(9.24434e-06 7.07078e-06 0)
(9.76398e-06 7.56216e-06 0)
(1.02721e-05 8.04924e-06 0)
(1.07694e-05 8.53266e-06 0)
(1.12564e-05 9.013e-06 0)
(1.17339e-05 9.49086e-06 0)
(1.22025e-05 9.96679e-06 0)
(1.26631e-05 1.04413e-05 0)
(1.31166e-05 1.09148e-05 0)
(1.3564e-05 1.13877e-05 0)
(1.40061e-05 1.18605e-05 0)
(1.44441e-05 1.23333e-05 0)
(1.48793e-05 1.28068e-05 0)
(1.53127e-05 1.32811e-05 0)
(1.57468e-05 1.37564e-05 0)
(6.08934e-06 4.26619e-06 0)
(6.64511e-06 4.7817e-06 0)
(7.19788e-06 5.29121e-06 0)
(7.73991e-06 5.79866e-06 0)
(8.2737e-06 6.30235e-06 0)
(8.79697e-06 6.80221e-06 0)
(9.31043e-06 7.29828e-06 0)
(9.81365e-06 7.79072e-06 0)
(1.03071e-05 8.27983e-06 0)
(1.07911e-05 8.76593e-06 0)
(1.12663e-05 9.24939e-06 0)
(1.17331e-05 9.73054e-06 0)
(1.21925e-05 1.02097e-05 0)
(1.26451e-05 1.06872e-05 0)
(1.30918e-05 1.11633e-05 0)
(1.35335e-05 1.1638e-05 0)
(1.39712e-05 1.21117e-05 0)
(1.4406e-05 1.25844e-05 0)
(1.48397e-05 1.30559e-05 0)
(1.52741e-05 1.35262e-05 0)
(5.73975e-06 4.01292e-06 0)
(6.27657e-06 4.52113e-06 0)
(6.81309e-06 5.02706e-06 0)
(7.341e-06 5.53343e-06 0)
(7.86281e-06 6.03805e-06 0)
(8.37589e-06 6.54043e-06 0)
(8.8808e-06 7.04015e-06 0)
(9.37687e-06 7.537e-06 0)
(9.86442e-06 8.03098e-06 0)
(1.03436e-05 8.52212e-06 0)
(1.08147e-05 9.01056e-06 0)
(1.12784e-05 9.49643e-06 0)
(1.17352e-05 9.97987e-06 0)
(1.21858e-05 1.0461e-05 0)
(1.26309e-05 1.09398e-05 0)
(1.30715e-05 1.14164e-05 0)
(1.35083e-05 1.18907e-05 0)
(1.39427e-05 1.23624e-05 0)
(1.43754e-05 1.28311e-05 0)
(1.48091e-05 1.32967e-05 0)
(5.42174e-06 3.77337e-06 0)
(5.93851e-06 4.27343e-06 0)
(6.45716e-06 4.77473e-06 0)
(6.96921e-06 5.27883e-06 0)
(7.47714e-06 5.7832e-06 0)
(7.97813e-06 6.28695e-06 0)
(8.47259e-06 6.78923e-06 0)
(8.9597e-06 7.28951e-06 0)
(9.43963e-06 7.78746e-06 0)
(9.91233e-06 8.28285e-06 0)
(1.03781e-05 8.77557e-06 0)
(1.08373e-05 9.26554e-06 0)
(1.12905e-05 9.75271e-06 0)
(1.17381e-05 1.0237e-05 0)
(1.21808e-05 1.07183e-05 0)
(1.26195e-05 1.11965e-05 0)
(1.30548e-05 1.16712e-05 0)
(1.34881e-05 1.2142e-05 0)
(1.39198e-05 1.26081e-05 0)
(1.43524e-05 1.3069e-05 0)
(5.12934e-06 3.54696e-06 0)
(5.62555e-06 4.03831e-06 0)
(6.12532e-06 4.53419e-06 0)
(6.62038e-06 5.03514e-06 0)
(7.11306e-06 5.5383e-06 0)
(7.60052e-06 6.04245e-06 0)
(8.08308e-06 6.54634e-06 0)
(8.55978e-06 7.04914e-06 0)
(9.03068e-06 7.55019e-06 0)
(9.49563e-06 8.04904e-06 0)
(9.95482e-06 8.54532e-06 0)
(1.04085e-05 9.03874e-06 0)
(1.0857e-05 9.52908e-06 0)
(1.13008e-05 1.00161e-05 0)
(1.17404e-05 1.04995e-05 0)
(1.21767e-05 1.09789e-05 0)
(1.261e-05 1.14539e-05 0)
(1.30417e-05 1.19238e-05 0)
(1.3472e-05 1.23875e-05 0)
(1.39033e-05 1.28442e-05 0)
(4.85728e-06 3.33302e-06 0)
(5.33272e-06 3.81551e-06 0)
(5.81303e-06 4.3055e-06 0)
(6.29032e-06 4.80263e-06 0)
(6.7668e-06 5.30384e-06 0)
(7.23969e-06 5.80754e-06 0)
(7.70921e-06 6.31218e-06 0)
(8.17439e-06 6.81664e-06 0)
(8.63518e-06 7.31998e-06 0)
(9.09133e-06 7.82149e-06 0)
(9.54294e-06 8.32059e-06 0)
(9.99014e-06 8.8168e-06 0)
(1.04332e-05 9.30972e-06 0)
(1.08725e-05 9.79893e-06 0)
(1.13085e-05 1.0284e-05 0)
(1.17417e-05 1.07645e-05 0)
(1.21727e-05 1.12396e-05 0)
(1.26024e-05 1.17086e-05 0)
(1.3031e-05 1.21701e-05 0)
(1.34605e-05 1.26233e-05 0)
(4.60065e-06 3.13073e-06 0)
(5.05531e-06 3.60446e-06 0)
(5.51585e-06 4.08834e-06 0)
(5.97491e-06 4.58124e-06 0)
(6.43454e-06 5.07991e-06 0)
(6.89211e-06 5.5825e-06 0)
(7.34781e-06 6.08716e-06 0)
(7.80062e-06 6.59251e-06 0)
(8.25046e-06 7.09736e-06 0)
(8.69701e-06 7.60078e-06 0)
(9.14029e-06 8.10198e-06 0)
(9.58034e-06 8.60031e-06 0)
(1.00174e-05 9.09519e-06 0)
(1.04516e-05 9.58608e-06 0)
(1.08834e-05 1.00724e-05 0)
(1.13133e-05 1.05535e-05 0)
(1.17415e-05 1.10287e-05 0)
(1.21689e-05 1.1497e-05 0)
(1.25956e-05 1.19567e-05 0)
(1.3023e-05 1.2407e-05 0)
(4.35493e-06 2.9393e-06 0)
(4.7889e-06 3.40459e-06 0)
(5.22953e-06 3.88236e-06 0)
(5.67006e-06 4.37079e-06 0)
(6.11243e-06 4.86654e-06 0)
(6.5542e-06 5.36748e-06 0)
(6.9955e-06 5.87153e-06 0)
(7.43537e-06 6.37707e-06 0)
(7.87367e-06 6.88272e-06 0)
(8.31005e-06 7.38733e-06 0)
(8.74444e-06 7.88993e-06 0)
(9.17684e-06 8.38972e-06 0)
(9.60733e-06 8.88596e-06 0)
(1.00361e-05 9.37799e-06 0)
(1.04634e-05 9.86514e-06 0)
(1.08895e-05 1.03467e-05 0)
(1.13148e-05 1.08217e-05 0)
(1.17396e-05 1.12893e-05 0)
(1.21642e-05 1.17477e-05 0)
(1.25893e-05 1.2196e-05 0)
(4.11592e-06 2.75806e-06 0)
(4.52925e-06 3.2154e-06 0)
(4.94989e-06 3.68719e-06 0)
(5.37174e-06 4.17107e-06 0)
(5.7966e-06 4.66361e-06 0)
(6.22226e-06 5.16247e-06 0)
(6.64883e-06 5.66537e-06 0)
(7.0754e-06 6.1705e-06 0)
(7.5018e-06 6.67628e-06 0)
(7.92764e-06 7.18141e-06 0)
(8.35281e-06 7.68474e-06 0)
(8.77722e-06 8.18534e-06 0)
(9.2009e-06 8.68235e-06 0)
(9.62394e-06 9.175e-06 0)
(1.00465e-05 9.66252e-06 0)
(1.04687e-05 1.01442e-05 0)
(1.08907e-05 1.0619e-05 0)
(1.13129e-05 1.1086e-05 0)
(1.17352e-05 1.15435e-05 0)
(1.2158e-05 1.19906e-05 0)
(3.87951e-06 2.58638e-06 0)
(4.27222e-06 3.03636e-06 0)
(4.67282e-06 3.50241e-06 0)
(5.07589e-06 3.98176e-06 0)
(5.48312e-06 4.47091e-06 0)
(5.89253e-06 4.96735e-06 0)
(6.30421e-06 5.46864e-06 0)
(6.71733e-06 5.97281e-06 0)
(7.13167e-06 6.47812e-06 0)
(7.54683e-06 6.98312e-06 0)
(7.96265e-06 7.48655e-06 0)
(8.37895e-06 7.98734e-06 0)
(8.7957e-06 8.48453e-06 0)
(9.21288e-06 8.97728e-06 0)
(9.63053e-06 9.46476e-06 0)
(1.00487e-05 9.94619e-06 0)
(1.04675e-05 1.04206e-05 0)
(1.08869e-05 1.08872e-05 0)
(1.13069e-05 1.13443e-05 0)
(1.17273e-05 1.1791e-05 0)
(3.64172e-06 2.42402e-06 0)
(4.01369e-06 2.86722e-06 0)
(4.39416e-06 3.3278e-06 0)
(4.77841e-06 3.80269e-06 0)
(5.16798e-06 4.28829e-06 0)
(5.56115e-06 4.782e-06 0)
(5.95797e-06 5.28124e-06 0)
(6.35768e-06 5.78392e-06 0)
(6.76002e-06 6.28818e-06 0)
(7.16458e-06 6.79245e-06 0)
(7.57112e-06 7.29536e-06 0)
(7.97941e-06 7.79574e-06 0)
(8.3893e-06 8.29256e-06 0)
(8.80069e-06 8.78491e-06 0)
(9.21352e-06 9.27193e-06 0)
(9.62774e-06 9.75283e-06 0)
(1.00433e-05 1.02268e-05 0)
(1.046e-05 1.06929e-05 0)
(1.08777e-05 1.11498e-05 0)
(1.12959e-05 1.1597e-05 0)
(3.39834e-06 2.27052e-06 0)
(3.74936e-06 2.70754e-06 0)
(4.10959e-06 3.16293e-06 0)
(4.47501e-06 3.6334e-06 0)
(4.84701e-06 4.11534e-06 0)
(5.22408e-06 4.60603e-06 0)
(5.60626e-06 5.10282e-06 0)
(5.99281e-06 5.60352e-06 0)
(6.38345e-06 6.10618e-06 0)
(6.77772e-06 6.60915e-06 0)
(7.1753e-06 7.11096e-06 0)
(7.57589e-06 7.61038e-06 0)
(7.97923e-06 8.1063e-06 0)
(8.38512e-06 8.59778e-06 0)
(8.79337e-06 9.08393e-06 0)
(9.20381e-06 9.564e-06 0)
(9.61626e-06 1.00372e-05 0)
(1.00304e-05 1.05029e-05 0)
(1.0446e-05 1.096e-05 0)
(1.08621e-05 1.14082e-05 0)
(3.14508e-06 2.12639e-06 0)
(3.47482e-06 2.55765e-06 0)
(3.81466e-06 3.00798e-06 0)
(4.1613e-06 3.47399e-06 0)
(4.51591e-06 3.95202e-06 0)
(4.8772e-06 4.43934e-06 0)
(5.24514e-06 4.9332e-06 0)
(5.61903e-06 5.43138e-06 0)
(5.99851e-06 5.93187e-06 0)
(6.38305e-06 6.43293e-06 0)
(6.77227e-06 6.93307e-06 0)
(7.16573e-06 7.43097e-06 0)
(7.56308e-06 7.92549e-06 0)
(7.96397e-06 8.41564e-06 0)
(8.3681e-06 8.90055e-06 0)
(8.77517e-06 9.37948e-06 0)
(9.18485e-06 9.85178e-06 0)
(9.59675e-06 1.03169e-05 0)
(1.00104e-05 1.07744e-05 0)
(1.04247e-05 1.1224e-05 0)
(2.87691e-06 1.99088e-06 0)
(3.18498e-06 2.41673e-06 0)
(3.50431e-06 2.86208e-06 0)
(3.83233e-06 3.32353e-06 0)
(4.16991e-06 3.79742e-06 0)
(4.51596e-06 4.28099e-06 0)
(4.87034e-06 4.77149e-06 0)
(5.23233e-06 5.26666e-06 0)
(5.60148e-06 5.76444e-06 0)
(5.97719e-06 6.26307e-06 0)
(6.35894e-06 6.76101e-06 0)
(6.74618e-06 7.2569e-06 0)
(7.13841e-06 7.74957e-06 0)
(7.53514e-06 8.23802e-06 0)
(7.93591e-06 8.72136e-06 0)
(8.34025e-06 9.19889e-06 0)
(8.74772e-06 9.67006e-06 0)
(9.15777e-06 1.01346e-05 0)
(9.56983e-06 1.05923e-05 0)
(9.98276e-06 1.10435e-05 0)
(2.58888e-06 1.86613e-06 0)
(2.87486e-06 2.28644e-06 0)
(3.17365e-06 2.72646e-06 0)
(3.48334e-06 3.18288e-06 0)
(3.80445e-06 3.65205e-06 0)
(4.13604e-06 4.13123e-06 0)
(4.47779e-06 4.61767e-06 0)
(4.82894e-06 5.10912e-06 0)
(5.18891e-06 5.6035e-06 0)
(5.55699e-06 6.09904e-06 0)
(5.93249e-06 6.59416e-06 0)
(6.31474e-06 7.08749e-06 0)
(6.70306e-06 7.57785e-06 0)
(7.09678e-06 8.06419e-06 0)
(7.49526e-06 8.54566e-06 0)
(7.89785e-06 9.02157e-06 0)
(8.30394e-06 9.49145e-06 0)
(8.71282e-06 9.95515e-06 0)
(9.12383e-06 1.04129e-05 0)
(9.53585e-06 1.08656e-05 0)
(2.27371e-06 1.74913e-06 0)
(2.5373e-06 2.16382e-06 0)
(2.81575e-06 2.59825e-06 0)
(3.10771e-06 3.04929e-06 0)
(3.41331e-06 3.51332e-06 0)
(3.73161e-06 3.98764e-06 0)
(4.06211e-06 4.46954e-06 0)
(4.40394e-06 4.95676e-06 0)
(4.75634e-06 5.44725e-06 0)
(5.11843e-06 5.93921e-06 0)
(5.48939e-06 6.43108e-06 0)
(5.86834e-06 6.92147e-06 0)
(6.25444e-06 7.40919e-06 0)
(6.64682e-06 7.89318e-06 0)
(7.04462e-06 8.37259e-06 0)
(7.44698e-06 8.84674e-06 0)
(7.85304e-06 9.31521e-06 0)
(8.26187e-06 9.77796e-06 0)
(8.67265e-06 1.02355e-05 0)
(9.08429e-06 1.06892e-05 0)
(1.92728e-06 1.6468e-06 0)
(2.16832e-06 2.05451e-06 0)
(2.42692e-06 2.48198e-06 0)
(2.702e-06 2.92626e-06 0)
(2.9933e-06 3.38384e-06 0)
(3.29977e-06 3.85204e-06 0)
(3.62066e-06 4.3282e-06 0)
(3.95492e-06 4.81009e-06 0)
(4.3016e-06 5.29566e-06 0)
(4.65963e-06 5.78314e-06 0)
(5.02798e-06 6.27095e-06 0)
(5.40559e-06 6.75771e-06 0)
(5.79143e-06 7.24222e-06 0)
(6.18442e-06 7.72345e-06 0)
(6.58349e-06 8.20054e-06 0)
(6.98749e-06 8.67283e-06 0)
(7.39529e-06 9.13991e-06 0)
(7.80564e-06 9.60176e-06 0)
(8.21746e-06 1.00589e-05 0)
(8.62938e-06 1.05128e-05 0)
(2.76735e-07 2.92903e-08 0)
(8.3592e-07 1.82555e-07 0)
(1.43029e-06 4.69328e-07 0)
(2.06748e-06 8.70396e-07 0)
(2.75978e-06 1.37485e-06 0)
(3.51101e-06 1.96468e-06 0)
(4.32417e-06 2.62065e-06 0)
(5.19784e-06 3.32262e-06 0)
(6.12941e-06 4.05024e-06 0)
(7.11397e-06 4.78679e-06 0)
(2.6067e-07 2.61371e-08 0)
(7.87973e-07 1.63796e-07 0)
(1.34704e-06 4.24118e-07 0)
(1.94377e-06 7.9154e-07 0)
(2.58936e-06 1.25785e-06 0)
(3.28736e-06 1.80792e-06 0)
(4.04084e-06 2.42504e-06 0)
(4.84851e-06 3.09146e-06 0)
(5.70737e-06 3.78762e-06 0)
(6.61227e-06 4.50028e-06 0)
(2.46226e-07 2.23966e-08 0)
(7.44946e-07 1.44777e-07 0)
(1.27276e-06 3.80366e-07 0)
(1.83361e-06 7.16386e-07 0)
(2.43746e-06 1.14668e-06 0)
(3.08733e-06 1.65843e-06 0)
(3.78652e-06 2.2371e-06 0)
(4.53449e-06 2.86738e-06 0)
(5.33014e-06 3.53155e-06 0)
(6.16789e-06 4.22016e-06 0)
(2.33009e-07 1.80627e-08 0)
(7.05749e-07 1.2569e-07 0)
(1.2059e-06 3.38947e-07 0)
(1.73561e-06 6.47051e-07 0)
(2.3038e-06 1.04535e-06 0)
(2.91266e-06 1.52281e-06 0)
(3.56528e-06 2.06644e-06 0)
(4.26074e-06 2.66259e-06 0)
(4.99922e-06 3.29443e-06 0)
(5.77394e-06 3.9538e-06 0)
(2.20652e-07 1.30815e-08 0)
(6.69158e-07 1.0585e-07 0)
(1.14391e-06 2.97932e-07 0)
(1.64542e-06 5.80027e-07 0)
(2.18165e-06 9.48603e-07 0)
(2.75408e-06 1.39404e-06 0)
(3.36576e-06 1.90473e-06 0)
(4.0154e-06 2.46856e-06 0)
(4.70447e-06 3.07014e-06 0)
(5.42409e-06 3.7012e-06 0)
(2.09054e-07 7.54307e-09 0)
(6.34869e-07 8.54033e-08 0)
(1.08624e-06 2.57554e-07 0)
(1.56218e-06 5.15782e-07 0)
(2.06987e-06 8.57354e-07 0)
(2.60995e-06 1.27368e-06 0)
(3.18535e-06 1.75416e-06 0)
(3.79422e-06 2.28766e-06 0)
(4.43925e-06 2.86017e-06 0)
(5.11011e-06 3.46285e-06 0)
(1.97981e-07 1.4188e-09 0)
(6.02155e-07 6.40455e-08 0)
(1.03149e-06 2.16947e-07 0)
(1.48368e-06 4.52714e-07 0)
(1.96523e-06 7.69205e-07 0)
(2.47608e-06 1.15862e-06 0)
(3.01908e-06 1.61127e-06 0)
(3.59183e-06 2.11673e-06 0)
(4.19783e-06 2.66237e-06 0)
(4.82578e-06 3.23837e-06 0)
(1.87347e-07 -5.21186e-09 0)
(5.70747e-07 4.18732e-08 0)
(9.79142e-07 1.76144e-07 0)
(1.40904e-06 3.90787e-07 0)
(1.86638e-06 6.84067e-07 0)
(2.35042e-06 1.04874e-06 0)
(2.86395e-06 1.4758e-06 0)
(3.40414e-06 1.9553e-06 0)
(3.97503e-06 2.47586e-06 0)
(4.565e-06 3.02688e-06 0)
(1.77014e-07 -1.23555e-08 0)
(5.40233e-07 1.87651e-08 0)
(9.28442e-07 1.34761e-07 0)
(1.33707e-06 3.29266e-07 0)
(1.77157e-06 6.00828e-07 0)
(2.23067e-06 9.42596e-07 0)
(2.71704e-06 1.34613e-06 0)
(3.22759e-06 1.80181e-06 0)
(3.76659e-06 2.29931e-06 0)
(4.32258e-06 2.82739e-06 0)
(1.66908e-07 -1.99609e-08 0)
(5.10384e-07 -5.23302e-09 0)
(8.7895e-07 9.27614e-08 0)
(1.26703e-06 2.68004e-07 0)
(1.67967e-06 5.19202e-07 0)
(2.11513e-06 8.3975e-07 0)
(2.57599e-06 1.22163e-06 0)
(3.05908e-06 1.65544e-06 0)
(3.56866e-06 2.1317e-06 0)
(4.09383e-06 2.63887e-06 0)
(1.56945e-07 -2.80242e-08 0)
(4.80962e-07 -3.01787e-08 0)
(8.30224e-07 4.99571e-08 0)
(1.19821e-06 2.06651e-07 0)
(1.58958e-06 4.38657e-07 0)
(2.00226e-06 7.39497e-07 0)
(2.43872e-06 1.10145e-06 0)
(2.89589e-06 1.51525e-06 0)
(3.37787e-06 1.9721e-06 0)
(3.87459e-06 2.46032e-06 0)
(1.47073e-07 -3.65306e-08 0)
(4.5182e-07 -5.60773e-08 0)
(7.81965e-07 6.29589e-09 0)
(1.13006e-06 1.45106e-07 0)
(1.50039e-06 3.59012e-07 0)
(1.8907e-06 6.41555e-07 0)
(2.30337e-06 9.85167e-07 0)
(2.73553e-06 1.3807e-06 0)
(3.1911e-06 1.81985e-06 0)
(3.66098e-06 2.29098e-06 0)
(1.37259e-07 -4.55014e-08 0)
(4.22892e-07 -8.30094e-08 0)
(7.3398e-07 -3.8366e-08 0)
(1.06214e-06 8.31789e-08 0)
(1.41134e-06 2.80026e-07 0)
(1.77922e-06 5.45609e-07 0)
(2.16817e-06 8.72391e-07 0)
(2.57567e-06 1.25129e-06 0)
(3.0054e-06 1.67436e-06 0)
(3.44935e-06 2.13017e-06 0)
(1.27504e-07 -5.50118e-08 0)
(3.94224e-07 -1.11067e-07 0)
(6.86204e-07 -8.40718e-08 0)
(9.94163e-07 2.09278e-08 0)
(1.32174e-06 2.01814e-07 0)
(1.66669e-06 4.51783e-07 0)
(2.03146e-06 7.63196e-07 0)
(2.41404e-06 1.12701e-06 0)
(2.81788e-06 1.53555e-06 0)
(3.23613e-06 1.97765e-06 0)
(1.17893e-07 -6.52018e-08 0)
(3.66167e-07 -1.40496e-07 0)
(6.389e-07 -1.31048e-07 0)
(9.26057e-07 -4.18003e-08 0)
(1.23103e-06 1.24292e-07 0)
(1.55196e-06 3.59999e-07 0)
(1.89149e-06 6.57469e-07 0)
(2.24824e-06 1.00767e-06 0)
(2.62548e-06 1.40312e-06 0)
(3.01757e-06 1.83301e-06 0)
(1.08616e-07 -7.65479e-08 0)
(3.39299e-07 -1.71651e-07 0)
(5.92499e-07 -1.79216e-07 0)
(8.57844e-07 -1.04442e-07 0)
(1.13867e-06 4.83288e-08 0)
(1.43387e-06 2.71279e-07 0)
(1.74647e-06 5.56252e-07 0)
(2.07581e-06 8.94234e-07 0)
(2.42508e-06 1.27793e-06 0)
(2.78985e-06 1.69693e-06 0)
(1.00363e-07 -8.96104e-08 0)
(3.15413e-07 -2.05235e-07 0)
(5.48486e-07 -2.29043e-07 0)
(7.90167e-07 -1.67327e-07 0)
(1.04432e-06 -2.62704e-08 0)
(1.31112e-06 1.85428e-07 0)
(1.59418e-06 4.59294e-07 0)
(1.89371e-06 7.86353e-07 0)
(2.21286e-06 1.15949e-06 0)
(2.5484e-06 1.56876e-06 0)
(9.46059e-08 -1.06826e-07 0)
(2.96584e-07 -2.4235e-07 0)
(5.08301e-07 -2.79537e-07 0)
(7.23343e-07 -2.27957e-07 0)
(9.47324e-07 -9.63105e-08 0)
(1.18212e-06 1.05907e-07 0)
(1.43225e-06 3.70024e-07 0)
(1.69882e-06 6.87265e-07 0)
(1.98498e-06 1.05076e-06 0)
(2.28869e-06 1.45112e-06 0)
(9.85078e-08 -1.29969e-07 0)
(2.90537e-07 -2.84326e-07 0)
(4.76868e-07 -3.31652e-07 0)
(6.59106e-07 -2.87764e-07 0)
(8.46918e-07 -1.6353e-07 0)
(1.04432e-06 3.06284e-08 0)
(1.25677e-06 2.86082e-07 0)
(1.48611e-06 5.94367e-07 0)
(1.73549e-06 9.48955e-07 0)
(2.00383e-06 1.34103e-06 0)
(1.27234e-07 -1.71918e-07 0)
(3.02137e-07 -3.32185e-07 0)
(4.56524e-07 -3.78798e-07 0)
(5.97231e-07 -3.36493e-07 0)
(7.41947e-07 -2.17015e-07 0)
(8.95775e-07 -2.9593e-08 0)
(1.06527e-06 2.17751e-07 0)
(1.2526e-06 5.17296e-07 0)
(1.46098e-06 8.62939e-07 0)
(1.6899e-06 1.24654e-06 0)
)
;

boundaryField
{
    left
    {
        type            fixedDisplacement;
        value           uniform (0 0 0);
    }
    right
    {
        type            solidTraction;
        tractionSeries  
{
        file            "$FOAM_CASE/constant/timeVsTraction";
        outOfBounds     clamp;
}
        pressure        uniform 0;
        secondOrder     false;
        setEffectiveTraction false;
        relaxationFactor 1;
        value           nonuniform List<vector> 
30
(
(2.29071e-05 1.6795e-05 -8.67579e-21)
(2.23733e-05 1.66024e-05 -8.72819e-21)
(2.18347e-05 1.64112e-05 -8.81724e-21)
(2.12899e-05 1.62178e-05 -8.93553e-21)
(2.0739e-05 1.602e-05 -9.0838e-21)
(2.01832e-05 1.58159e-05 -9.26328e-21)
(1.96244e-05 1.56041e-05 -9.4766e-21)
(1.9065e-05 1.53841e-05 -9.72634e-21)
(1.85074e-05 1.51559e-05 -1.00154e-20)
(1.79541e-05 1.49201e-05 -1.03468e-20)
(1.74308e-05 1.46881e-05 -1.05098e-20)
(1.69345e-05 1.44601e-05 -1.04585e-20)
(1.64453e-05 1.42286e-05 -1.04244e-20)
(1.59641e-05 1.39949e-05 -1.04071e-20)
(1.54914e-05 1.37606e-05 -1.04091e-20)
(1.50261e-05 1.35271e-05 -1.04295e-20)
(1.4569e-05 1.32955e-05 -1.04653e-20)
(1.41191e-05 1.30672e-05 -1.05161e-20)
(1.36754e-05 1.28433e-05 -1.05793e-20)
(1.32368e-05 1.26248e-05 -1.06524e-20)
(1.2802e-05 1.24122e-05 -1.07322e-20)
(1.23694e-05 1.22061e-05 -1.08152e-20)
(1.19376e-05 1.20065e-05 -1.08977e-20)
(1.15049e-05 1.18133e-05 -1.0976e-20)
(1.10701e-05 1.1626e-05 -1.10462e-20)
(1.06318e-05 1.14438e-05 -1.11052e-20)