/*--------------------------------*- C++ -*----------------------------------*\
  =========                 |
  \\      /  F ield         | OpenFOAM: The Open Source CFD Toolbox
   \\    /   O peration     | Website:  https://openfoam.org
    \\  /    A nd           | Version:  9
     \\/     M anipulation  |
\*---------------------------------------------------------------------------*/
FoamFile
{
    format      ascii;
    class       volScalarField;
    location    "15";
    object      epsilonEq;
}
// * * * * * * * * * * * * * * * * * * * * * * * * * * * * * * * * * * * * * //

dimensions      [0 0 0 0 0 0 0];

internalField   nonuniform List<scalar> 
1000
(
1.02547e-05
9.71743e-06
9.56482e-06
9.64176e-06
9.64895e-06
9.62853e-06
9.56134e-06
9.45913e-06
9.34537e-06
9.20293e-06
1.20156e-05
1.08574e-05
1.0303e-05
1.01423e-05
9.99216e-06
9.86547e-06
9.71944e-06
9.56408e-06
9.38895e-06
9.23378e-06
1.35881e-05
1.19286e-05
1.09656e-05
1.05341e-05
1.02063e-05
9.95338e-06
9.71609e-06
9.4939e-06
9.26159e-06
9.07496e-06
1.50779e-05
1.29237e-05
1.15542e-05
1.0829e-05
1.03025e-05
9.90891e-06
9.57104e-06
9.27782e-06
8.99015e-06
8.77035e-06
1.66162e-05
1.38662e-05
1.2088e-05
1.10403e-05
1.02904e-05
9.73943e-06
9.29201e-06
8.92277e-06
8.58261e-06
8.32738e-06
1.80831e-05
1.47442e-05
1.25556e-05
1.11619e-05
1.01743e-05
9.45425e-06
8.89314e-06
8.44639e-06
8.05678e-06
7.76502e-06
1.91727e-05
1.54606e-05
1.28461e-05
1.11264e-05
9.91448e-06
9.03917e-06
8.37713e-06
7.86334e-06
7.43482e-06
7.11032e-06
2.01577e-05
1.59505e-05
1.28864e-05
1.08911e-05
9.50106e-06
8.51282e-06
7.78327e-06
7.22817e-06
6.78077e-06
6.43481e-06
2.0984e-05
1.59419e-05
1.24887e-05
1.02956e-05
8.86381e-06
7.8633e-06
7.1401e-06
6.59174e-06
6.15634e-06
5.80651e-06
2.1796e-05
1.5076e-05
1.15448e-05
9.49996e-06
8.23559e-06
7.35192e-06
6.70427e-06
6.19881e-06
5.78999e-06
5.44236e-06
2.86928e-08
8.22094e-08
3.71693e-07
7.69199e-07
1.20545e-06
1.65587e-06
2.09343e-06
2.51052e-06
2.89367e-06
3.24896e-06
9.69196e-08
5.14338e-07
1.09615e-06
1.66841e-06
2.17595e-06
2.62697e-06
3.02066e-06
3.37313e-06
3.67583e-06
3.96032e-06
4.23962e-07
1.22283e-06
1.95615e-06
2.61996e-06
3.17336e-06
3.63353e-06
4.00779e-06
4.32199e-06
4.56813e-06
4.80108e-06
9.73894e-07
2.08796e-06
2.91441e-06
3.61452e-06
4.17188e-06
4.61929e-06
4.96705e-06
5.24564e-06
5.44533e-06
5.6375e-06
1.75535e-06
3.06237e-06
3.94267e-06
4.64838e-06
5.18e-06
5.59202e-06
5.89877e-06
6.13365e-06
6.28578e-06
6.43655e-06
2.76396e-06
4.09912e-06
4.9802e-06
5.66603e-06
6.15312e-06
6.51575e-06
6.77196e-06
6.95683e-06
7.06044e-06
7.16765e-06
3.98134e-06
5.18059e-06
5.9985e-06
6.63704e-06
7.06479e-06
7.36863e-06
7.5681e-06
7.69885e-06
7.75363e-06
7.81481e-06
5.37271e-06
6.29196e-06
6.97411e-06
7.53166e-06
7.88448e-06
8.12172e-06
8.26149e-06
8.3363e-06
8.34641e-06
8.35887e-06
6.91052e-06
7.42292e-06
7.89478e-06
8.33462e-06
8.59469e-06
8.75754e-06
8.83351e-06
8.85221e-06
8.81971e-06
8.79e-06
8.53494e-06
8.57003e-06
8.76035e-06
9.03787e-06
9.18252e-06
9.25815e-06
9.26513e-06
9.22188e-06
9.16077e-06
9.06384e-06
3.56901e-06
3.84419e-06
4.09938e-06
4.33014e-06
4.53878e-06
4.72649e-06
4.895e-06
5.04558e-06
5.17974e-06
5.2985e-06
5.40297e-06
5.49384e-06
5.57172e-06
5.637e-06
5.68986e-06
5.73055e-06
5.75895e-06
5.77596e-06
5.78135e-06
5.77802e-06
4.18053e-06
4.34105e-06
4.50308e-06
4.65364e-06
4.79486e-06
4.92611e-06
5.0474e-06
5.15867e-06
5.2603e-06
5.35238e-06
5.43531e-06
5.50928e-06
5.57456e-06
5.63131e-06
5.67956e-06
5.71934e-06
5.75007e-06
5.7714e-06
5.78048e-06
5.77542e-06
4.93145e-06
4.98302e-06
5.04905e-06
5.11272e-06
5.17746e-06
5.24196e-06
5.30573e-06
5.36767e-06
5.42757e-06
5.48458e-06
5.53858e-06
5.58911e-06
5.63602e-06
5.67902e-06
5.7177e-06
5.75152e-06
5.77892e-06
5.79821e-06
5.8035e-06
5.79134e-06
5.69344e-06
5.6541e-06
5.63735e-06
5.6241e-06
5.61823e-06
5.61885e-06
5.62585e-06
5.63755e-06
5.65378e-06
5.67306e-06
5.69499e-06
5.7186e-06
5.74335e-06
5.76848e-06
5.7931e-06
5.81612e-06
5.83523e-06
5.84817e-06
5.84792e-06
5.83134e-06
6.42679e-06
6.31256e-06
6.2246e-06
6.14521e-06
6.07718e-06
6.01978e-06
5.97405e-06
5.93762e-06
5.91101e-06
5.89227e-06
5.88108e-06
5.8761e-06
5.8766e-06
5.88148e-06
5.88949e-06
5.89919e-06
5.90796e-06
5.91334e-06
5.90855e-06
5.89098e-06
7.0999e-06
6.92598e-06
6.77904e-06
6.64414e-06
6.52403e-06
6.41631e-06
6.32447e-06
6.24478e-06
6.17885e-06
6.12428e-06
6.08104e-06
6.04765e-06
6.02336e-06
6.00692e-06
5.99706e-06
5.99222e-06
5.98994e-06
5.98796e-06
5.98085e-06
5.96632e-06
7.69665e-06
7.47776e-06
7.28598e-06
7.1053e-06
6.94372e-06
6.79298e-06
6.66121e-06
6.54295e-06
6.44125e-06
6.35359e-06
6.28023e-06
6.21976e-06
6.17146e-06
6.13412e-06
6.10656e-06
6.08734e-06
6.07454e-06
6.06619e-06
6.05904e-06
6.05079e-06
8.20051e-06
7.95009e-06
7.73094e-06
7.51249e-06
7.32052e-06
7.13633e-06
6.97286e-06
6.82313e-06
6.69084e-06
6.57397e-06
6.47303e-06
6.38708e-06
6.31566e-06
6.25787e-06
6.21285e-06
6.17947e-06
6.1567e-06
6.14297e-06
6.13769e-06
6.13831e-06
8.60994e-06
8.33125e-06
8.11226e-06
7.86735e-06
7.65206e-06
7.44061e-06
7.24906e-06
7.07227e-06
6.91339e-06
6.77135e-06
6.64652e-06
6.53833e-06
6.44649e-06
6.37041e-06
6.30969e-06
6.26358e-06
6.23209e-06
6.21419e-06
6.21213e-06
6.22301e-06
8.91544e-06
8.61707e-06
8.41226e-06
8.16936e-06
7.94459e-06
7.72132e-06
7.51013e-06
7.31168e-06
7.12895e-06
6.96287e-06
6.81437e-06
6.68364e-06
6.57085e-06
6.47583e-06
6.3987e-06
6.33922e-06
6.29849e-06
6.27609e-06
6.27731e-06
6.29911e-06
9.03483e-06
8.75511e-06
8.55248e-06
8.32374e-06
8.09919e-06
7.876e-06
7.66081e-06
7.45567e-06
7.26397e-06
7.08723e-06
6.92703e-06
6.78411e-06
6.65921e-06
6.55268e-06
6.46528e-06
6.39729e-06
6.35094e-06
6.32629e-06
6.33102e-06
6.36203e-06
8.8038e-06
8.65966e-06
8.47387e-06
8.27505e-06
8.07216e-06
7.86736e-06
7.66687e-06
7.47295e-06
7.28932e-06
7.11787e-06
6.96066e-06
6.81891e-06
6.69384e-06
6.58632e-06
6.49765e-06
6.4287e-06
6.38244e-06
6.35949e-06
6.3693e-06
6.40835e-06
8.61765e-06
8.50806e-06
8.36562e-06
8.19522e-06
8.01847e-06
7.83334e-06
7.64905e-06
7.46746e-06
7.29321e-06
7.12842e-06
6.97571e-06
6.83666e-06
6.71298e-06
6.60596e-06
6.51736e-06
6.44858e-06
6.40322e-06
6.38203e-06
6.39554e-06
6.44005e-06
8.39561e-06
8.3295e-06
8.22252e-06
8.07978e-06
7.928e-06
7.76293e-06
7.59592e-06
7.42843e-06
7.26578e-06
7.11025e-06
6.9648e-06
6.83133e-06
6.71184e-06
6.60795e-06
6.52171e-06
6.455e-06
6.41127e-06
6.39245e-06
6.40975e-06
6.45725e-06
8.1424e-06
8.11063e-06
8.03714e-06
7.92351e-06
7.79841e-06
7.65591e-06
7.50866e-06
7.35786e-06
7.20942e-06
7.06574e-06
6.93015e-06
6.80475e-06
6.69179e-06
6.59321e-06
6.51097e-06
6.44785e-06
6.40565e-06
6.39166e-06
6.40026e-06
6.45883e-06
7.87274e-06
7.87161e-06
7.82828e-06
7.74199e-06
7.64206e-06
7.5219e-06
7.39469e-06
7.26152e-06
7.12862e-06
6.99847e-06
6.87461e-06
6.75929e-06
6.65495e-06
6.56353e-06
6.48747e-06
6.4287e-06
6.39131e-06
6.37732e-06
6.3954e-06
6.44129e-06
7.59142e-06
7.61556e-06
7.59858e-06
7.53788e-06
7.46186e-06
7.36389e-06
7.25701e-06
7.14231e-06
7.02606e-06
6.91083e-06
6.80026e-06
6.69666e-06
6.60257e-06
6.51993e-06
6.45116e-06
6.39806e-06
6.36456e-06
6.35142e-06
6.36814e-06
6.41128e-06
7.30419e-06
7.34929e-06
7.35529e-06
7.31772e-06
7.26372e-06
7.18696e-06
7.09997e-06
7.00386e-06
6.90483e-06
6.80543e-06
6.70927e-06
6.6187e-06
6.53619e-06
6.46362e-06
6.40329e-06
6.35673e-06
6.32737e-06
6.31607e-06
6.33072e-06
6.36802e-06
7.0136e-06
7.07535e-06
7.10086e-06
7.08396e-06
7.05016e-06
6.99359e-06
6.92599e-06
6.84852e-06
6.76709e-06
6.68421e-06
6.6034e-06
6.52691e-06
6.45713e-06
6.39579e-06
6.34493e-06
6.30579e-06
6.2812e-06
6.27151e-06
6.28337e-06
6.3137e-06
6.72096e-06
6.79576e-06
6.83777e-06
6.8392e-06
6.82388e-06
6.78639e-06
6.73759e-06
6.67861e-06
6.61501e-06
6.54918e-06
6.48443e-06
6.4229e-06
6.36679e-06
6.31766e-06
6.27722e-06
6.24638e-06
6.22716e-06
6.21959e-06
6.22832e-06
6.25052e-06
6.42582e-06
6.51064e-06
6.56653e-06
6.58432e-06
6.58608e-06
6.56682e-06
6.5364e-06
6.49589e-06
6.45038e-06
6.40208e-06
6.35406e-06
6.30826e-06
6.26667e-06
6.23064e-06
6.20148e-06
6.17979e-06
6.16671e-06
6.16176e-06
6.16747e-06
6.18126e-06
6.12679e-06
6.21938e-06
6.2872e-06
6.31994e-06
6.33784e-06
6.33628e-06
6.32409e-06
6.3022e-06
6.27515e-06
6.24493e-06
6.21427e-06
6.18491e-06
6.15857e-06
6.13638e-06
6.1193e-06
6.10756e-06
6.10145e-06
6.09996e-06
6.10327e-06
6.10894e-06
5.82097e-06
5.92001e-06
5.9986e-06
6.04565e-06
6.07944e-06
6.09567e-06
6.10204e-06
6.0993e-06
6.09137e-06
6.07994e-06
6.06737e-06
6.05515e-06
6.04474e-06
6.03704e-06
6.03267e-06
6.03159e-06
6.03329e-06
6.03621e-06
6.03821e-06
6.03674e-06
5.50558e-06
5.61077e-06
5.69996e-06
5.76156e-06
5.81175e-06
5.84651e-06
5.87233e-06
5.88967e-06
5.90181e-06
5.91007e-06
5.9164e-06
5.92201e-06
5.92808e-06
5.93533e-06
5.94413e-06
5.9542e-06
5.96442e-06
5.97275e-06
5.9749e-06
5.96791e-06
5.17564e-06
5.28819e-06
5.38916e-06
5.46685e-06
5.53511e-06
5.59009e-06
5.63704e-06
5.67608e-06
5.70972e-06
5.73892e-06
5.76515e-06
5.78934e-06
5.81241e-06
5.8349e-06
5.85702e-06
5.87838e-06
5.89752e-06
5.91208e-06
5.91608e-06
5.9058e-06
4.82935e-06
4.952e-06
5.06725e-06
5.16376e-06
5.25269e-06
5.33039e-06
5.40072e-06
5.46343e-06
5.52025e-06
5.57172e-06
5.61885e-06
5.66225e-06
5.70259e-06
5.74029e-06
5.77546e-06
5.80777e-06
5.8357e-06
5.85682e-06
5.86427e-06
5.85333e-06
4.45984e-06
4.59796e-06
4.73237e-06
4.8525e-06
4.96642e-06
5.07068e-06
5.16771e-06
5.25685e-06
5.3391e-06
5.41456e-06
5.48379e-06
5.54713e-06
5.60498e-06
5.65763e-06
5.70519e-06
5.74744e-06
5.78317e-06
5.81027e-06
5.82225e-06
5.81349e-06
4.0745e-06
4.23525e-06
4.39492e-06
4.54415e-06
4.68771e-06
4.82231e-06
4.94903e-06
5.06686e-06
5.17613e-06
5.27659e-06
5.36846e-06
5.4518e-06
5.5268e-06
5.59364e-06
5.65236e-06
5.70293e-06
5.74461e-06
5.77598e-06
5.79215e-06
5.78754e-06
3.66562e-06
3.86104e-06
4.056e-06
4.24265e-06
4.42257e-06
4.59269e-06
4.75306e-06
4.90243e-06
5.04073e-06
5.16751e-06
5.28278e-06
5.38642e-06
5.47845e-06
5.55884e-06
5.62748e-06
5.68428e-06
5.72874e-06
5.76056e-06
5.77747e-06
5.77715e-06
3.28103e-06
3.52095e-06
3.75793e-06
3.98584e-06
4.20444e-06
4.41072e-06
4.60437e-06
4.78408e-06
4.94971e-06
5.10082e-06
5.23743e-06
5.35941e-06
5.46665e-06
5.55894e-06
5.63586e-06
5.69702e-06
5.74156e-06
5.76982e-06
5.78103e-06
5.77928e-06
5.14872e-06
5.49862e-06
6.09555e-06
6.75197e-06
7.40363e-06
7.97584e-06
8.43826e-06
8.76918e-06
8.97361e-06
9.01466e-06
4.87643e-06
5.20255e-06
5.75307e-06
6.37323e-06
7.01082e-06
7.59493e-06
8.09426e-06
8.47699e-06
8.74217e-06
8.84524e-06
4.63249e-06
4.9435e-06
5.45546e-06
6.03611e-06
6.64353e-06
7.21243e-06
7.71643e-06
8.12871e-06
8.4502e-06
8.64769e-06
4.40936e-06
4.71013e-06
5.19019e-06
5.73583e-06
6.3151e-06
6.86749e-06
7.3671e-06
7.78838e-06
8.12559e-06
8.38065e-06
4.19999e-06
4.49378e-06
4.94677e-06
5.45948e-06
6.00874e-06
6.54046e-06
7.03098e-06
7.45999e-06
7.80812e-06
8.09621e-06
4.00343e-06
4.29275e-06
4.72345e-06
5.207e-06
5.72725e-06
6.23559e-06
6.70926e-06
7.13474e-06
7.48314e-06
7.79273e-06
3.81605e-06
4.10229e-06
4.51414e-06
4.97169e-06
5.46471e-06
5.95006e-06
6.40581e-06
6.82416e-06
7.16761e-06
7.48422e-06
3.63723e-06
3.92099e-06
4.31656e-06
4.75071e-06
5.21785e-06
5.67962e-06
6.11513e-06
6.52188e-06
6.85777e-06
7.17477e-06
3.46577e-06
3.74698e-06
4.12796e-06
4.54082e-06
4.98378e-06
5.42259e-06
5.83766e-06
6.23005e-06
6.55603e-06
6.8676e-06
3.3017e-06
3.57951e-06
3.94655e-06
4.33924e-06
4.7589e-06
5.17473e-06
5.56897e-06
5.94504e-06
6.26005e-06
6.56318e-06
3.14539e-06
3.41826e-06
3.77104e-06
4.14374e-06
4.54047e-06
4.93324e-06
5.30646e-06
5.66474e-06
5.96771e-06
6.26037e-06
2.99808e-06
3.26361e-06
3.60052e-06
3.95218e-06
4.3253e-06
4.69428e-06
5.04601e-06
5.38543e-06
5.67569e-06
5.95685e-06
2.86226e-06
3.11672e-06
3.43423e-06
3.76203e-06
4.10961e-06
4.45343e-06
4.78285e-06
5.10254e-06
5.37953e-06
5.64877e-06
2.74165e-06
2.97935e-06
3.2718e-06
3.57126e-06
3.88998e-06
4.20646e-06
4.51234e-06
4.8115e-06
5.07489e-06
5.33228e-06
2.64341e-06
2.85433e-06
3.11106e-06
3.37416e-06
3.65876e-06
3.94502e-06
4.22608e-06
4.50442e-06
4.75457e-06
5.00104e-06
2.57592e-06
2.74298e-06
2.94977e-06
3.16731e-06
3.41157e-06
3.66439e-06
3.91934e-06
4.1769e-06
4.41475e-06
4.65184e-06
2.55788e-06
2.64802e-06
2.77577e-06
2.93167e-06
3.12806e-06
3.34531e-06
3.57506e-06
3.8143e-06
4.04331e-06
4.27501e-06
2.59256e-06
2.55144e-06
2.5756e-06
2.66122e-06
2.80602e-06
2.98771e-06
3.19487e-06
3.41984e-06
3.64499e-06
3.87646e-06
2.72649e-06
2.42955e-06
2.28827e-06
2.28804e-06
2.3873e-06
2.54457e-06
2.74191e-06
2.96554e-06
3.19939e-06
3.44237e-06
2.781e-06
2.12794e-06
1.89407e-06
1.82703e-06
1.90396e-06
2.0542e-06
2.2589e-06
2.49747e-06
2.75443e-06
3.022e-06
)
;

boundaryField
{
    left
    {
        type            calculated;
        value           nonuniform List<scalar> 
30
(
5.08973e-06
4.82059e-06
4.57963e-06
4.35912e-06
4.15265e-06
3.95926e-06
3.77566e-06
3.6014e-06
3.43551e-06
3.2783e-06
3.13044e-06
2.99343e-06
2.87002e-06
2.76432e-06
2.68385e-06
2.63961e-06
2.65394e-06
2.75375e-06
3.03206e-06
3.46405e-06
2.32689e-05
1.48218e-05
1.11675e-05
9.26471e-06
8.09071e-06
7.25671e-06
6.63235e-06
6.137e-06
5.73244e-06
5.38338e-06
)
;
    }
    right
    {
        type            calculated;
        value           nonuniform List<scalar> 
30
(
5.77705e-06
5.77543e-06
5.7908e-06
5.83049e-06
5.88993e-06
5.9653e-06
6.04998e-06
6.13792e-06
6.22308e-06
6.29989e-06
6.36307e-06
6.41015e-06
6.44208e-06
6.45943e-06
6.45939e-06
6.44316e-06
6.41328e-06
6.36971e-06
6.31501e-06
6.25139e-06
6.18171e-06
6.10898e-06
6.03646e-06
5.96742e-06
5.90522e-06
5.85281e-06
5.8132e-06
5.78751e-06
5.77739e-06
5.77816e-06
)
;
    }
    down
    {
        type            calculated;
        value           nonuniform List<scalar> 
30
(
2.27204e-08
2.7155e-08
2.70452e-07
6.53605e-07
1.09475e-06
1.55575e-06
2.00605e-06
2.43536e-06
2.82934e-06
3.19461e-06
3.52351e-06
3.81009e-06
4.07332e-06
4.31001e-06
4.5235e-06
4.71481e-06
4.88628e-06
5.03912e-06
5.17511e-06
5.2953e-06
5.40089e-06
5.49262e-06
5.57113e-06
5.63684e-06
5.68993e-06
5.73069e-06
5.75898e-06
5.77588e-06
5.78129e-06
5.77942e-06
)
;
    }
    up
    {
        type            calculated;
        value           nonuniform List<scalar> 
30
(
2.73949e-06
2.1028e-06
1.88117e-06
1.81282e-06
1.88762e-06
2.03559e-06
2.23889e-06
2.47705e-06
2.73378e-06
3.00246e-06
3.26232e-06
3.50416e-06
3.74344e-06
3.97325e-06
4.19383e-06
4.40182e-06
4.5971e-06
4.77823e-06
4.94514e-06
5.09737e-06
5.23496e-06
5.35776e-06
5.46568e-06
5.55852e-06
5.63582e-06
5.6972e-06
5.74175e-06
5.76991e-06
5.78092e-06
5.78014e-06
)
;
    }
    hole
    {
        type            calculated;
        value           nonuniform List<scalar> 
20
(
1.03483e-05
1.22285e-05
1.3888e-05
1.54346e-05
1.70837e-05
1.87734e-05
1.99882e-05
2.10506e-05
2.21335e-05
2.33723e-05
7.95757e-09
7.71722e-09
2.04328e-07
6.92609e-07
1.45418e-06
2.48096e-06
3.74206e-06
5.19569e-06
6.80965e-06
8.51119e-06
)
;
    }
    frontAndBack
    {
        type            empty;
    }
}


// ************************************************************************* //
