/*--------------------------------*- C++ -*----------------------------------*\
  =========                 |
  \\      /  F ield         | OpenFOAM: The Open Source CFD Toolbox
   \\    /   O peration     | Website:  https://openfoam.org
    \\  /    A nd           | Version:  9
     \\/     M anipulation  |
\*---------------------------------------------------------------------------*/
FoamFile
{
    format      ascii;
    class       volSymmTensorField;
    location    "15";
    object      epsilon;
}
// * * * * * * * * * * * * * * * * * * * * * * * * * * * * * * * * * * * * * //

dimensions      [0 0 0 0 0 0 0];

internalField   nonuniform List<symmTensor> 
1000
(
(6.25739e-06 -8.24461e-06 5.72498e-19 1.30678e-06 6.33081e-19 1.72211e-33)
(8.70446e-06 -6.3378e-06 -1.3054e-20 -1.57528e-06 7.28731e-21 0)
(9.88251e-06 -4.85874e-06 1.52267e-20 -2.91833e-06 -2.91365e-21 0)
(1.05488e-05 -3.74169e-06 3.91354e-21 -3.87488e-06 -2.7842e-21 0)
(1.08673e-05 -2.8402e-06 -1.65322e-20 -4.40025e-06 1.20305e-21 0)
(1.0975e-05 -2.1376e-06 -1.79372e-21 -4.73743e-06 1.95726e-21 0)
(1.09633e-05 -1.56546e-06 -1.50054e-20 -4.92002e-06 -8.05314e-21 0)
(1.0864e-05 -1.11102e-06 1.03024e-20 -5.01286e-06 4.81489e-21 0)
(1.07352e-05 -7.32995e-07 -5.30239e-21 -5.04684e-06 -6.03954e-21 0)
(1.0547e-05 -4.1856e-07 0 -5.05147e-06 0 0)
(8.45483e-06 -9.25846e-06 5.34525e-19 4.75741e-07 6.94468e-19 9.42142e-35)
(1.04307e-05 -6.54502e-06 0 -2.20926e-06 0 0)
(1.12112e-05 -4.66781e-06 1.21769e-20 -3.29413e-06 5.80498e-21 0)
(1.15808e-05 -3.328e-06 -2.08941e-20 -4.09078e-06 -1.11423e-20 0)
(1.16723e-05 -2.2987e-06 -8.87987e-21 -4.48927e-06 -5.35559e-21 0)
(1.15999e-05 -1.53315e-06 6.17489e-21 -4.73654e-06 6.29926e-21 0)
(1.14431e-05 -9.33005e-07 6.92128e-21 -4.8488e-06 4.63892e-21 0)
(1.12303e-05 -4.77499e-07 1.62799e-20 -4.89848e-06 9.50243e-21 0)
(1.09914e-05 -1.07787e-07 0 -4.88215e-06 0 0)
(1.07385e-05 1.87843e-07 0 -4.88987e-06 0 0)
(1.09053e-05 -9.80184e-06 5.26715e-19 -7.12432e-07 7.88282e-19 0)
(1.2211e-05 -6.50816e-06 0 -2.90878e-06 0 0)
(1.24745e-05 -4.33776e-06 1.16058e-20 -3.63147e-06 6.00881e-21 0)
(1.24859e-05 -2.8233e-06 -3.48831e-21 -4.18967e-06 1.22724e-21 0)
(1.23122e-05 -1.70682e-06 -1.70972e-22 -4.42432e-06 7.57328e-23 0)
(1.20366e-05 -9.05267e-07 -5.75718e-21 -4.55477e-06 -5.96113e-21 0)
(1.17224e-05 -3.00615e-07 7.87683e-21 -4.58261e-06 3.64532e-21 0)
(1.13871e-05 1.40538e-07 -5.84338e-21 -4.57744e-06 -4.31621e-21 0)
(1.10473e-05 4.83976e-07 -4.76811e-22 -4.51447e-06 8.10431e-22 0)
(1.07192e-05 7.62952e-07 -1.23681e-21 -4.50832e-06 -5.32883e-22 0)
(1.35864e-05 -9.87242e-06 5.11252e-19 -2.18938e-06 9.24997e-19 -5.91516e-35)
(1.39643e-05 -6.26186e-06 6.60932e-21 -3.59697e-06 -6.7947e-22 0)
(1.36529e-05 -3.88687e-06 -5.30064e-21 -3.90898e-06 -2.99708e-21 0)
(1.32583e-05 -2.25917e-06 -3.36912e-21 -4.17384e-06 6.52115e-22 0)
(1.2787e-05 -1.10282e-06 6.01207e-21 -4.21505e-06 5.81574e-21 0)
(1.22931e-05 -2.97446e-07 -7.24634e-21 -4.21265e-06 -4.79289e-21 0)
(1.18147e-05 2.86346e-07 -6.26033e-21 -4.15125e-06 -4.45693e-21 0)
(1.13588e-05 6.97246e-07 -1.39532e-20 -4.09048e-06 -1.0212e-20 0)
(1.09246e-05 1.00044e-06 -1.99503e-21 -3.98964e-06 -2.43989e-21 0)
(1.05316e-05 1.24714e-06 3.41462e-21 -3.96541e-06 3.02241e-21 0)
(1.63858e-05 -9.53914e-06 4.81014e-19 -3.92581e-06 1.05027e-18 -1.22748e-33)
(1.56673e-05 -5.77824e-06 3.46662e-25 -4.34623e-06 1.71212e-26 0)
(1.47439e-05 -3.31113e-06 -1.71732e-20 -4.15375e-06 -8.41898e-21 0)
(1.38939e-05 -1.65402e-06 1.56774e-21 -4.0648e-06 -5.72152e-23 0)
(1.30996e-05 -5.13707e-07 -2.1977e-21 -3.87925e-06 2.21345e-22 0)
(1.23764e-05 2.51731e-07 5.21176e-21 -3.72917e-06 4.81755e-21 0)
(1.17337e-05 7.83444e-07 -5.88289e-22 -3.576e-06 1.69385e-22 0)
(1.11624e-05 1.14198e-06 5.50982e-21 -3.46166e-06 3.68512e-21 0)
(1.06464e-05 1.3889e-06 -1.17993e-21 -3.33369e-06 -2.54102e-21 0)
(1.01974e-05 1.58993e-06 -2.17744e-21 -3.29499e-06 -1.76018e-21 0)
(1.89926e-05 -8.89102e-06 3.81873e-19 -5.60518e-06 1.06554e-18 -1.39129e-33)
(1.73458e-05 -4.9598e-06 3.16678e-25 -5.09932e-06 6.75148e-26 0)
(1.57389e-05 -2.57468e-06 -1.72955e-25 -4.33811e-06 -2.79617e-26 0)
(1.43932e-05 -9.95504e-07 1.38709e-21 -3.84773e-06 1.72251e-22 0)
(1.32587e-05 4.53476e-08 -7.44164e-21 -3.42354e-06 -4.53204e-21 0)
(1.23041e-05 7.14217e-07 8.52008e-23 -3.12357e-06 -4.40375e-25 0)
(1.15053e-05 1.15625e-06 5.53597e-21 -2.88781e-06 3.75413e-21 0)
(1.08305e-05 1.43852e-06 1.17668e-20 -2.72942e-06 8.6155e-21 0)
(1.02474e-05 1.61519e-06 2.13144e-21 -2.58786e-06 1.56594e-21 0)
(9.75389e-06 1.75937e-06 -3.71957e-21 -2.54093e-06 -2.93292e-21 0)
(2.13619e-05 -7.51436e-06 2.68072e-19 -7.07956e-06 8.86899e-19 -2.80919e-33)
(1.88658e-05 -3.7264e-06 4.95836e-21 -5.70712e-06 1.97712e-21 0)
(1.65126e-05 -1.63025e-06 5.26873e-21 -4.34645e-06 2.41933e-21 0)
(1.4678e-05 -2.83577e-07 -1.13758e-21 -3.46474e-06 -3.36315e-22 0)
(1.32228e-05 5.4874e-07 5.37752e-21 -2.82955e-06 3.60157e-21 0)
(1.20672e-05 1.0544e-06 -4.94688e-21 -2.40985e-06 -3.41753e-21 0)
(1.11429e-05 1.36666e-06 1.41176e-21 -2.12084e-06 9.78037e-23 0)
(1.03909e-05 1.55099e-06 -4.4165e-21 -1.94092e-06 -2.90047e-21 0)
(9.76388e-06 1.64864e-06 -3.07627e-22 -1.80523e-06 3.54099e-23 0)
(9.24136e-06 1.73029e-06 -2.23838e-21 -1.76042e-06 -1.46396e-21 0)
(2.36589e-05 -5.50804e-06 1.33408e-19 -8.25604e-06 5.41464e-19 -8.62322e-35)
(2.00864e-05 -2.17686e-06 -1.32908e-20 -5.94505e-06 -4.82749e-21 0)
(1.69835e-05 -5.19781e-07 1.03575e-22 -4.01791e-06 5.67863e-23 0)
(1.47127e-05 4.04025e-07 1.66275e-21 -2.84411e-06 8.14644e-22 0)
(1.30029e-05 9.27142e-07 1.22876e-20 -2.08476e-06 6.14817e-21 0)
(1.17074e-05 1.21382e-06 -7.27058e-22 -1.61859e-06 -2.21943e-22 0)
(1.0707e-05 1.37417e-06 1.81068e-26 -1.32916e-06 3.68193e-27 0)
(9.91515e-06 1.45526e-06 -4.31997e-21 -1.16357e-06 -2.28531e-21 0)
(9.27154e-06 1.48029e-06 1.05362e-22 -1.05698e-06 5.13982e-24 0)
(8.7375e-06 1.5056e-06 3.23803e-22 -1.02631e-06 1.59823e-22 0)
(2.55909e-05 -2.45463e-06 -5.62944e-21 -9.14756e-06 -1.51643e-19 -3.58609e-34)
(2.06671e-05 -2.5803e-07 -1.46258e-20 -5.51814e-06 -6.00327e-21 0)
(1.68935e-05 5.57067e-07 1.53156e-21 -3.21313e-06 1.32617e-21 0)
(1.4324e-05 8.67209e-07 1.44542e-21 -1.91311e-06 1.07671e-21 0)
(1.25301e-05 1.01448e-06 -6.03133e-22 -1.21394e-06 -3.69151e-22 0)
(1.12172e-05 1.07079e-06 4.78138e-21 -8.18881e-07 1.75388e-21 0)
(1.02261e-05 1.09382e-06 2.62737e-22 -6.04308e-07 8.04526e-23 0)
(9.44731e-06 1.09498e-06 7.71501e-21 -4.94493e-07 2.95998e-21 0)
(8.81857e-06 1.07503e-06 1.7033e-21 -4.36717e-07 6.60074e-22 0)
(8.28989e-06 1.06561e-06 9.53377e-22 -4.27996e-07 3.84117e-22 0)
(2.73768e-05 2.11642e-06 -1.59705e-20 -8.52303e-06 -6.1426e-19 -2.67621e-33)
(2.01547e-05 2.52884e-06 -1.16091e-21 -3.61759e-06 -1.83648e-21 0)
(1.62e-05 1.55507e-06 5.08166e-21 -1.6877e-06 2.17452e-21 0)
(1.37395e-05 1.06708e-06 2.61614e-22 -7.50306e-07 3.48056e-22 0)
(1.20771e-05 8.16957e-07 9.06416e-27 -3.81128e-07 8.74728e-27 0)
(1.08607e-05 7.11848e-07 4.85272e-21 -1.93558e-07 8.7613e-22 0)
(9.93286e-06 6.62841e-07 7.6155e-23 -1.14619e-07 2.32162e-23 0)
(9.19066e-06 6.41508e-07 3.71781e-21 -8.13091e-08 7.04151e-22 0)
(8.58275e-06 6.20366e-07 -4.15775e-23 -7.06011e-08 -3.14337e-24 0)
(8.05761e-06 6.07677e-07 -6.2595e-23 -7.5044e-08 -1.29872e-23 0)
(-2.74236e-08 2.03651e-08 3.25642e-20 -7.06934e-09 2.82868e-20 1.81299e-34)
(3.13714e-08 -6.76992e-08 -2.77874e-22 -1.11228e-08 2.33655e-20 1.39036e-36)
(3.18916e-07 -2.15045e-07 -3.54791e-21 -1.50115e-07 1.23699e-20 1.74583e-35)
(7.71667e-07 -3.33015e-07 -1.95373e-24 -3.57102e-07 1.61987e-20 0)
(1.29294e-06 -4.05828e-07 -4.75438e-22 -5.87076e-07 1.05062e-20 -1.41524e-36)
(1.83767e-06 -4.47394e-07 -4.86588e-21 -8.23578e-07 1.55845e-20 2.96686e-35)
(2.36977e-06 -4.63815e-07 1.09614e-21 -1.05193e-06 2.13267e-20 1.41999e-36)
(2.87706e-06 -4.6524e-07 -3.22921e-21 -1.2677e-06 1.79062e-20 2.70167e-35)
(3.34256e-06 -4.5297e-07 2.61437e-21 -1.46639e-06 1.76962e-20 -1.08044e-35)
(3.77399e-06 -4.43312e-07 5.00611e-21 -1.64552e-06 8.62993e-21 -1.60431e-35)
(5.4115e-08 -7.31623e-08 3.32303e-20 -2.66145e-08 8.21209e-21 5.29251e-35)
(3.39119e-07 -3.99285e-07 3.92734e-21 -5.61145e-09 4.30903e-21 0)
(8.58027e-07 -7.58996e-07 -3.67558e-21 -2.2143e-07 -3.69242e-21 0)
(1.43463e-06 -1.03392e-06 3.54243e-23 -5.12495e-07 -3.05708e-21 0)
(2.01302e-06 -1.20299e-06 0 -8.02491e-07 0 0)
(2.56147e-06 -1.29784e-06 -5.57777e-21 -1.07577e-06 -8.282e-22 0)
(3.06689e-06 -1.33206e-06 9.39867e-22 -1.32179e-06 4.80207e-21 0)
(3.53156e-06 -1.32971e-06 7.01766e-23 -1.5421e-06 2.58371e-22 0)
(3.94111e-06 -1.29288e-06 -3.00512e-21 -1.73586e-06 -8.7337e-21 0)
(4.32138e-06 -1.2635e-06 2.20358e-21 -1.90063e-06 3.42318e-22 0)
(8.57833e-08 -3.6294e-07 3.92426e-20 1.03943e-07 7.69198e-21 -2.38588e-36)
(6.30882e-07 -9.97602e-07 4.0166e-21 3.20527e-08 4.25633e-21 0)
(1.36298e-06 -1.44297e-06 4.20132e-21 -3.03326e-07 8.80196e-22 0)
(2.08112e-06 -1.74153e-06 2.15796e-22 -7.19362e-07 -2.94824e-21 0)
(2.74209e-06 -1.90605e-06 0 -1.10275e-06 0 0)
(3.32378e-06 -1.98342e-06 -6.24169e-21 -1.43945e-06 -1.62962e-21 0)
(3.82932e-06 -1.99276e-06 -8.51393e-21 -1.72254e-06 -2.38476e-21 0)
(4.27388e-06 -1.9609e-06 5.63243e-21 -1.96113e-06 3.44466e-21 0)
(4.64347e-06 -1.89143e-06 3.41747e-23 -2.15585e-06 1.10011e-22 0)
(4.98833e-06 -1.83302e-06 -5.06617e-21 -2.31426e-06 -3.20381e-21 0)
(1.33769e-07 -8.16625e-07 6.92866e-20 4.13304e-07 1.53553e-20 -5.36262e-35)
(1.03023e-06 -1.71425e-06 9.89539e-22 7.12079e-08 -3.57405e-21 0)
(1.95975e-06 -2.18245e-06 4.61653e-21 -4.13474e-07 9.02768e-22 0)
(2.80657e-06 -2.44528e-06 0 -9.52507e-07 0 0)
(3.54046e-06 -2.55405e-06 -7.86848e-21 -1.42191e-06 2.93072e-21 0)
(4.15447e-06 -2.57423e-06 9.39305e-23 -1.8196e-06 7.25581e-21 0)
(4.66248e-06 -2.53035e-06 -3.90852e-22 -2.14078e-06 -3.89825e-21 0)
(5.09163e-06 -2.44918e-06 -1.1261e-21 -2.40129e-06 -6.01764e-21 0)
(5.42634e-06 -2.33628e-06 2.57028e-21 -2.60263e-06 8.34207e-22 0)
(5.74171e-06 -2.24085e-06 4.79793e-21 -2.76106e-06 1.79999e-21 0)
(2.57139e-07 -1.4574e-06 8.0157e-20 8.43501e-07 3.86566e-20 1.82314e-34)
(1.59187e-06 -2.4941e-06 -8.10216e-21 6.20883e-08 5.42879e-21 0)
(2.71924e-06 -2.91495e-06 -4.91491e-21 -6.2506e-07 -1.44619e-21 0)
(3.67591e-06 -3.09019e-06 -1.32612e-21 -1.29807e-06 5.31777e-21 0)
(4.45825e-06 -3.10173e-06 -5.20407e-23 -1.84564e-06 3.28061e-22 0)
(5.08408e-06 -3.03335e-06 7.57921e-21 -2.29217e-06 -2.03432e-21 0)
(5.57936e-06 -2.91359e-06 3.30167e-21 -2.63949e-06 8.66715e-22 0)
(5.98204e-06 -2.76686e-06 0 -2.91181e-06 0 0)
(6.27523e-06 -2.60192e-06 -3.52493e-21 -3.11188e-06 -4.63992e-21 0)
(6.55595e-06 -2.46166e-06 1.40634e-21 -3.26426e-06 3.41284e-22 0)
(5.25044e-07 -2.29859e-06 1.4922e-19 1.32626e-06 6.32854e-20 -3.35952e-34)
(2.33482e-06 -3.28431e-06 3.30439e-21 2.24484e-09 -6.44193e-21 0)
(3.64895e-06 -3.57364e-06 -4.05891e-21 -9.15339e-07 -4.37838e-21 0)
(4.68805e-06 -3.61653e-06 8.92103e-22 -1.71954e-06 -2.47606e-21 0)
(5.48839e-06 -3.50506e-06 8.5862e-21 -2.32917e-06 2.8733e-21 0)
(6.09956e-06 -3.33251e-06 -8.28433e-21 -2.80713e-06 9.2305e-22 0)
(6.56149e-06 -3.1273e-06 -9.47321e-24 -3.1655e-06 2.1994e-22 0)
(6.9211e-06 -2.90934e-06 -6.45311e-21 -3.43694e-06 -4.4455e-21 0)
(7.16229e-06 -2.69083e-06 1.35316e-23 -3.62764e-06 8.63344e-23 0)
(7.3984e-06 -2.50348e-06 -7.04765e-21 -3.76671e-06 -3.22153e-21 0)
(1.01392e-06 -3.33267e-06 2.70036e-19 1.76142e-06 1.44458e-19 -4.03624e-34)
(3.26435e-06 -4.05379e-06 1.82915e-22 -1.27157e-07 -2.77064e-22 0)
(4.73142e-06 -4.11944e-06 -1.34083e-25 -1.27579e-06 2.28891e-25 0)
(5.81596e-06 -3.98574e-06 -8.77008e-21 -2.19945e-06 -6.14664e-21 0)
(6.60074e-06 -3.73081e-06 -1.48991e-21 -2.85317e-06 3.9827e-21 0)
(7.16849e-06 -3.44564e-06 -8.03839e-21 -3.34467e-06 -3.2712e-21 0)
(7.57446e-06 -3.15262e-06 1.44513e-20 -3.69775e-06 6.44195e-21 0)
(7.87219e-06 -2.86456e-06 -1.89307e-24 -3.95485e-06 1.72738e-22 0)
(8.05004e-06 -2.59608e-06 2.84584e-21 -4.12641e-06 -1.27282e-23 0)
(8.22893e-06 -2.36316e-06 -3.85539e-21 -4.24439e-06 -1.83551e-21 0)
(1.79489e-06 -4.51698e-06 4.18941e-19 2.04763e-06 2.62211e-19 -8.73263e-34)
(4.37806e-06 -4.77183e-06 4.71067e-21 -3.38431e-07 -5.62734e-21 0)
(5.93207e-06 -4.52742e-06 -1.81989e-21 -1.6763e-06 2.42397e-21 0)
(7.01266e-06 -4.17769e-06 1.11312e-21 -2.68971e-06 -1.73333e-21 0)
(7.74489e-06 -3.76517e-06 9.93311e-26 -3.36318e-06 -1.94728e-25 0)
(8.24031e-06 -3.36574e-06 9.33207e-21 -3.84876e-06 7.88684e-22 0)
(8.56938e-06 -2.98924e-06 7.0326e-22 -4.18202e-06 -3.03834e-21 0)
(8.78801e-06 -2.63878e-06 -2.36687e-22 -4.41225e-06 2.50048e-21 0)
(8.89453e-06 -2.32894e-06 3.09968e-23 -4.5602e-06 1.24881e-21 0)
(9.00329e-06 -2.05637e-06 2.9454e-21 -4.6487e-06 2.75335e-21 0)
(2.92127e-06 -5.79173e-06 5.40653e-19 2.1061e-06 4.26899e-19 1.238e-33)
(5.6635e-06 -5.41199e-06 -1.52176e-21 -6.39419e-07 1.03172e-20 0)
(7.21283e-06 -4.78652e-06 -1.7603e-25 -2.09324e-06 1.84394e-25 0)
(8.22933e-06 -4.19086e-06 1.20707e-20 -3.15286e-06 2.83247e-21 0)
(8.86865e-06 -3.61248e-06 9.21921e-21 -3.81582e-06 4.60118e-21 0)
(9.26291e-06 -3.10279e-06 8.31925e-21 -4.27527e-06 4.15313e-21 0)
(9.49509e-06 -2.6509e-06 -9.13452e-22 -4.57287e-06 2.61094e-21 0)
(9.61881e-06 -2.25093e-06 -1.00201e-20 -4.76779e-06 -5.59769e-21 0)
(9.64816e-06 -1.91011e-06 6.1572e-21 -4.88471e-06 1.45717e-21 0)
(9.6784e-06 -1.60537e-06 2.75993e-21 -4.95156e-06 1.63983e-21 0)
(4.42188e-06 -7.04991e-06 6.42309e-19 1.8457e-06 5.95091e-19 1.8521e-34)
(7.11076e-06 -5.94652e-06 -3.0574e-21 -1.05401e-06 2.25131e-21 0)
(8.5398e-06 -4.89849e-06 -5.92583e-21 -2.51181e-06 -2.76033e-21 0)
(9.41837e-06 -4.04011e-06 2.56896e-20 -3.55459e-06 6.01519e-21 0)
(9.91995e-06 -3.29488e-06 1.57603e-22 -4.16933e-06 -1.78585e-22 0)
(1.01829e-05 -2.68202e-06 -8.18333e-21 -4.57845e-06 -4.64411e-21 0)
(1.02991e-05 -2.16575e-06 -8.77659e-21 -4.82648e-06 -1.38257e-21 0)
(1.03137e-05 -1.73056e-06 -3.30471e-21 -4.97146e-06 -1.97588e-21 0)
(1.02691e-05 -1.37747e-06 3.74602e-22 -5.06525e-06 -2.73367e-21 0)
(1.0195e-05 -1.07117e-06 1.64696e-21 -5.07354e-06 3.4574e-21 0)
(4.16246e-06 -4.11195e-07 3.89896e-21 -1.81214e-06 5.18095e-21 -3.21735e-37)
(4.50095e-06 -3.66827e-07 2.83456e-21 -1.951e-06 -4.64929e-21 7.84998e-36)
(4.81186e-06 -3.28275e-07 -2.94739e-21 -2.07986e-06 -1.68085e-20 9.17374e-36)
(5.09141e-06 -2.93281e-07 -2.00882e-21 -2.19643e-06 -1.81149e-20 5.84366e-37)
(5.34357e-06 -2.60842e-07 -5.14994e-21 -2.3013e-06 -2.20633e-20 -4.44696e-35)
(5.56952e-06 -2.31802e-07 -8.12284e-22 -2.39582e-06 -2.46004e-20 0)
(5.77206e-06 -2.05176e-07 -8.79166e-22 -2.4804e-06 -2.82142e-20 0)
(5.95257e-06 -1.81165e-07 7.37433e-22 -2.55606e-06 -2.93987e-20 -8.85503e-37)
(6.1132e-06 -1.59155e-07 5.33951e-22 -2.62339e-06 -3.37558e-20 2.52797e-35)
(6.25516e-06 -1.38995e-07 2.54584e-21 -2.68306e-06 -3.27171e-20 -1.76272e-36)
(6.37988e-06 -1.20247e-07 3.54451e-21 -2.73557e-06 -3.73725e-20 8.73339e-35)
(6.48821e-06 -1.0264e-07 -2.38053e-21 -2.78132e-06 -4.15757e-20 -3.07235e-35)
(6.58095e-06 -8.58293e-08 3.69345e-21 -2.8206e-06 -4.09334e-20 9.64301e-35)
(6.65856e-06 -6.95649e-08 -6.33297e-21 -2.85365e-06 -5.0472e-20 2.00048e-36)
(6.72126e-06 -5.36412e-08 -3.62914e-22 -2.88055e-06 -4.36011e-20 -3.49961e-35)
(6.76941e-06 -3.80358e-08 -6.18039e-22 -2.90141e-06 -4.60463e-20 8.44673e-45)
(6.80282e-06 -2.29732e-08 -2.4227e-21 -2.91618e-06 -4.88588e-20 3.86235e-37)
(6.82278e-06 -9.30657e-09 1.4655e-21 -2.92508e-06 -4.47865e-20 -2.79368e-37)
(6.82917e-06 1.16295e-09 6.01732e-22 -2.92779e-06 -4.98838e-20 1.10421e-34)
(6.82696e-06 3.62661e-09 -1.0998e-19 -2.92385e-06 -5.52693e-20 2.6181e-34)
(4.63418e-06 -1.17641e-06 5.39019e-21 -2.04918e-06 6.62855e-21 0)
(4.88508e-06 -1.05873e-06 3.49524e-21 -2.15527e-06 9.57697e-22 0)
(5.12502e-06 -9.5512e-07 2.62882e-22 -2.25298e-06 -1.51496e-21 0)
(5.3402e-06 -8.58455e-07 7.93841e-21 -2.34265e-06 7.1586e-21 0)
(5.53835e-06 -7.67892e-07 -1.52599e-21 -2.42266e-06 -3.60296e-22 0)
(5.7172e-06 -6.8607e-07 -6.47295e-21 -2.49612e-06 -6.56306e-21 0)
(5.88006e-06 -6.10341e-07 3.30206e-21 -2.56203e-06 1.22134e-21 0)
(6.02667e-06 -5.41577e-07 0 -2.62194e-06 0 0)
(6.15898e-06 -4.7814e-07 1.57361e-21 -2.67582e-06 5.57005e-22 0)
(6.27736e-06 -4.19782e-07 3.23537e-21 -2.72438e-06 1.24622e-21 0)
(6.38298e-06 -3.65384e-07 9.70265e-21 -2.76784e-06 5.0114e-21 0)
(6.47634e-06 -3.14319e-07 4.37618e-23 -2.80655e-06 5.00726e-23 0)
(6.55815e-06 -2.65741e-07 1.261e-21 -2.84068e-06 -9.79324e-22 0)
(6.62884e-06 -2.1907e-07 1.85077e-21 -2.87033e-06 2.11896e-21 0)
(6.68868e-06 -1.73844e-07 1.89869e-21 -2.89542e-06 2.17944e-21 0)
(6.73805e-06 -1.30047e-07 -1.88087e-21 -2.91569e-06 -2.16993e-21 0)
(6.77664e-06 -8.82026e-08 -1.89151e-21 -2.93046e-06 -2.19447e-21 0)
(6.8049e-06 -5.01305e-08 -3.79861e-21 -2.93853e-06 -4.43275e-21 0)
(6.82062e-06 -1.85883e-08 -2.87447e-23 -2.93711e-06 -3.14834e-23 0)
(6.82451e-06 -1.83962e-09 -1.01939e-19 -2.92173e-06 1.86045e-21 -2.2387e-34)
(5.22915e-06 -1.70253e-06 1.47471e-21 -2.4366e-06 2.01808e-21 0)
(5.387e-06 -1.54219e-06 2.01186e-21 -2.49965e-06 7.17882e-22 0)
(5.55053e-06 -1.39839e-06 -4.67463e-21 -2.55262e-06 -5.89057e-21 0)
(5.69383e-06 -1.26489e-06 -4.19311e-22 -2.60288e-06 1.07575e-21 0)
(5.83117e-06 -1.13774e-06 8.52861e-21 -2.64576e-06 7.1037e-21 0)
(5.95563e-06 -1.02234e-06 -6.77466e-21 -2.68682e-06 -6.47163e-21 0)
(6.07224e-06 -9.14384e-07 -1.80339e-21 -2.7238e-06 -2.09021e-21 0)
(6.17859e-06 -8.15768e-07 3.44673e-21 -2.75871e-06 3.92342e-21 0)
(6.27688e-06 -7.24225e-07 1.68067e-23 -2.79104e-06 -2.54749e-21 0)
(6.3664e-06 -6.39722e-07 -3.64709e-21 -2.82141e-06 -4.10438e-21 0)
(6.4482e-06 -5.60866e-07 3.49474e-21 -2.84981e-06 3.9188e-21 0)
(6.52227e-06 -4.86977e-07 5.40015e-21 -2.8764e-06 6.05878e-21 0)
(6.58911e-06 -4.17036e-07 4.13198e-23 -2.90113e-06 4.55771e-23 0)
(6.64888e-06 -3.5034e-07 -1.849e-21 -2.92388e-06 -2.08646e-21 0)
(6.70166e-06 -2.86262e-07 1.83037e-21 -2.94419e-06 2.07791e-21 0)
(6.74748e-06 -2.24569e-07 2.69825e-28 -2.96126e-06 3.00725e-28 0)
(6.78539e-06 -1.65406e-07 -1.88578e-21 -2.97345e-06 -2.16772e-21 0)
(6.8149e-06 -1.09707e-07 2.54288e-22 -2.97809e-06 1.56589e-21 0)
(6.83122e-06 -5.91929e-08 -6.20645e-21 -2.96965e-06 -7.97624e-22 0)
(6.83398e-06 -1.61433e-08 -1.00825e-19 -2.94193e-06 -1.43239e-21 -1.6646e-37)
(5.91176e-06 -2.07384e-06 0 -2.85962e-06 0 0)
(5.97314e-06 -1.89016e-06 2.15077e-21 -2.88309e-06 7.83517e-22 0)
(6.05922e-06 -1.72082e-06 1.68352e-21 -2.89365e-06 1.92547e-21 0)
(6.12741e-06 -1.56636e-06 1.84766e-21 -2.907e-06 2.14094e-21 0)
(6.20081e-06 -1.41605e-06 0 -2.91351e-06 0 0)
(6.26665e-06 -1.27962e-06 2.50187e-22 -2.92228e-06 -1.08107e-21 0)
(6.33293e-06 -1.15041e-06 -5.5308e-21 -2.92969e-06 -3.39735e-21 0)
(6.39461e-06 -1.03181e-06 -3.52911e-21 -2.93843e-06 -3.8384e-21 0)
(6.45462e-06 -9.20972e-07 -1.9846e-21 -2.9477e-06 -9.15993e-22 0)
(6.51106e-06 -8.18268e-07 -1.27469e-23 -2.95808e-06 2.45528e-21 0)
(6.56493e-06 -7.22186e-07 -1.74664e-21 -2.9694e-06 5.39925e-22 0)
(6.61559e-06 -6.32115e-07 3.65229e-21 -2.98164e-06 1.56618e-21 0)
(6.66331e-06 -5.46974e-07 3.46825e-21 -2.99458e-06 1.71232e-22 0)
(6.70785e-06 -4.65975e-07 8.34419e-23 -3.00782e-06 1.31267e-21 0)
(6.7489e-06 -3.88328e-07 1.48568e-22 -3.02062e-06 1.39154e-21 0)
(6.7861e-06 -3.13438e-07 -1.86448e-21 -3.03176e-06 -2.09969e-21 0)
(6.81781e-06 -2.4092e-07 -3.98207e-28 -3.03905e-06 -4.48679e-28 0)
(6.84317e-06 -1.703e-07 3.97476e-21 -3.03936e-06 5.83723e-21 0)
(6.85606e-06 -1.02191e-07 -2.00974e-22 -3.02646e-06 -1.53525e-21 0)
(6.85669e-06 -3.16703e-08 -1.09388e-19 -2.99401e-06 -9.7586e-21 3.20469e-34)
(6.65225e-06 -2.2662e-06 1.64033e-22 -3.33248e-06 2.6888e-21 0)
(6.61358e-06 -2.08174e-06 -2.33696e-21 -3.3154e-06 -1.02124e-21 0)
(6.62179e-06 -1.9019e-06 -5.87677e-21 -3.28001e-06 -4.79174e-21 0)
(6.61285e-06 -1.74355e-06 3.86926e-21 -3.25489e-06 2.63491e-21 0)
(6.62122e-06 -1.58447e-06 1.00695e-20 -3.22277e-06 6.61676e-21 0)
(6.62621e-06 -1.44073e-06 -1.84951e-21 -3.19671e-06 -1.93509e-21 0)
(6.63996e-06 -1.3025e-06 0 -3.1719e-06 0 0)
(6.65427e-06 -1.17494e-06 1.80121e-21 -3.15156e-06 1.87633e-21 0)
(6.67315e-06 -1.05474e-06 -5.79892e-21 -3.13487e-06 -2.47737e-21 0)
(6.69348e-06 -9.42756e-07 -3.76128e-21 -3.12234e-06 -2.77355e-21 0)
(6.71624e-06 -8.37568e-07 2.1207e-22 -3.11377e-06 -2.14199e-21 0)
(6.74024e-06 -7.38702e-07 -1.89426e-21 -3.10901e-06 -3.20793e-21 0)
(6.76545e-06 -6.45133e-07 -1.95506e-22 -3.10769e-06 3.36999e-21 0)
(6.79125e-06 -5.55998e-07 3.70341e-21 -3.10924e-06 5.22709e-21 0)
(6.81701e-06 -4.70341e-07 1.80469e-21 -3.11271e-06 7.6906e-22 0)
(6.84202e-06 -3.87097e-07 -6.69112e-23 -3.1167e-06 -1.30359e-21 0)
(6.86429e-06 -3.05306e-07 3.49844e-21 -3.11884e-06 1.43823e-21 0)
(6.88275e-06 -2.22938e-07 1.72072e-21 -3.11597e-06 6.90264e-22 0)
(6.8912e-06 -1.39924e-07 7.05993e-21 -3.10226e-06 5.57709e-21 0)
(6.89021e-06 -4.53201e-08 -9.59801e-20 -3.07187e-06 3.7132e-21 -3.14148e-34)
(7.41846e-06 -2.28957e-06 1.37745e-21 -3.80194e-06 1.89404e-21 0)
(7.27883e-06 -2.12809e-06 3.31507e-23 -3.75033e-06 7.27449e-23 0)
(7.21158e-06 -1.95217e-06 -4.24883e-21 -3.67167e-06 -2.94595e-21 0)
(7.12563e-06 -1.80551e-06 -1.02034e-20 -3.61109e-06 -7.64015e-21 0)
(7.07016e-06 -1.65062e-06 3.98638e-21 -3.54325e-06 2.71705e-21 0)
(7.01436e-06 -1.51121e-06 3.7515e-21 -3.4841e-06 3.72793e-21 0)
(6.97542e-06 -1.37467e-06 -1.83807e-21 -3.42866e-06 -1.82934e-21 0)
(6.94171e-06 -1.24762e-06 -2.95846e-22 -3.37996e-06 8.20579e-22 0)
(6.91829e-06 -1.12679e-06 8.06654e-21 -3.33755e-06 4.80593e-21 0)
(6.90096e-06 -1.01333e-06 -5.39023e-21 -3.30174e-06 -5.50504e-21 0)
(6.89066e-06 -9.06121e-07 -1.91735e-21 -3.27247e-06 -1.98269e-21 0)
(6.88574e-06 -8.0482e-07 5.21024e-21 -3.24954e-06 7.7301e-21 0)
(6.88595e-06 -7.08563e-07 -7.6197e-21 -3.2326e-06 -2.26707e-21 0)
(6.89037e-06 -6.16462e-07 -5.42696e-21 -3.22108e-06 -5.80343e-21 0)
(6.89817e-06 -5.27471e-07 1.44639e-23 -3.21405e-06 -1.17253e-21 0)
(6.90841e-06 -4.40119e-07 -7.31501e-21 -3.2102e-06 -5.59874e-21 0)
(6.91915e-06 -3.53006e-07 -5.32413e-23 -3.20742e-06 -5.00836e-23 0)
(6.92923e-06 -2.62759e-07 7.18848e-21 -3.20302e-06 6.87484e-21 0)
(6.93351e-06 -1.6893e-07 1.11889e-22 -3.19231e-06 1.4192e-21 0)
(6.9322e-06 -5.59455e-08 -9.5837e-20 -3.17034e-06 -1.19565e-21 2.24517e-36)
(8.17323e-06 -2.14391e-06 -1.44334e-21 -4.24382e-06 -1.85313e-21 0)
(7.93707e-06 -2.03113e-06 1.99497e-21 -4.16711e-06 1.82235e-21 0)
(7.80166e-06 -1.87414e-06 2.46344e-21 -4.05253e-06 1.28682e-21 0)
(7.64236e-06 -1.75397e-06 -1.94638e-21 -3.96075e-06 -1.82653e-21 0)
(7.52682e-06 -1.61712e-06 -4.61268e-21 -3.86217e-06 -2.30372e-21 0)
(7.41271e-06 -1.49317e-06 2.25189e-21 -3.77198e-06 1.11968e-21 0)
(7.3223e-06 -1.36878e-06 6.37273e-21 -3.68757e-06 4.10122e-21 0)
(7.24148e-06 -1.25084e-06 -1.02529e-20 -3.61112e-06 -6.8857e-21 0)
(7.17581e-06 -1.13715e-06 -6.32442e-21 -3.54324e-06 -4.16683e-21 0)
(7.12064e-06 -1.02896e-06 9.92643e-21 -3.48412e-06 6.7235e-21 0)
(7.07662e-06 -9.25844e-07 -4.04922e-21 -3.43395e-06 -1.93587e-21 0)
(7.04188e-06 -8.27649e-07 5.36236e-21 -3.39253e-06 5.49744e-21 0)
(7.01588e-06 -7.33797e-07 5.77621e-21 -3.3596e-06 3.76372e-21 0)
(6.99753e-06 -6.4345e-07 -3.36886e-21 -3.33465e-06 -4.69613e-21 0)
(6.9859e-06 -5.55549e-07 -2.20298e-21 -3.31695e-06 1.1427e-21 0)
(6.97995e-06 -4.68338e-07 1.04226e-22 -3.30543e-06 9.61976e-23 0)
(6.9781e-06 -3.80112e-07 -8.91264e-21 -3.29852e-06 -7.41901e-21 0)
(6.9791e-06 -2.86518e-07 1.76926e-21 -3.29424e-06 1.98903e-21 0)
(6.9797e-06 -1.86934e-07 3.50868e-21 -3.28953e-06 2.74549e-21 0)
(6.97904e-06 -6.2763e-08 -9.66901e-20 -3.28064e-06 -1.89813e-21 9.06427e-37)
(8.87722e-06 -1.83996e-06 1.72443e-23 -4.61947e-06 5.90427e-23 0)
(8.55575e-06 -1.80096e-06 -2.06255e-21 -4.52996e-06 -1.81535e-21 0)
(8.36368e-06 -1.67915e-06 4.43641e-22 -4.39457e-06 -4.81351e-22 0)
(8.13903e-06 -1.59542e-06 0 -4.27708e-06 0 0)
(7.96946e-06 -1.48895e-06 0 -4.15727e-06 0 0)
(7.80379e-06 -1.38913e-06 -6.17733e-21 -4.04309e-06 -4.83872e-21 0)
(7.66591e-06 -1.28651e-06 5.4952e-21 -3.93601e-06 5.128e-21 0)
(7.54161e-06 -1.18604e-06 1.15864e-20 -3.83656e-06 1.01106e-20 0)
(7.43563e-06 -1.08734e-06 -8.76346e-21 -3.74632e-06 -8.42302e-21 0)
(7.34385e-06 -9.91386e-07 -7.67765e-21 -3.66571e-06 -6.54135e-21 0)
(7.26646e-06 -8.98504e-07 3.54016e-21 -3.59535e-06 3.52349e-21 0)
(7.20176e-06 -8.08793e-07 -3.47401e-22 -3.53544e-06 6.98718e-22 0)
(7.14903e-06 -7.2208e-07 6.06161e-21 -3.48605e-06 2.99459e-21 0)
(7.10715e-06 -6.37737e-07 9.44001e-21 -3.44702e-06 6.53058e-21 0)
(7.07525e-06 -5.54851e-07 1.28822e-22 -3.41802e-06 1.17773e-22 0)
(7.05227e-06 -4.71605e-07 4.30006e-21 -3.39847e-06 -1.17708e-21 0)
(7.03728e-06 -3.86198e-07 0 -3.38759e-06 0 0)
(7.02892e-06 -2.93736e-07 -3.61729e-21 -3.38432e-06 -1.59642e-21 0)
(7.02643e-06 -1.93577e-07 1.74038e-21 -3.3875e-06 7.35894e-22 0)
(7.0273e-06 -6.55944e-08 -9.24594e-20 -3.39483e-06 -4.43855e-22 2.3703e-36)
(9.50055e-06 -1.40709e-06 -1.34759e-23 -4.90166e-06 -5.16324e-23 0)
(9.10589e-06 -1.45541e-06 2.56148e-21 -4.80812e-06 1.53059e-21 0)
(8.87414e-06 -1.39389e-06 -2.54762e-21 -4.68313e-06 -1.55144e-21 0)
(8.59899e-06 -1.35374e-06 -2.50742e-21 -4.54977e-06 -1.51102e-21 0)
(8.38064e-06 -1.29038e-06 6.88324e-21 -4.41636e-06 4.69603e-21 0)
(8.17095e-06 -1.22066e-06 4.90425e-21 -4.28249e-06 2.92764e-21 0)
(7.98968e-06 -1.14476e-06 -6.5132e-21 -4.15546e-06 -4.3599e-21 0)
(7.82649e-06 -1.06553e-06 8.67751e-22 -4.03607e-06 -9.1755e-22 0)
(7.68376e-06 -9.85173e-07 1.4782e-21 -3.92644e-06 1.37189e-21 0)
(7.55847e-06 -9.04885e-07 -8.05078e-22 -3.8274e-06 1.08189e-21 0)
(7.45012e-06 -8.25697e-07 -6.61426e-21 -3.73972e-06 -3.62606e-21 0)
(7.35722e-06 -7.48048e-07 5.9163e-23 -3.66385e-06 5.71147e-23 0)
(7.27894e-06 -6.72074e-07 -3.02277e-21 -3.60011e-06 -4.11916e-21 0)
(7.21422e-06 -5.97376e-07 -1.02172e-22 -3.5487e-06 -9.35161e-23 0)
(7.16239e-06 -5.23202e-07 3.86391e-21 -3.50973e-06 1.88055e-21 0)
(7.12246e-06 -4.47816e-07 -7.70405e-23 -3.48321e-06 -6.73588e-23 0)
(7.09435e-06 -3.69446e-07 4.70691e-21 -3.4693e-06 6.3193e-21 0)
(7.07657e-06 -2.83091e-07 -1.77905e-21 -3.46796e-06 -7.95444e-22 0)
(7.07126e-06 -1.88089e-07 -8.33073e-21 -3.4801e-06 -8.2492e-21 0)
(7.07391e-06 -6.42045e-08 -1.01714e-19 -3.50511e-06 -6.90574e-21 1.76379e-34)
(9.99749e-06 -8.51327e-07 -3.26795e-22 -5.08613e-06 -1.64694e-22 0)
(9.58823e-06 -9.57921e-07 -2.74704e-21 -4.97153e-06 -1.61886e-21 0)
(9.32317e-06 -9.82585e-07 2.22917e-21 -4.88494e-06 1.75073e-21 0)
(9.02849e-06 -9.92276e-07 -5.83272e-21 -4.76329e-06 -5.31492e-21 0)
(8.77052e-06 -9.8695e-07 -6.00206e-21 -4.63685e-06 -4.99217e-21 0)
(8.52674e-06 -9.64184e-07 3.54975e-21 -4.50158e-06 3.66964e-21 0)
(8.30639e-06 -9.29278e-07 3.08472e-21 -4.36544e-06 3.68315e-21 0)
(8.10646e-06 -8.84246e-07 5.3796e-21 -4.23259e-06 4.8521e-21 0)
(7.92797e-06 -8.32214e-07 -6.31375e-21 -4.10646e-06 -4.71537e-21 0)
(7.76944e-06 -7.75513e-07 1.5328e-23 -3.98968e-06 1.2948e-22 0)
(7.63025e-06 -7.16023e-07 -7.60348e-23 -3.884e-06 -3.86035e-22 0)
(7.50915e-06 -6.5508e-07 -4.93608e-21 -3.79076e-06 -4.82908e-21 0)
(7.40528e-06 -5.93485e-07 0 -3.71092e-06 0 0)
(7.3176e-06 -5.31432e-07 -4.47693e-21 -3.64526e-06 -1.45301e-21 0)
(7.24562e-06 -4.68612e-07 -2.08109e-23 -3.59451e-06 -8.91751e-23 0)
(7.18842e-06 -4.0368e-07 -5.77858e-21 -3.55938e-06 -2.81183e-21 0)
(7.14677e-06 -3.35132e-07 1.58162e-21 -3.54107e-06 1.66997e-21 0)
(7.11918e-06 -2.58342e-07 3.64459e-21 -3.54067e-06 1.66646e-21 0)
(7.11081e-06 -1.72716e-07 4.53441e-23 -3.56135e-06 -3.72052e-24 0)
(7.11544e-06 -5.92351e-08 -9.9281e-20 -3.60431e-06 -3.0685e-21 7.37065e-37)
(1.02418e-05 -3.92587e-07 2.82444e-21 -5.10316e-06 2.48574e-21 0)
(9.8685e-06 -4.49296e-07 -2.61462e-21 -5.00661e-06 -1.64331e-21 0)
(9.58164e-06 -5.54614e-07 -1.51389e-21 -4.94557e-06 -1.25698e-21 0)
(9.28894e-06 -6.04282e-07 2.51218e-21 -4.84666e-06 1.53533e-21 0)
(9.0179e-06 -6.39198e-07 -4.96727e-21 -4.73093e-06 -2.25602e-21 0)
(8.76075e-06 -6.54751e-07 -3.34956e-21 -4.60414e-06 -1.58129e-21 0)
(8.52364e-06 -6.55046e-07 -4.17327e-21 -4.47152e-06 -3.02881e-21 0)
(8.30505e-06 -6.42761e-07 5.04407e-22 -4.33869e-06 -3.49927e-22 0)
(8.10679e-06 -6.20308e-07 8.43732e-21 -4.20962e-06 5.37781e-21 0)
(7.92802e-06 -5.90223e-07 -2.89946e-22 -4.08768e-06 -3.1209e-22 0)
(7.76878e-06 -5.54471e-07 4.51017e-21 -3.97535e-06 2.55377e-21 0)
(7.62825e-06 -5.14704e-07 -2.223e-22 -3.87462e-06 -2.52133e-22 0)
(7.50599e-06 -4.72055e-07 1.64683e-35 -3.7871e-06 1.67391e-35 0)
(7.40123e-06 -4.27114e-07 -1.98301e-21 -3.71415e-06 -9.87527e-22 0)
(7.31389e-06 -3.79971e-07 1.93853e-21 -3.65719e-06 9.43403e-22 0)
(7.24328e-06 -3.29812e-07 -8.691e-23 -3.61762e-06 -1.25727e-22 0)
(7.19103e-06 -2.75573e-07 3.09823e-22 -3.59763e-06 -8.18058e-22 0)
(7.15559e-06 -2.1366e-07 1.74849e-23 -3.59929e-06 5.83607e-23 0)
(7.14452e-06 -1.43656e-07 -1.79721e-23 -3.62768e-06 2.3265e-23 0)
(7.15012e-06 -4.94007e-08 -9.54612e-20 -3.68574e-06 -5.17565e-22 -8.49628e-37)
(1.00401e-05 5.82059e-08 2.62415e-21 -4.91859e-06 2.07523e-21 0)
(9.79084e-06 -7.2685e-09 0 -4.94487e-06 0 0)
(9.53109e-06 -1.3608e-07 -2.04612e-21 -4.89767e-06 -1.80356e-21 0)
(9.27146e-06 -2.20432e-07 2.67523e-35 -4.82241e-06 2.16626e-35 0)
(9.02393e-06 -2.86832e-07 6.13266e-36 -4.72325e-06 4.44842e-36 0)
(8.78496e-06 -3.33845e-07 2.90819e-35 -4.61021e-06 2.16273e-35 0)
(8.56074e-06 -3.64183e-07 4.45998e-35 -4.48858e-06 3.60473e-35 0)
(8.35042e-06 -3.80577e-07 -1.79265e-21 -4.36408e-06 -1.6812e-21 0)
(8.15656e-06 -3.85195e-07 0 -4.24096e-06 0 0)
(7.97903e-06 -3.80441e-07 1.71292e-21 -4.12291e-06 1.66122e-21 0)
(7.81862e-06 -3.68214e-07 -2.44845e-36 -4.01278e-06 -4.1236e-36 0)
(7.67512e-06 -3.50204e-07 -1.64768e-21 -3.91298e-06 -1.65466e-21 0)
(7.5487e-06 -3.27639e-07 1.62054e-21 -3.82551e-06 1.6556e-21 0)
(7.43908e-06 -3.01341e-07 2.32894e-35 -3.75219e-06 1.69645e-35 0)
(7.34674e-06 -2.71628e-07 -1.57718e-21 -3.6949e-06 -1.665e-21 0)
(7.2714e-06 -2.38245e-07 -1.39863e-35 -3.6556e-06 -1.29382e-35 0)
(7.21541e-06 -2.00448e-07 1.54899e-21 -3.63714e-06 1.68472e-21 0)
(7.17746e-06 -1.55989e-07 1.54084e-21 -3.64225e-06 1.69941e-21 0)
(7.16692e-06 -1.04916e-07 -1.6641e-35 -3.67749e-06 -1.45174e-35 0)