/*--------------------------------*- C++ -*----------------------------------*\
  =========                 |
  \\      /  F ield         | OpenFOAM: The Open Source CFD Toolbox
   \\    /   O peration     | Website:  https://openfoam.org
    \\  /    A nd           | Version:  9
     \\/     M anipulation  |
\*---------------------------------------------------------------------------*/
FoamFile
{
    format      ascii;
    class       pointVectorField;
    location    "15";
    object      pointD;
}
// * * * * * * * * * * * * * * * * * * * * * * * * * * * * * * * * * * * * * //

dimensions      [0 1 0 0 0 0 0];

internalField   nonuniform List<vector> 
2142
(
(1.11331e-05 3.27094e-06 -8.80241e-20)
(1.03182e-05 3.78463e-06 0)
(9.74919e-06 4.15058e-06 0)
(9.33476e-06 4.44835e-06 0)
(9.03648e-06 4.69215e-06 0)
(8.8248e-06 4.90224e-06 0)
(8.67858e-06 5.087e-06 0)
(8.58301e-06 5.25406e-06 0)
(8.52658e-06 5.4079e-06 0)
(8.50093e-06 5.55163e-06 0)
(8.50555e-06 5.70768e-06 0)
(1.01827e-05 2.99788e-06 -8.87978e-20)
(9.31115e-06 3.40705e-06 0)
(8.71393e-06 3.69121e-06 0)
(8.2813e-06 3.92519e-06 0)
(7.97077e-06 4.11606e-06 0)
(7.75005e-06 4.28133e-06 0)
(7.59619e-06 4.42678e-06 0)
(7.4935e-06 4.55884e-06 0)
(7.42949e-06 4.68049e-06 0)
(7.39553e-06 4.79544e-06 0)
(7.24752e-06 4.80089e-06 0)
(9.18911e-06 2.72835e-06 -9.34862e-20)
(8.28641e-06 3.02155e-06 0)
(7.67897e-06 3.21721e-06 0)
(7.23994e-06 3.38443e-06 0)
(6.92599e-06 3.52168e-06 0)
(6.70294e-06 3.64252e-06 0)
(6.54667e-06 3.74977e-06 0)
(6.44084e-06 3.8481e-06 0)
(6.37254e-06 3.93889e-06 0)
(6.33248e-06 4.02566e-06 0)
(6.19979e-06 4.01639e-06 0)
(8.15138e-06 2.46738e-06 -1.02242e-19)
(7.25393e-06 2.63373e-06 0)
(6.65278e-06 2.73965e-06 0)
(6.21966e-06 2.83932e-06 0)
(5.91172e-06 2.92409e-06 0)
(5.69362e-06 3.0024e-06 0)
(5.54074e-06 3.07402e-06 0)
(5.43642e-06 3.14147e-06 0)
(5.36779e-06 3.20449e-06 0)
(5.32541e-06 3.26572e-06 0)
(5.21073e-06 3.24649e-06 0)
(7.07891e-06 2.22349e-06 -1.12971e-19)
(6.22006e-06 2.25381e-06 0)
(5.64072e-06 2.2708e-06 0)
(5.22663e-06 2.30415e-06 0)
(4.93464e-06 2.33911e-06 0)
(4.72928e-06 2.37824e-06 0)
(4.58594e-06 2.418e-06 0)
(4.48798e-06 2.4584e-06 0)
(4.423e-06 2.49753e-06 0)
(4.38164e-06 2.53677e-06 0)
(4.28586e-06 2.51199e-06 0)
(5.99782e-06 1.98966e-06 -1.16874e-19)
(5.18544e-06 1.88907e-06 0)
(4.64552e-06 1.82055e-06 0)
(4.26407e-06 1.79192e-06 0)
(3.99887e-06 1.78227e-06 0)
(3.81455e-06 1.78765e-06 0)
(3.68701e-06 1.80094e-06 0)
(3.60018e-06 1.81942e-06 0)
(3.54245e-06 1.83954e-06 0)
(3.505e-06 1.86129e-06 0)
(3.42808e-06 1.83525e-06 0)
(4.90334e-06 1.74973e-06 -1.0445e-19)
(4.14669e-06 1.53678e-06 0)
(3.66602e-06 1.39323e-06 0)
(3.3325e-06 1.31268e-06 0)
(3.10605e-06 1.26785e-06 0)
(2.95138e-06 1.24777e-06 0)
(2.84576e-06 1.24195e-06 0)
(2.77439e-06 1.24493e-06 0)
(2.727e-06 1.25185e-06 0)
(2.69577e-06 1.26132e-06 0)
(2.63701e-06 1.23807e-06 0)
(3.78343e-06 1.49705e-06 -7.4134e-20)
(3.10779e-06 1.19176e-06 0)
(2.70434e-06 9.91601e-07 0)
(2.43537e-06 8.76562e-07 0)
(2.25896e-06 8.10874e-07 0)
(2.14141e-06 7.76802e-07 0)
(2.06249e-06 7.61016e-07 0)
(2.00966e-06 7.55914e-07 0)
(1.97464e-06 7.55864e-07 0)
(1.95114e-06 7.58544e-07 0)
(1.90925e-06 7.41379e-07 0)
(2.62551e-06 1.22865e-06 -1.98122e-20)
(2.06568e-06 8.48556e-07 0)
(1.76282e-06 6.20673e-07 0)
(1.57531e-06 4.95962e-07 0)
(1.45808e-06 4.28813e-07 0)
(1.38271e-06 3.94466e-07 0)
(1.33304e-06 3.78434e-07 0)
(1.30006e-06 3.72322e-07 0)
(1.27807e-06 3.708e-07 0)
(1.26288e-06 3.71365e-07 0)
(1.2362e-06 3.61989e-07 0)
(1.51897e-06 9.09724e-07 3.91591e-20)
(1.02884e-06 4.96706e-07 0)
(8.55016e-07 2.96704e-07 0)
(7.62723e-07 1.98544e-07 0)
(7.08436e-07 1.52732e-07 0)
(6.74506e-07 1.31205e-07 0)
(6.52292e-07 1.22491e-07 0)
(6.37438e-07 1.19845e-07 0)
(6.27322e-07 1.19799e-07 0)
(6.19976e-07 1.20647e-07 0)
(6.06847e-07 1.17941e-07 0)
(5.03912e-07 3.64806e-07 3.13633e-20)
(0 0 0)
(0 0 0)
(0 0 0)
(0 0 0)
(0 0 0)
(0 0 0)
(0 0 0)
(0 0 0)
(0 0 0)
(0 0 0)
(1.11331e-05 3.27094e-06 -8.80241e-20)
(1.03182e-05 3.78463e-06 0)
(9.74919e-06 4.15058e-06 0)
(9.33476e-06 4.44835e-06 0)
(9.03648e-06 4.69215e-06 0)
(8.8248e-06 4.90224e-06 0)
(8.67858e-06 5.087e-06 0)
(8.58301e-06 5.25406e-06 0)
(8.52658e-06 5.4079e-06 0)
(8.50093e-06 5.55163e-06 0)
(8.50555e-06 5.70768e-06 0)
(1.01827e-05 2.99788e-06 -8.87978e-20)
(9.31115e-06 3.40705e-06 0)
(8.71393e-06 3.69121e-06 0)
(8.2813e-06 3.92519e-06 0)
(7.97077e-06 4.11606e-06 0)
(7.75005e-06 4.28133e-06 0)
(7.59619e-06 4.42678e-06 0)
(7.4935e-06 4.55884e-06 0)
(7.42949e-06 4.68049e-06 0)
(7.39553e-06 4.79544e-06 0)
(7.24752e-06 4.80089e-06 0)
(9.18911e-06 2.72835e-06 -9.34862e-20)
(8.28641e-06 3.02155e-06 0)
(7.67897e-06 3.21721e-06 0)
(7.23994e-06 3.38443e-06 0)
(6.92599e-06 3.52168e-06 0)
(6.70294e-06 3.64252e-06 0)
(6.54667e-06 3.74977e-06 0)
(6.44084e-06 3.8481e-06 0)
(6.37254e-06 3.93889e-06 0)
(6.33248e-06 4.02566e-06 0)
(6.19979e-06 4.01639e-06 0)
(8.15138e-06 2.46738e-06 -1.02242e-19)
(7.25393e-06 2.63373e-06 0)
(6.65278e-06 2.73965e-06 0)
(6.21966e-06 2.83932e-06 0)
(5.91172e-06 2.92409e-06 0)
(5.69362e-06 3.0024e-06 0)
(5.54074e-06 3.07402e-06 0)
(5.43642e-06 3.14147e-06 0)
(5.36779e-06 3.20449e-06 0)
(5.32541e-06 3.26572e-06 0)
(5.21073e-06 3.24649e-06 0)
(7.07891e-06 2.22349e-06 -1.12971e-19)
(6.22006e-06 2.25381e-06 0)
(5.64072e-06 2.2708e-06 0)
(5.22663e-06 2.30415e-06 0)
(4.93464e-06 2.33911e-06 0)
(4.72928e-06 2.37824e-06 0)
(4.58594e-06 2.418e-06 0)
(4.48798e-06 2.4584e-06 0)
(4.423e-06 2.49753e-06 0)
(4.38164e-06 2.53677e-06 0)
(4.28586e-06 2.51199e-06 0)
(5.99782e-06 1.98966e-06 -1.16874e-19)
(5.18544e-06 1.88907e-06 0)
(4.64552e-06 1.82055e-06 0)
(4.26407e-06 1.79192e-06 0)
(3.99887e-06 1.78227e-06 0)
(3.81455e-06 1.78765e-06 0)
(3.68701e-06 1.80094e-06 0)
(3.60018e-06 1.81942e-06 0)
(3.54245e-06 1.83954e-06 0)
(3.505e-06 1.86129e-06 0)
(3.42808e-06 1.83525e-06 0)
(4.90334e-06 1.74973e-06 -1.0445e-19)
(4.14669e-06 1.53678e-06 0)
(3.66602e-06 1.39323e-06 0)
(3.3325e-06 1.31268e-06 0)
(3.10605e-06 1.26785e-06 0)
(2.95138e-06 1.24777e-06 0)
(2.84576e-06 1.24195e-06 0)
(2.77439e-06 1.24493e-06 0)
(2.727e-06 1.25185e-06 0)
(2.69577e-06 1.26132e-06 0)
(2.63701e-06 1.23807e-06 0)
(3.78343e-06 1.49705e-06 -7.4134e-20)
(3.10779e-06 1.19176e-06 0)
(2.70434e-06 9.91601e-07 0)
(2.43537e-06 8.76562e-07 0)
(2.25896e-06 8.10874e-07 0)
(2.14141e-06 7.76802e-07 0)
(2.06249e-06 7.61016e-07 0)
(2.00966e-06 7.55914e-07 0)
(1.97464e-06 7.55864e-07 0)
(1.95114e-06 7.58544e-07 0)
(1.90925e-06 7.41379e-07 0)
(2.62551e-06 1.22865e-06 -1.98122e-20)
(2.06568e-06 8.48556e-07 0)
(1.76282e-06 6.20673e-07 0)
(1.57531e-06 4.95962e-07 0)
(1.45808e-06 4.28813e-07 0)
(1.38271e-06 3.94466e-07 0)
(1.33304e-06 3.78434e-07 0)
(1.30006e-06 3.72322e-07 0)
(1.27807e-06 3.708e-07 0)
(1.26288e-06 3.71365e-07 0)
(1.2362e-06 3.61989e-07 0)
(1.51897e-06 9.09724e-07 3.91591e-20)
(1.02884e-06 4.96706e-07 0)
(8.55016e-07 2.96704e-07 0)
(7.62723e-07 1.98544e-07 0)
(7.08436e-07 1.52732e-07 0)
(6.74506e-07 1.31205e-07 0)
(6.52292e-07 1.22491e-07 0)
(6.37438e-07 1.19845e-07 0)
(6.27322e-07 1.19799e-07 0)
(6.19976e-07 1.20647e-07 0)
(6.06847e-07 1.17941e-07 0)
(5.03912e-07 3.64806e-07 3.13633e-20)
(0 0 0)
(0 0 0)
(0 0 0)
(0 0 0)
(0 0 0)
(0 0 0)
(0 0 0)
(0 0 0)
(0 0 0)
(0 0 0)
(1.80497e-05 5.35981e-06 -2.80464e-21)
(1.81784e-05 5.87751e-06 -1.37481e-21)
(1.81626e-05 6.54314e-06 -1.50864e-21)
(1.8152e-05 7.16069e-06 -1.64561e-21)
(1.81628e-05 7.72913e-06 -1.78116e-21)
(1.82011e-05 8.25426e-06 -1.91446e-21)
(1.82691e-05 8.74285e-06 -2.04542e-21)
(1.83665e-05 9.20182e-06 -2.17425e-21)
(1.8492e-05 9.6369e-06 -2.20848e-21)
(1.86431e-05 1.00535e-05 -1.65432e-21)
(1.88181e-05 1.04539e-05 -6.03852e-22)
(1.76487e-05 5.15916e-06 -4.35796e-21)
(1.75935e-05 5.85417e-06 0)
(1.75476e-05 6.51555e-06 0)
(1.75231e-05 7.12397e-06 0)
(1.75261e-05 7.67965e-06 0)
(1.75588e-05 8.18943e-06 0)
(1.76209e-05 8.6608e-06 0)
(1.77109e-05 9.10129e-06 0)
(1.78271e-05 9.51704e-06 0)
(1.79667e-05 9.91391e-06 0)
(1.81383e-05 1.02967e-05 0)
(1.71027e-05 5.07413e-06 -4.50362e-21)
(1.69879e-05 5.78441e-06 0)
(1.68948e-05 6.43966e-06 0)
(1.68351e-05 7.03531e-06 0)
(1.68112e-05 7.5747e-06 0)
(1.68224e-05 8.06633e-06 0)
(1.6866e-05 8.51839e-06 0)
(1.69389e-05 8.93883e-06 0)
(1.70383e-05 9.33404e-06 0)
(1.71606e-05 9.71025e-06 0)
(1.73276e-05 1.00763e-05 0)
(1.65241e-05 4.93663e-06 -5.32165e-21)
(1.63372e-05 5.6701e-06 0)
(1.61878e-05 6.31689e-06 0)
(1.60835e-05 6.89506e-06 0)
(1.60238e-05 7.41294e-06 0)
(1.60055e-05 7.88179e-06 0)
(1.60237e-05 8.31069e-06 0)
(1.60738e-05 8.70802e-06 0)
(1.61519e-05 9.0803e-06 0)
(1.62533e-05 9.43391e-06 0)
(1.64155e-05 9.78362e-06 0)
(1.59025e-05 4.75932e-06 -8.16621e-21)
(1.56314e-05 5.51289e-06 0)
(1.54196e-05 6.14751e-06 0)
(1.52655e-05 6.7039e-06 0)
(1.51657e-05 7.1957e-06 0)
(1.51139e-05 7.63747e-06 0)
(1.51033e-05 8.03936e-06 0)
(1.51277e-05 8.41021e-06 0)
(1.51821e-05 8.75671e-06 0)
(1.52608e-05 9.08521e-06 0)
(1.54186e-05 9.41862e-06 0)
(1.52322e-05 4.55077e-06 -1.43517e-20)
(1.48672e-05 5.31354e-06 0)
(1.45891e-05 5.92955e-06 0)
(1.43835e-05 6.4589e-06 0)
(1.42425e-05 6.91993e-06 0)
(1.41565e-05 7.33046e-06 0)
(1.41165e-05 7.70169e-06 0)
(1.41148e-05 8.04289e-06 0)
(1.41452e-05 8.36086e-06 0)
(1.4201e-05 8.66182e-06 0)
(1.43558e-05 8.97913e-06 0)
(1.45109e-05 4.31866e-06 -2.47499e-20)
(1.40464e-05 5.0739e-06 0)
(1.37007e-05 5.66245e-06 0)
(1.34441e-05 6.15886e-06 0)
(1.32631e-05 6.58465e-06 0)
(1.31443e-05 6.96035e-06 0)
(1.30762e-05 7.29786e-06 0)
(1.30494e-05 7.60676e-06 0)
(1.3057e-05 7.89389e-06 0)
(1.30911e-05 8.16521e-06 0)
(1.32444e-05 8.46678e-06 0)
(1.37383e-05 4.0694e-06 -3.94849e-20)
(1.31738e-05 4.79664e-06 0)
(1.27621e-05 5.34696e-06 0)
(1.24572e-05 5.80375e-06 0)
(1.22392e-05 6.18988e-06 0)
(1.20903e-05 6.52757e-06 0)
(1.19966e-05 6.8289e-06 0)
(1.19473e-05 7.10347e-06 0)
(1.19342e-05 7.358e-06 0)
(1.19488e-05 7.59804e-06 0)
(1.21024e-05 7.88442e-06 0)
(1.29157e-05 3.80872e-06 -5.78987e-20)
(1.22563e-05 4.48564e-06 0)
(1.17834e-05 4.98604e-06 0)
(1.14348e-05 5.39634e-06 0)
(1.1184e-05 5.73863e-06 0)
(1.1009e-05 6.03564e-06 0)
(1.08934e-05 6.29896e-06 0)
(1.08247e-05 6.53787e-06 0)
(1.07938e-05 6.7587e-06 0)
(1.07916e-05 6.9664e-06 0)
(1.09471e-05 7.23795e-06 0)
(1.20452e-05 3.54197e-06 -7.84706e-20)
(1.13017e-05 4.14641e-06 0)
(1.07755e-05 4.5849e-06 0)
(1.03898e-05 4.94191e-06 0)
(1.01118e-05 5.23653e-06 0)
(9.91555e-06 5.49076e-06 0)
(9.78215e-06 5.71496e-06 0)
(9.69783e-06 5.91767e-06 0)
(9.65233e-06 6.10451e-06 0)
(9.63675e-06 6.27914e-06 0)
(9.79486e-06 6.53576e-06 0)
(1.80497e-05 5.35981e-06 -2.80464e-21)
(1.81784e-05 5.87751e-06 -1.37481e-21)
(1.81626e-05 6.54314e-06 -1.50864e-21)
(1.8152e-05 7.16069e-06 -1.64561e-21)
(1.81628e-05 7.72913e-06 -1.78116e-21)
(1.82011e-05 8.25426e-06 -1.91446e-21)
(1.82691e-05 8.74285e-06 -2.04542e-21)
(1.83665e-05 9.20182e-06 -2.17425e-21)
(1.8492e-05 9.6369e-06 -2.20848e-21)
(1.86431e-05 1.00535e-05 -1.65432e-21)
(1.88181e-05 1.04539e-05 -6.03852e-22)
(1.76487e-05 5.15916e-06 -4.35796e-21)
(1.75935e-05 5.85417e-06 0)
(1.75476e-05 6.51555e-06 0)
(1.75231e-05 7.12397e-06 0)
(1.75261e-05 7.67965e-06 0)
(1.75588e-05 8.18943e-06 0)
(1.76209e-05 8.6608e-06 0)
(1.77109e-05 9.10129e-06 0)
(1.78271e-05 9.51704e-06 0)
(1.79667e-05 9.91391e-06 0)
(1.81383e-05 1.02967e-05 0)
(1.71027e-05 5.07413e-06 -4.50362e-21)
(1.69879e-05 5.78441e-06 0)
(1.68948e-05 6.43966e-06 0)
(1.68351e-05 7.03531e-06 0)
(1.68112e-05 7.5747e-06 0)
(1.68224e-05 8.06633e-06 0)
(1.6866e-05 8.51839e-06 0)
(1.69389e-05 8.93883e-06 0)
(1.70383e-05 9.33404e-06 0)
(1.71606e-05 9.71025e-06 0)
(1.73276e-05 1.00763e-05 0)
(1.65241e-05 4.93663e-06 -5.32165e-21)
(1.63372e-05 5.6701e-06 0)
(1.61878e-05 6.31689e-06 0)
(1.60835e-05 6.89506e-06 0)
(1.60238e-05 7.41294e-06 0)
(1.60055e-05 7.88179e-06 0)
(1.60237e-05 8.31069e-06 0)
(1.60738e-05 8.70802e-06 0)
(1.61519e-05 9.0803e-06 0)
(1.62533e-05 9.43391e-06 0)
(1.64155e-05 9.78362e-06 0)
(1.59025e-05 4.75932e-06 -8.16621e-21)
(1.56314e-05 5.51289e-06 0)
(1.54196e-05 6.14751e-06 0)
(1.52655e-05 6.7039e-06 0)
(1.51657e-05 7.1957e-06 0)
(1.51139e-05 7.63747e-06 0)
(1.51033e-05 8.03936e-06 0)
(1.51277e-05 8.41021e-06 0)
(1.51821e-05 8.75671e-06 0)
(1.52608e-05 9.08521e-06 0)
(1.54186e-05 9.41862e-06 0)
(1.52322e-05 4.55077e-06 -1.43517e-20)
(1.48672e-05 5.31354e-06 0)
(1.45891e-05 5.92955e-06 0)
(1.43835e-05 6.4589e-06 0)
(1.42425e-05 6.91993e-06 0)
(1.41565e-05 7.33046e-06 0)
(1.41165e-05 7.70169e-06 0)
(1.41148e-05 8.04289e-06 0)
(1.41452e-05 8.36086e-06 0)
(1.4201e-05 8.66182e-06 0)
(1.43558e-05 8.97913e-06 0)
(1.45109e-05 4.31866e-06 -2.47499e-20)
(1.40464e-05 5.0739e-06 0)
(1.37007e-05 5.66245e-06 0)
(1.34441e-05 6.15886e-06 0)
(1.32631e-05 6.58465e-06 0)
(1.31443e-05 6.96035e-06 0)
(1.30762e-05 7.29786e-06 0)
(1.30494e-05 7.60676e-06 0)
(1.3057e-05 7.89389e-06 0)
(1.30911e-05 8.16521e-06 0)
(1.32444e-05 8.46678e-06 0)
(1.37383e-05 4.0694e-06 -3.94849e-20)
(1.31738e-05 4.79664e-06 0)
(1.27621e-05 5.34696e-06 0)
(1.24572e-05 5.80375e-06 0)
(1.22392e-05 6.18988e-06 0)
(1.20903e-05 6.52757e-06 0)
(1.19966e-05 6.8289e-06 0)
(1.19473e-05 7.10347e-06 0)
(1.19342e-05 7.358e-06 0)
(1.19488e-05 7.59804e-06 0)
(1.21024e-05 7.88442e-06 0)
(1.29157e-05 3.80872e-06 -5.78987e-20)
(1.22563e-05 4.48564e-06 0)
(1.17834e-05 4.98604e-06 0)
(1.14348e-05 5.39634e-06 0)
(1.1184e-05 5.73863e-06 0)
(1.1009e-05 6.03564e-06 0)
(1.08934e-05 6.29896e-06 0)
(1.08247e-05 6.53787e-06 0)
(1.07938e-05 6.7587e-06 0)
(1.07916e-05 6.9664e-06 0)
(1.09471e-05 7.23795e-06 0)
(1.20452e-05 3.54197e-06 -7.84706e-20)
(1.13017e-05 4.14641e-06 0)
(1.07755e-05 4.5849e-06 0)
(1.03898e-05 4.94191e-06 0)
(1.01118e-05 5.23653e-06 0)
(9.91555e-06 5.49076e-06 0)
(9.78215e-06 5.71496e-06 0)
(9.69783e-06 5.91767e-06 0)
(9.65233e-06 6.10451e-06 0)
(9.63675e-06 6.27914e-06 0)
(9.79486e-06 6.53576e-06 0)
(1.90171e-05 1.08429e-05 3.90803e-22)
(1.92367e-05 1.12259e-05 1.2857e-21)
(1.94732e-05 1.16032e-05 2.09133e-21)
(1.97253e-05 1.19765e-05 2.80913e-21)
(1.99911e-05 1.23474e-05 3.44714e-21)
(2.02693e-05 1.27172e-05 4.01174e-21)
(2.05583e-05 1.30869e-05 4.50953e-21)
(2.08572e-05 1.34573e-05 4.94614e-21)
(2.11646e-05 1.38292e-05 5.3268e-21)
(2.14796e-05 1.42033e-05 5.65571e-21)
(2.18012e-05 1.45801e-05 5.93659e-21)
(2.21286e-05 1.49599e-05 6.17228e-21)
(2.24609e-05 1.53433e-05 6.3651e-21)
(2.27973e-05 1.57304e-05 6.51652e-21)
(2.31368e-05 1.61214e-05 6.62777e-21)
(2.34788e-05 1.65164e-05 6.69971e-21)
(2.38221e-05 1.69151e-05 6.73411e-21)
(2.41659e-05 1.73172e-05 6.73351e-21)
(2.45091e-05 1.77216e-05 6.70233e-21)
(2.46225e-05 1.79735e-05 -1.70009e-21)
(1.83505e-05 1.0674e-05 0)
(1.85887e-05 1.10489e-05 0)
(1.88407e-05 1.14188e-05 0)
(1.91052e-05 1.17857e-05 0)
(1.93811e-05 1.2151e-05 0)
(1.96671e-05 1.2516e-05 0)
(1.99625e-05 1.28816e-05 0)
(2.0266e-05 1.32487e-05 0)
(2.0577e-05 1.36179e-05 0)
(2.08946e-05 1.39899e-05 0)
(2.1218e-05 1.43651e-05 0)
(2.15465e-05 1.47439e-05 0)
(2.18794e-05 1.51268e-05 0)
(2.22161e-05 1.55139e-05 0)
(2.25559e-05 1.59054e-05 0)
(2.28982e-05 1.63014e-05 0)
(2.32423e-05 1.67015e-05 0)
(2.35877e-05 1.71055e-05 0)
(2.39336e-05 1.75123e-05 0)
(2.42781e-05 1.79197e-05 -1.01521e-20)
(1.75603e-05 1.04459e-05 0)
(1.78272e-05 1.0818e-05 0)
(1.81043e-05 1.11855e-05 0)
(1.83902e-05 1.15504e-05 0)
(1.86846e-05 1.19142e-05 0)
(1.89867e-05 1.2278e-05 0)
(1.92957e-05 1.2643e-05 0)
(1.96111e-05 1.30098e-05 0)
(1.99324e-05 1.33792e-05 0)
(2.02588e-05 1.37518e-05 0)
(2.05901e-05 1.41281e-05 0)
(2.09255e-05 1.45084e-05 0)
(2.12648e-05 1.48931e-05 0)
(2.16073e-05 1.52825e-05 0)
(2.19527e-05 1.56767e-05 0)
(2.23005e-05 1.60759e-05 0)
(2.26503e-05 1.64798e-05 0)
(2.30015e-05 1.68881e-05 0)
(2.33536e-05 1.73003e-05 0)
(2.37029e-05 1.77141e-05 -1.02354e-20)
(1.66736e-05 1.01502e-05 0)
(1.69765e-05 1.05258e-05 0)
(1.72855e-05 1.08966e-05 0)
(1.75996e-05 1.12647e-05 0)
(1.79189e-05 1.16317e-05 0)
(1.82429e-05 1.19987e-05 0)
(1.85714e-05 1.2367e-05 0)
(1.89041e-05 1.27372e-05 0)
(1.92407e-05 1.31102e-05 0)
(1.95811e-05 1.34865e-05 0)
(1.99248e-05 1.38667e-05 0)
(2.02717e-05 1.42511e-05 0)
(2.06214e-05 1.46402e-05 0)
(2.09739e-05 1.50343e-05 0)
(2.13287e-05 1.54336e-05 0)
(2.16856e-05 1.58382e-05 0)
(2.20443e-05 1.62483e-05 0)
(2.24044e-05 1.66636e-05 0)
(2.27652e-05 1.70841e-05 0)
(2.31218e-05 1.75079e-05 -1.03594e-20)
(1.57064e-05 9.78634e-06 0)
(1.60509e-05 1.01712e-05 0)
(1.63974e-05 1.05509e-05 0)
(1.67451e-05 1.09272e-05 0)
(1.70945e-05 1.13021e-05 0)
(1.74454e-05 1.16767e-05 0)
(1.77982e-05 1.20522e-05 0)
(1.81527e-05 1.24294e-05 0)
(1.85091e-05 1.28093e-05 0)
(1.88673e-05 1.31925e-05 0)
(1.92274e-05 1.35794e-05 0)
(1.95893e-05 1.39708e-05 0)
(1.99531e-05 1.43669e-05 0)
(2.03186e-05 1.47681e-05 0)
(2.06858e-05 1.51748e-05 0)
(2.10545e-05 1.55873e-05 0)
(2.14247e-05 1.60058e-05 0)
(2.1796e-05 1.64305e-05 0)
(2.21677e-05 1.68617e-05 0)
(2.25341e-05 1.72983e-05 -1.05202e-20)
(1.46765e-05 9.35248e-06 0)
(1.5067e-05 9.75259e-06 0)
(1.54553e-05 1.01469e-05 0)
(1.58405e-05 1.05366e-05 0)
(1.6224e-05 1.09242e-05 0)
(1.66057e-05 1.13107e-05 0)
(1.69863e-05 1.16975e-05 0)
(1.73662e-05 1.20856e-05 0)
(1.77456e-05 1.24759e-05 0)
(1.81249e-05 1.28691e-05 0)
(1.85043e-05 1.3266e-05 0)
(1.88841e-05 1.3667e-05 0)
(1.92644e-05 1.40727e-05 0)
(1.96454e-05 1.44835e-05 0)
(2.00272e-05 1.49e-05 0)
(2.04099e-05 1.53226e-05 0)
(2.07934e-05 1.57517e-05 0)
(2.11777e-05 1.61879e-05 0)
(2.15622e-05 1.66318e-05 0)
(2.19405e-05 1.70829e-05 -1.07189e-20)
(1.36005e-05 8.85011e-06 0)
(1.40398e-05 9.27121e-06 0)
(1.44728e-05 9.68555e-06 0)
(1.48984e-05 1.00938e-05 0)
(1.53188e-05 1.04987e-05 0)
(1.57341e-05 1.09014e-05 0)
(1.61454e-05 1.13036e-05 0)
(1.65531e-05 1.17062e-05 0)
(1.69581e-05 1.21103e-05 0)
(1.73609e-05 1.25168e-05 0)
(1.77619e-05 1.29265e-05 0)
(1.81616e-05 1.334e-05 0)
(1.85604e-05 1.37579e-05 0)
(1.89588e-05 1.41808e-05 0)
(1.93569e-05 1.46094e-05 0)
(1.9755e-05 1.50441e-05 0)
(2.01533e-05 1.54857e-05 0)
(2.05519e-05 1.59351e-05 0)
(2.09505e-05 1.63933e-05 0)
(2.13427e-05 1.68601e-05 -1.09573e-20)
(1.24948e-05 8.28204e-06 0)
(1.29841e-05 8.72949e-06 0)
(1.34633e-05 9.169e-06 0)
(1.39311e-05 9.60052e-06 0)
(1.43902e-05 1.00273e-05 0)
(1.48409e-05 1.04504e-05 0)
(1.52846e-05 1.08717e-05 0)
(1.57222e-05 1.12925e-05 0)
(1.61546e-05 1.17138e-05 0)
(1.65825e-05 1.21368e-05 0)
(1.70067e-05 1.25622e-05 0)
(1.74279e-05 1.29909e-05 0)
(1.78467e-05 1.34235e-05 0)
(1.82636e-05 1.38609e-05 0)
(1.86791e-05 1.43036e-05 0)
(1.90937e-05 1.47524e-05 0)
(1.95078e-05 1.52082e-05 0)
(1.99216e-05 1.56722e-05 0)
(2.03353e-05 1.61455e-05 0)
(2.0743e-05 1.66288e-05 -1.12381e-20)
(1.13757e-05 7.65358e-06 0)
(1.19144e-05 8.13215e-06 0)
(1.24401e-05 8.60122e-06 0)
(1.29505e-05 9.06034e-06 0)
(1.3449e-05 9.51277e-06 0)
(1.3936e-05 9.96007e-06 0)
(1.44133e-05 1.04041e-05 0)
(1.48817e-05 1.08463e-05 0)
(1.53425e-05 1.1288e-05 0)
(1.57967e-05 1.17304e-05 0)
(1.62451e-05 1.21744e-05 0)
(1.66888e-05 1.26209e-05 0)
(1.71283e-05 1.30708e-05 0)
(1.75646e-05 1.35248e-05 0)
(1.79983e-05 1.39837e-05 0)
(1.84301e-05 1.44484e-05 0)
(1.88605e-05 1.49199e-05 0)
(1.92901e-05 1.53996e-05 0)
(1.97194e-05 1.58888e-05 0)
(2.0144e-05 1.63887e-05 -1.15638e-20)
(1.02576e-05 6.97228e-06 0)
(1.08433e-05 7.48545e-06 0)
(1.14136e-05 7.98718e-06 0)
(1.19663e-05 8.4777e-06 0)
(1.25041e-05 8.95942e-06 0)
(1.30279e-05 9.43431e-06 0)
(1.35392e-05 9.90426e-06 0)
(1.40391e-05 1.0371e-05 0)
(1.4529e-05 1.08359e-05 0)
(1.501e-05 1.13004e-05 0)
(1.54833e-05 1.17655e-05 0)
(1.59499e-05 1.22322e-05 0)
(1.64107e-05 1.27015e-05 0)
(1.68668e-05 1.31742e-05 0)
(1.7319e-05 1.36512e-05 0)
(1.77682e-05 1.41334e-05 0)
(1.82151e-05 1.46219e-05 0)
(1.86607e-05 1.51182e-05 0)
(1.91058e-05 1.56236e-05 0)
(1.95481e-05 1.61401e-05 -1.19373e-20)
(9.26477e-06 6.35231e-06 0)
(9.88552e-06 6.89527e-06 0)
(1.04892e-05 7.42367e-06 0)
(1.10746e-05 7.94077e-06 0)
(1.16436e-05 8.44796e-06 0)
(1.21968e-05 8.9473e-06 0)
(1.27357e-05 9.44055e-06 0)
(1.32614e-05 9.92942e-06 0)
(1.37752e-05 1.04154e-05 0)
(1.42784e-05 1.08999e-05 0)
(1.47721e-05 1.13841e-05 0)
(1.52575e-05 1.18689e-05 0)
(1.57358e-05 1.23554e-05 0)
(1.62079e-05 1.28445e-05 0)
(1.6675e-05 1.33369e-05 0)
(1.7138e-05 1.38336e-05 0)
(1.7598e-05 1.43358e-05 0)
(1.80561e-05 1.48446e-05 0)
(1.85135e-05 1.53616e-05 0)
(1.89704e-05 1.58894e-05 -1.2236e-20)
(1.90171e-05 1.08429e-05 3.90803e-22)
(1.92367e-05 1.12259e-05 1.2857e-21)
(1.94732e-05 1.16032e-05 2.09133e-21)
(1.97253e-05 1.19765e-05 2.80913e-21)
(1.99911e-05 1.23474e-05 3.44714e-21)
(2.02693e-05 1.27172e-05 4.01174e-21)
(2.05583e-05 1.30869e-05 4.50953e-21)
(2.08572e-05 1.34573e-05 4.94614e-21)
(2.11646e-05 1.38292e-05 5.3268e-21)
(2.14796e-05 1.42033e-05 5.65571e-21)
(2.18012e-05 1.45801e-05 5.93659e-21)
(2.21286e-05 1.49599e-05 6.17228e-21)
(2.24609e-05 1.53433e-05 6.3651e-21)
(2.27973e-05 1.57304e-05 6.51652e-21)
(2.31368e-05 1.61214e-05 6.62777e-21)
(2.34788e-05 1.65164e-05 6.69971e-21)
(2.38221e-05 1.69151e-05 6.73411e-21)
(2.41659e-05 1.73172e-05 6.73351e-21)
(2.45091e-05 1.77216e-05 6.70233e-21)
(2.46225e-05 1.79735e-05 -1.70009e-21)
(1.83505e-05 1.0674e-05 0)
(1.85887e-05 1.10489e-05 0)
(1.88407e-05 1.14188e-05 0)
(1.91052e-05 1.17857e-05 0)
(1.93811e-05 1.2151e-05 0)
(1.96671e-05 1.2516e-05 0)
(1.99625e-05 1.28816e-05 0)
(2.0266e-05 1.32487e-05 0)
(2.0577e-05 1.36179e-05 0)
(2.08946e-05 1.39899e-05 0)
(2.1218e-05 1.43651e-05 0)
(2.15465e-05 1.47439e-05 0)
(2.18794e-05 1.51268e-05 0)
(2.22161e-05 1.55139e-05 0)
(2.25559e-05 1.59054e-05 0)
(2.28982e-05 1.63014e-05 0)
(2.32423e-05 1.67015e-05 0)
(2.35877e-05 1.71055e-05 0)
(2.39336e-05 1.75123e-05 0)
(2.42781e-05 1.79197e-05 -1.01521e-20)
(1.75603e-05 1.04459e-05 0)
(1.78272e-05 1.0818e-05 0)
(1.81043e-05 1.11855e-05 0)
(1.83902e-05 1.15504e-05 0)
(1.86846e-05 1.19142e-05 0)
(1.89867e-05 1.2278e-05 0)
(1.92957e-05 1.2643e-05 0)
(1.96111e-05 1.30098e-05 0)
(1.99324e-05 1.33792e-05 0)
(2.02588e-05 1.37518e-05 0)
(2.05901e-05 1.41281e-05 0)
(2.09255e-05 1.45084e-05 0)
(2.12648e-05 1.48931e-05 0)
(2.16073e-05 1.52825e-05 0)
(2.19527e-05 1.56767e-05 0)
(2.23005e-05 1.60759e-05 0)
(2.26503e-05 1.64798e-05 0)
(2.30015e-05 1.68881e-05 0)
(2.33536e-05 1.73003e-05 0)
(2.37029e-05 1.77141e-05 -1.02354e-20)
(1.66736e-05 1.01502e-05 0)
(1.69765e-05 1.05258e-05 0)
(1.72855e-05 1.08966e-05 0)
(1.75996e-05 1.12647e-05 0)
(1.79189e-05 1.16317e-05 0)
(1.82429e-05 1.19987e-05 0)
(1.85714e-05 1.2367e-05 0)
(1.89041e-05 1.27372e-05 0)
(1.92407e-05 1.31102e-05 0)
(1.95811e-05 1.34865e-05 0)
(1.99248e-05 1.38667e-05 0)
(2.02717e-05 1.42511e-05 0)
(2.06214e-05 1.46402e-05 0)
(2.09739e-05 1.50343e-05 0)
(2.13287e-05 1.54336e-05 0)
(2.16856e-05 1.58382e-05 0)
(2.20443e-05 1.62483e-05 0)
(2.24044e-05 1.66636e-05 0)
(2.27652e-05 1.70841e-05 0)
(2.31218e-05 1.75079e-05 -1.03594e-20)
(1.57064e-05 9.78634e-06 0)
(1.60509e-05 1.01712e-05 0)
(1.63974e-05 1.05509e-05 0)
(1.67451e-05 1.09272e-05 0)
(1.70945e-05 1.13021e-05 0)
(1.74454e-05 1.16767e-05 0)
(1.77982e-05 1.20522e-05 0)
(1.81527e-05 1.24294e-05 0)
(1.85091e-05 1.28093e-05 0)
(1.88673e-05 1.31925e-05 0)
(1.92274e-05 1.35794e-05 0)
(1.95893e-05 1.39708e-05 0)
(1.99531e-05 1.43669e-05 0)
(2.03186e-05 1.47681e-05 0)
(2.06858e-05 1.51748e-05 0)
(2.10545e-05 1.55873e-05 0)
(2.14247e-05 1.60058e-05 0)
(2.1796e-05 1.64305e-05 0)
(2.21677e-05 1.68617e-05 0)
(2.25341e-05 1.72983e-05 -1.05202e-20)
(1.46765e-05 9.35248e-06 0)
(1.5067e-05 9.75259e-06 0)
(1.54553e-05 1.01469e-05 0)
(1.58405e-05 1.05366e-05 0)
(1.6224e-05 1.09242e-05 0)
(1.66057e-05 1.13107e-05 0)
(1.69863e-05 1.16975e-05 0)
(1.73662e-05 1.20856e-05 0)
(1.77456e-05 1.24759e-05 0)
(1.81249e-05 1.28691e-05 0)
(1.85043e-05 1.3266e-05 0)
(1.88841e-05 1.3667e-05 0)
(1.92644e-05 1.40727e-05 0)
(1.96454e-05 1.44835e-05 0)
(2.00272e-05 1.49e-05 0)
(2.04099e-05 1.53226e-05 0)
(2.07934e-05 1.57517e-05 0)
(2.11777e-05 1.61879e-05 0)
(2.15622e-05 1.66318e-05 0)
(2.19405e-05 1.70829e-05 -1.07189e-20)
(1.36005e-05 8.85011e-06 0)
(1.40398e-05 9.27121e-06 0)
(1.44728e-05 9.68555e-06 0)
(1.48984e-05 1.00938e-05 0)
(1.53188e-05 1.04987e-05 0)
(1.57341e-05 1.09014e-05 0)
(1.61454e-05 1.13036e-05 0)
(1.65531e-05 1.17062e-05 0)
(1.69581e-05 1.21103e-05 0)
(1.73609e-05 1.25168e-05 0)
(1.77619e-05 1.29265e-05 0)
(1.81616e-05 1.334e-05 0)
(1.85604e-05 1.37579e-05 0)
(1.89588e-05 1.41808e-05 0)
(1.93569e-05 1.46094e-05 0)
(1.9755e-05 1.50441e-05 0)
(2.01533e-05 1.54857e-05 0)
(2.05519e-05 1.59351e-05 0)
(2.09505e-05 1.63933e-05 0)
(2.13427e-05 1.68601e-05 -1.09573e-20)
(1.24948e-05 8.28204e-06 0)
(1.29841e-05 8.72949e-06 0)
(1.34633e-05 9.169e-06 0)
(1.39311e-05 9.60052e-06 0)
(1.43902e-05 1.00273e-05 0)
(1.48409e-05 1.04504e-05 0)
(1.52846e-05 1.08717e-05 0)
(1.57222e-05 1.12925e-05 0)
(1.61546e-05 1.17138e-05 0)
(1.65825e-05 1.21368e-05 0)
(1.70067e-05 1.25622e-05 0)
(1.74279e-05 1.29909e-05 0)
(1.78467e-05 1.34235e-05 0)
(1.82636e-05 1.38609e-05 0)
(1.86791e-05 1.43036e-05 0)
(1.90937e-05 1.47524e-05 0)
(1.95078e-05 1.52082e-05 0)
(1.99216e-05 1.56722e-05 0)
(2.03353e-05 1.61455e-05 0)
(2.0743e-05 1.66288e-05 -1.12381e-20)
(1.13757e-05 7.65358e-06 0)
(1.19144e-05 8.13215e-06 0)
(1.24401e-05 8.60122e-06 0)
(1.29505e-05 9.06034e-06 0)
(1.3449e-05 9.51277e-06 0)
(1.3936e-05 9.96007e-06 0)
(1.44133e-05 1.04041e-05 0)
(1.48817e-05 1.08463e-05 0)
(1.53425e-05 1.1288e-05 0)
(1.57967e-05 1.17304e-05 0)
(1.62451e-05 1.21744e-05 0)
(1.66888e-05 1.26209e-05 0)
(1.71283e-05 1.30708e-05 0)
(1.75646e-05 1.35248e-05 0)
(1.79983e-05 1.39837e-05 0)
(1.84301e-05 1.44484e-05 0)
(1.88605e-05 1.49199e-05 0)
(1.92901e-05 1.53996e-05 0)
(1.97194e-05 1.58888e-05 0)
(2.0144e-05 1.63887e-05 -1.15638e-20)
(1.02576e-05 6.97228e-06 0)
(1.08433e-05 7.48545e-06 0)
(1.14136e-05 7.98718e-06 0)
(1.19663e-05 8.4777e-06 0)
(1.25041e-05 8.95942e-06 0)
(1.30279e-05 9.43431e-06 0)
(1.35392e-05 9.90426e-06 0)
(1.40391e-05 1.0371e-05 0)
(1.4529e-05 1.08359e-05 0)
(1.501e-05 1.13004e-05 0)
(1.54833e-05 1.17655e-05 0)
(1.59499e-05 1.22322e-05 0)
(1.64107e-05 1.27015e-05 0)
(1.68668e-05 1.31742e-05 0)
(1.7319e-05 1.36512e-05 0)
(1.77682e-05 1.41334e-05 0)
(1.82151e-05 1.46219e-05 0)
(1.86607e-05 1.51182e-05 0)
(1.91058e-05 1.56236e-05 0)
(1.95481e-05 1.61401e-05 -1.19373e-20)
(9.26477e-06 6.35231e-06 0)
(9.88552e-06 6.89527e-06 0)
(1.04892e-05 7.42367e-06 0)
(1.10746e-05 7.94077e-06 0)
(1.16436e-05 8.44796e-06 0)
(1.21968e-05 8.9473e-06 0)
(1.27357e-05 9.44055e-06 0)
(1.32614e-05 9.92942e-06 0)
(1.37752e-05 1.04154e-05 0)
(1.42784e-05 1.08999e-05 0)
(1.47721e-05 1.13841e-05 0)
(1.52575e-05 1.18689e-05 0)
(1.57358e-05 1.23554e-05 0)
(1.62079e-05 1.28445e-05 0)
(1.6675e-05 1.33369e-05 0)
(1.7138e-05 1.38336e-05 0)
(1.7598e-05 1.43358e-05 0)
(1.80561e-05 1.48446e-05 0)
(1.85135e-05 1.53616e-05 0)
(1.89704e-05 1.58894e-05 -1.2236e-20)
(7.79389e-06 5.31679e-06 0)
(8.54162e-06 5.92691e-06 0)
(9.17445e-06 6.48248e-06 0)
(9.79002e-06 7.02294e-06 0)
(1.03881e-05 7.55306e-06 0)
(1.09698e-05 8.07375e-06 0)
(1.15356e-05 8.58673e-06 0)
(1.20868e-05 9.0935e-06 0)
(1.26244e-05 9.59553e-06 0)
(1.31494e-05 1.00942e-05 0)
(1.3663e-05 1.05906e-05 0)
(1.41664e-05 1.10859e-05 0)
(1.46607e-05 1.15811e-05 0)
(1.51471e-05 1.20771e-05 0)
(1.56266e-05 1.25746e-05 0)
(1.61003e-05 1.30744e-05 0)
(1.65693e-05 1.35773e-05 0)
(1.70349e-05 1.40844e-05 0)
(1.74981e-05 1.45967e-05 0)
(1.79607e-05 1.51154e-05 0)
(1.84237e-05 1.5643e-05 -1.23083e-20)
(7.26371e-06 5.00528e-06 0)
(7.98683e-06 5.60766e-06 0)
(8.61529e-06 6.16434e-06 0)
(9.22868e-06 6.70876e-06 0)
(9.82628e-06 7.24452e-06 0)
(1.04088e-05 7.77207e-06 0)
(1.09764e-05 8.29263e-06 0)
(1.153e-05 8.80736e-06 0)
(1.20704e-05 9.3174e-06 0)
(1.25984e-05 9.82382e-06 0)
(1.31151e-05 1.03276e-05 0)
(1.36215e-05 1.08298e-05 0)
(1.41185e-05 1.1331e-05 0)
(1.46074e-05 1.18321e-05 0)
(1.5089e-05 1.23338e-05 0)
(1.55647e-05 1.28368e-05 0)
(1.60353e-05 1.33416e-05 0)
(1.65023e-05 1.38491e-05 0)
(1.69668e-05 1.43601e-05 0)
(1.74306e-05 1.48754e-05 0)
(1.7895e-05 1.53969e-05 -1.22631e-20)
(6.79303e-06 4.70525e-06 0)
(7.4894e-06 5.29948e-06 0)
(8.10686e-06 5.85492e-06 0)
(8.71249e-06 6.4011e-06 0)
(9.30443e-06 6.94069e-06 0)
(9.88315e-06 7.47358e-06 0)
(1.04484e-05 8.00051e-06 0)
(1.10008e-05 8.52222e-06 0)
(1.15407e-05 9.0395e-06 0)
(1.20688e-05 9.55316e-06 0)
(1.2586e-05 1.00639e-05 0)
(1.30932e-05 1.05726e-05 0)
(1.35912e-05 1.10797e-05 0)
(1.4081e-05 1.15859e-05 0)
(1.45636e-05 1.20917e-05 0)
(1.50401e-05 1.25977e-05 0)
(1.55116e-05 1.31043e-05 0)
(1.59793e-05 1.36121e-05 0)
(1.64445e-05 1.41215e-05 0)
(1.69092e-05 1.46331e-05 0)
(1.73744e-05 1.51477e-05 -1.22359e-20)
(6.37323e-06 4.41913e-06 0)
(7.0412e-06 5.00323e-06 0)
(7.64379e-06 5.55532e-06 0)
(8.23752e-06 6.10144e-06 0)
(8.81987e-06 6.64329e-06 0)
(9.39107e-06 7.18016e-06 0)
(9.95047e-06 7.71229e-06 0)
(1.04983e-05 8.24e-06 0)
(1.10349e-05 8.76372e-06 0)
(1.15606e-05 9.28394e-06 0)
(1.2076e-05 9.80116e-06 0)
(1.2582e-05 1.03159e-05 0)
(1.30792e-05 1.08285e-05 0)
(1.35685e-05 1.13396e-05 0)
(1.40508e-05 1.18493e-05 0)
(1.45272e-05 1.23582e-05 0)
(1.49987e-05 1.28664e-05 0)
(1.54665e-05 1.33743e-05 0)
(1.59319e-05 1.38819e-05 0)
(1.6397e-05 1.43894e-05 0)
(1.68626e-05 1.48969e-05 -1.22278e-20)
(5.99709e-06 4.14783e-06 0)
(6.63602e-06 4.72076e-06 0)
(7.22082e-06 5.26783e-06 0)
(7.79954e-06 5.81224e-06 0)
(8.3692e-06 6.35475e-06 0)
(8.92984e-06 6.89415e-06 0)
(9.48048e-06 7.4302e-06 0)
(1.00212e-05 7.96278e-06 0)
(1.05519e-05 8.49196e-06 0)
(1.10728e-05 9.01792e-06 0)
(1.15845e-05 9.54088e-06 0)
(1.20875e-05 1.00611e-05 0)
(1.25823e-05 1.05788e-05 0)
(1.30698e-05 1.10943e-05 0)
(1.35508e-05 1.16077e-05 0)
(1.40261e-05 1.21192e-05 0)
(1.44969e-05 1.26289e-05 0)
(1.49641e-05 1.31366e-05 0)
(1.54291e-05 1.36423e-05 0)
(1.58939e-05 1.41457e-05 0)
(1.63593e-05 1.46463e-05 -1.22397e-20)
(5.6571e-06 3.89138e-06 0)
(6.26717e-06 4.45228e-06 0)
(6.83238e-06 4.99304e-06 0)
(7.39391e-06 5.53438e-06 0)
(7.94861e-06 6.0762e-06 0)
(8.49634e-06 6.61684e-06 0)
(9.03592e-06 7.15562e-06 0)
(9.56721e-06 7.69198e-06 0)
(1.00899e-05 8.22565e-06 0)
(1.06043e-05 8.75647e-06 0)
(1.11104e-05 9.28442e-06 0)
(1.16088e-05 9.80949e-06 0)
(1.20999e-05 1.03317e-05 0)