/*--------------------------------*- C++ -*----------------------------------*\
  =========                 |
  \\      /  F ield         | OpenFOAM: The Open Source CFD Toolbox
   \\    /   O peration     | Website:  https://openfoam.org
    \\  /    A nd           | Version:  9
     \\/     M anipulation  |
\*---------------------------------------------------------------------------*/
FoamFile
{
    format      ascii;
    class       volScalarField;
    location    "15";
    object      sigmaEq;
}
// * * * * * * * * * * * * * * * * * * * * * * * * * * * * * * * * * * * * * //

dimensions      [1 -1 -2 0 0 0 0];

internalField   nonuniform List<scalar> 
1000
(
2.59183e+06
2.46587e+06
2.42963e+06
2.43275e+06
2.4244e+06
2.40837e+06
2.3839e+06
2.35183e+06
2.3187e+06
2.27782e+06
3.01384e+06
2.77457e+06
2.64433e+06
2.58756e+06
2.53881e+06
2.49392e+06
2.44762e+06
2.39968e+06
2.34965e+06
2.30208e+06
3.44953e+06
3.06895e+06
2.84247e+06
2.71986e+06
2.6263e+06
2.54833e+06
2.47743e+06
2.41056e+06
2.34467e+06
2.28628e+06
3.85468e+06
3.34686e+06
3.02433e+06
2.83195e+06
2.68917e+06
2.57515e+06
2.4775e+06
2.3908e+06
2.3092e+06
2.24016e+06
4.25038e+06
3.60722e+06
3.19194e+06
2.92508e+06
2.72892e+06
2.57593e+06
2.44993e+06
2.34253e+06
2.24588e+06
2.16582e+06
4.6197e+06
3.85248e+06
3.34397e+06
2.99916e+06
2.74709e+06
2.55333e+06
2.39845e+06
2.27037e+06
2.15942e+06
2.06838e+06
4.91181e+06
4.06305e+06
3.45688e+06
3.03927e+06
2.73459e+06
2.50388e+06
2.32344e+06
2.17748e+06
2.05479e+06
1.954e+06
5.19197e+06
4.23084e+06
3.52197e+06
3.04055e+06
2.6925e+06
2.43354e+06
2.23463e+06
2.07646e+06
1.94647e+06
1.83884e+06
5.40902e+06
4.29787e+06
3.49516e+06
2.96636e+06
2.60207e+06
2.33555e+06
2.13351e+06
1.97348e+06
1.84303e+06
1.73292e+06
5.7729e+06
4.22206e+06
3.37706e+06
2.86442e+06
2.51835e+06
2.26553e+06
2.07173e+06
1.91627e+06
1.78838e+06
1.67767e+06
10329.5
19150.1
87873.5
184987
292817
404655
513584
617554
713664
804138
22428.2
126372
266616
404025
527353
637745
734951
824188
901297
974384
101117
296232
473585
631728
764609
876686
969841
1.04893e+06
1.11156e+06
1.17176e+06
237540
505176
704789
871009
1.00576e+06
1.1152e+06
1.20109e+06
1.27073e+06
1.32125e+06
1.37104e+06
434136
742793
953749
1.1218e+06
1.25118e+06
1.35138e+06
1.42662e+06
1.48497e+06
1.5232e+06
1.56254e+06
689913
999637
1.20917e+06
1.3735e+06
1.49132e+06
1.5787e+06
1.64089e+06
1.68636e+06
1.712e+06
1.7403e+06
999467
1.27161e+06
1.46716e+06
1.61789e+06
1.72004e+06
1.7919e+06
1.83928e+06
1.87066e+06
1.88351e+06
1.90002e+06
1.35348e+06
1.55621e+06
1.72037e+06
1.84874e+06
1.93093e+06
1.98492e+06
2.01641e+06
2.03298e+06
2.03372e+06
2.0376e+06
1.74449e+06
1.85334e+06
1.96584e+06
2.06254e+06
2.12007e+06
2.15378e+06
2.16808e+06
2.16931e+06
2.15834e+06
2.15025e+06
2.15615e+06
2.15786e+06
2.20293e+06
2.25726e+06
2.28448e+06
2.2945e+06
2.28999e+06
2.2744e+06
2.25445e+06
2.22922e+06
885410
955746
1.02083e+06
1.07961e+06
1.13275e+06
1.1805e+06
1.22337e+06
1.26165e+06
1.29575e+06
1.32593e+06
1.35246e+06
1.37552e+06
1.39528e+06
1.41182e+06
1.4252e+06
1.43549e+06
1.44264e+06
1.44692e+06
1.44828e+06
1.44765e+06
1.03094e+06
1.07343e+06
1.11613e+06
1.15549e+06
1.19242e+06
1.22653e+06
1.25802e+06
1.28679e+06
1.31303e+06
1.33673e+06
1.35804e+06
1.377e+06
1.39371e+06
1.4082e+06
1.42052e+06
1.43069e+06
1.43861e+06
1.4443e+06
1.44716e+06
1.44707e+06
1.20625e+06
1.22222e+06
1.24214e+06
1.26075e+06
1.27967e+06
1.29802e+06
1.31602e+06
1.33322e+06
1.34969e+06
1.36518e+06
1.37972e+06
1.3932e+06
1.4056e+06
1.41689e+06
1.427e+06
1.43585e+06
1.44314e+06
1.44862e+06
1.45104e+06
1.44997e+06
1.38687e+06
1.38001e+06
1.37987e+06
1.37961e+06
1.38156e+06
1.38451e+06
1.38896e+06
1.39418e+06
1.40028e+06
1.40683e+06
1.41379e+06
1.42091e+06
1.42809e+06
1.43517e+06
1.44199e+06
1.44833e+06
1.45374e+06
1.45783e+06
1.45908e+06
1.45715e+06
1.56182e+06
1.53561e+06
1.51811e+06
1.50133e+06
1.48819e+06
1.47701e+06
1.46878e+06
1.46245e+06
1.45835e+06
1.45585e+06
1.45496e+06
1.4553e+06
1.45674e+06
1.45902e+06
1.46188e+06
1.46505e+06
1.46797e+06
1.47021e+06
1.47025e+06
1.46787e+06
1.72477e+06
1.68236e+06
1.65023e+06
1.6192e+06
1.59315e+06
1.56948e+06
1.54995e+06
1.53307e+06
1.51944e+06
1.50831e+06
1.49971e+06
1.49325e+06
1.48875e+06
1.48593e+06
1.48449e+06
1.48411e+06
1.48427e+06
1.48453e+06
1.48369e+06
1.48149e+06
1.8715e+06
1.81593e+06
1.77237e+06
1.72926e+06
1.69263e+06
1.65812e+06
1.62864e+06
1.60227e+06
1.57988e+06
1.56071e+06
1.54482e+06
1.53181e+06
1.5215e+06
1.5136e+06
1.50783e+06
1.50386e+06
1.50128e+06
1.49969e+06
1.49835e+06
1.49689e+06
1.99825e+06
1.93243e+06
1.88119e+06
1.82792e+06
1.78305e+06
1.73984e+06
1.70217e+06
1.66784e+06
1.63781e+06
1.61143e+06
1.58878e+06
1.56957e+06
1.55364e+06
1.54075e+06
1.53069e+06
1.52316e+06
1.51793e+06
1.51465e+06
1.51318e+06
1.51296e+06
2.1046e+06
2.0293e+06
1.9759e+06
1.91521e+06
1.86359e+06
1.81323e+06
1.76826e+06
1.72703e+06
1.69029e+06
1.65761e+06
1.62901e+06
1.60429e+06
1.5833e+06
1.56586e+06
1.55184e+06
1.54102e+06
1.53339e+06
1.52865e+06
1.52734e+06
1.52866e+06
2.18663e+06
2.10707e+06
2.05361e+06
1.99196e+06
1.93618e+06
1.88175e+06
1.83107e+06
1.78399e+06
1.74106e+06
1.70232e+06
1.66786e+06
1.63762e+06
1.61154e+06
1.58949e+06
1.57144e+06
1.55725e+06
1.54715e+06
1.54091e+06
1.53982e+06
1.54285e+06
2.22357e+06
2.14882e+06
2.09361e+06
2.03413e+06
1.97733e+06
1.92196e+06
1.8695e+06
1.8201e+06
1.77443e+06
1.73265e+06
1.69499e+06
1.66149e+06
1.63222e+06
1.60717e+06
1.58641e+06
1.56993e+06
1.55817e+06
1.55099e+06
1.55022e+06
1.5547e+06
2.17164e+06
2.12683e+06
2.07596e+06
2.02355e+06
1.97188e+06
1.9208e+06
1.8717e+06
1.8248e+06
1.78086e+06
1.74014e+06
1.70299e+06
1.66957e+06
1.64007e+06
1.61459e+06
1.59334e+06
1.5764e+06
1.56443e+06
1.55736e+06
1.55746e+06
1.56341e+06
2.13118e+06
2.09383e+06
2.05321e+06
2.00712e+06
1.96133e+06
1.91453e+06
1.86895e+06
1.82465e+06
1.78265e+06
1.74325e+06
1.70693e+06
1.67395e+06
1.64459e+06
1.61905e+06
1.59765e+06
1.58058e+06
1.56862e+06
1.56176e+06
1.5625e+06
1.56942e+06
2.07983e+06
2.05248e+06
2.02048e+06
1.98091e+06
1.94101e+06
1.89888e+06
1.85729e+06
1.81621e+06
1.77682e+06
1.73946e+06
1.70473e+06
1.67293e+06
1.64444e+06
1.61952e+06
1.59856e+06
1.58186e+06
1.57017e+06
1.56376e+06
1.56522e+06
1.57268e+06
2.02019e+06
2.00117e+06
1.97746e+06
1.94482e+06
1.91128e+06
1.87445e+06
1.83747e+06
1.80025e+06
1.76413e+06
1.72948e+06
1.69699e+06
1.66701e+06
1.63999e+06
1.61625e+06
1.59616e+06
1.58026e+06
1.56884e+06
1.56355e+06
1.56287e+06
1.57314e+06
1.95549e+06
1.94414e+06
1.92798e+06
1.90203e+06
1.87462e+06
1.84317e+06
1.81099e+06
1.77797e+06
1.74552e+06
1.71406e+06
1.68431e+06
1.65669e+06
1.63168e+06
1.60961e+06
1.59098e+06
1.57611e+06
1.5659e+06
1.56058e+06
1.56237e+06
1.56965e+06
1.88721e+06
1.88251e+06
1.87306e+06
1.8535e+06
1.832e+06
1.80597e+06
1.77873e+06
1.75015e+06
1.72171e+06
1.69381e+06
1.66723e+06
1.64241e+06
1.61984e+06
1.59988e+06
1.58301e+06
1.56955e+06
1.56035e+06
1.55543e+06
1.55707e+06
1.56392e+06
1.81679e+06
1.81783e+06
1.81435e+06
1.80069e+06
1.78474e+06
1.76399e+06
1.74165e+06
1.71764e+06
1.69339e+06
1.66933e+06
1.64625e+06
1.62457e+06
1.60481e+06
1.58731e+06
1.57253e+06
1.56074e+06
1.55269e+06
1.54841e+06
1.54983e+06
1.55573e+06
1.74498e+06
1.75087e+06
1.75259e+06
1.74432e+06
1.73355e+06
1.71791e+06
1.70043e+06
1.68104e+06
1.66113e+06
1.64113e+06
1.62181e+06
1.60357e+06
1.58693e+06
1.5722e+06
1.55979e+06
1.54992e+06
1.54321e+06
1.53961e+06
1.54074e+06
1.5455e+06
1.67218e+06
1.68214e+06
1.68838e+06
1.68504e+06
1.67911e+06
1.66838e+06
1.65567e+06
1.64093e+06
1.62547e+06
1.60969e+06
1.59433e+06
1.57979e+06
1.56652e+06
1.55482e+06
1.54504e+06
1.53734e+06
1.53216e+06
1.5294e+06
1.53022e+06
1.53367e+06
1.59839e+06
1.61177e+06
1.62198e+06
1.62316e+06
1.62178e+06
1.61581e+06
1.60782e+06
1.59777e+06
1.58685e+06
1.57546e+06
1.56425e+06
1.55361e+06
1.54394e+06
1.53551e+06
1.52859e+06
1.52327e+06
1.51982e+06
1.51806e+06
1.51864e+06
1.52078e+06
1.52335e+06
1.53969e+06
1.55344e+06
1.55885e+06
1.56185e+06
1.56057e+06
1.55731e+06
1.55202e+06
1.54578e+06
1.53892e+06
1.53205e+06
1.5255e+06
1.51963e+06
1.51466e+06
1.51079e+06
1.50806e+06
1.50653e+06
1.50597e+06
1.50648e+06
1.50742e+06
1.44654e+06
1.46555e+06
1.48261e+06
1.49215e+06
1.49951e+06
1.50296e+06
1.50454e+06
1.50417e+06
1.50278e+06
1.50064e+06
1.49829e+06
1.49601e+06
1.4941e+06
1.49275e+06
1.49209e+06
1.4921e+06
1.49269e+06
1.49353e+06
1.49422e+06
1.49419e+06
1.36728e+06
1.38895e+06
1.40932e+06
1.42308e+06
1.43495e+06
1.44336e+06
1.45001e+06
1.4548e+06
1.4585e+06
1.46132e+06
1.4637e+06
1.46586e+06
1.46805e+06
1.47042e+06
1.47305e+06
1.4759e+06
1.47875e+06
1.48119e+06
1.48234e+06
1.48166e+06
1.28467e+06
1.3093e+06
1.33327e+06
1.35163e+06
1.36842e+06
1.38218e+06
1.39431e+06
1.40464e+06
1.41377e+06
1.42184e+06
1.42917e+06
1.43594e+06
1.44235e+06
1.44849e+06
1.45445e+06
1.46014e+06
1.46528e+06
1.46944e+06
1.47137e+06
1.47043e+06
1.19806e+06
1.22633e+06
1.25454e+06
1.27818e+06
1.30052e+06
1.32025e+06
1.3384e+06
1.35475e+06
1.36972e+06
1.38336e+06
1.39589e+06
1.40742e+06
1.4181e+06
1.42801e+06
1.43719e+06
1.44561e+06
1.45296e+06
1.45882e+06
1.46176e+06
1.461e+06
1.1065e+06
1.13965e+06
1.17319e+06
1.20319e+06
1.23207e+06
1.25862e+06
1.28353e+06
1.30651e+06
1.32781e+06
1.34738e+06
1.36536e+06
1.38179e+06
1.39677e+06
1.41036e+06
1.42259e+06
1.43344e+06
1.44271e+06
1.45001e+06
1.45405e+06
1.45386e+06
1.01063e+06
1.05042e+06
1.09079e+06
1.12851e+06
1.16505e+06
1.19937e+06
1.23179e+06
1.26197e+06
1.29e+06
1.31579e+06
1.33937e+06
1.36075e+06
1.37997e+06
1.39705e+06
1.41204e+06
1.42493e+06
1.4356e+06
1.44385e+06
1.44871e+06
1.44922e+06
910720
959783
1.00914e+06
1.05634e+06
1.10196e+06
1.1451e+06
1.18581e+06
1.22374e+06
1.25887e+06
1.29108e+06
1.32037e+06
1.3467e+06
1.37006e+06
1.39047e+06
1.40788e+06
1.42229e+06
1.4336e+06
1.4418e+06
1.44647e+06
1.44735e+06
813630
874506
934689
992538
1.04805e+06
1.10042e+06
1.1496e+06
1.19523e+06
1.23728e+06
1.27565e+06
1.31034e+06
1.3413e+06
1.36853e+06
1.39195e+06
1.41146e+06
1.42697e+06
1.43824e+06
1.44538e+06
1.44819e+06
1.44789e+06
1.58408e+06
1.63778e+06
1.73972e+06
1.85365e+06
1.97016e+06
2.07233e+06
2.15326e+06
2.20727e+06
2.23496e+06
2.22944e+06
1.49807e+06
1.54869e+06
1.64443e+06
1.7546e+06
1.87215e+06
1.98111e+06
2.07433e+06
2.14375e+06
2.18773e+06
2.1956e+06
1.42052e+06
1.46868e+06
1.55813e+06
1.66187e+06
1.77482e+06
1.88226e+06
1.97827e+06
2.05634e+06
2.11554e+06
2.14907e+06
1.34947e+06
1.39614e+06
1.48089e+06
1.57954e+06
1.68886e+06
1.79509e+06
1.89233e+06
1.97439e+06
2.03834e+06
2.08643e+06
1.28279e+06
1.32824e+06
1.40859e+06
1.50182e+06
1.60631e+06
1.70968e+06
1.80654e+06
1.8922e+06
1.96035e+06
2.01845e+06
1.22012e+06
1.26482e+06
1.34174e+06
1.43034e+06
1.53025e+06
1.63018e+06
1.72481e+06
1.81116e+06
1.88048e+06
1.94513e+06
1.1602e+06
1.20429e+06
1.2782e+06
1.36251e+06
1.45791e+06
1.55423e+06
1.64626e+06
1.73247e+06
1.80194e+06
1.86978e+06
1.10275e+06
1.14636e+06
1.21773e+06
1.29822e+06
1.38933e+06
1.48181e+06
1.57058e+06
1.65542e+06
1.72427e+06
1.79344e+06
1.04736e+06
1.09028e+06
1.15935e+06
1.23632e+06
1.32338e+06
1.41204e+06
1.49746e+06
1.58027e+06
1.64798e+06
1.71698e+06
994457
1.03578e+06
1.10266e+06
1.1763e+06
1.25943e+06
1.3442e+06
1.42612e+06
1.50634e+06
1.57263e+06
1.64061e+06
943083
982582
1.04718e+06
1.11748e+06
1.19672e+06
1.27753e+06
1.35589e+06
1.43315e+06
1.49778e+06
1.56416e+06
893337
930635
992616
1.05934e+06
1.13451e+06
1.21117e+06
1.28584e+06
1.35987e+06
1.42268e+06
1.48716e+06
845563
880565
938696
1.00126e+06
1.07193e+06
1.14414e+06
1.21493e+06
1.28553e+06
1.3464e+06
1.40886e+06
800437
832301
885189
942628
1.00808e+06
1.07536e+06
1.14202e+06
1.209e+06
1.26789e+06
1.32835e+06
759332
786185
831656
882305
941414
1.00314e+06
1.06541e+06
1.12873e+06
1.18574e+06
1.24441e+06
724203
742472
777354
819117
870493
925979
983610
1.04334e+06
1.09873e+06
1.15603e+06
698971
701890
720751
749513
791545
840362
893573
950277
1.00485e+06
1.06171e+06
686208
660822
657434
671584
702718
744670
794146
848850
903867
961589
696411
613820
575519
572620
595197
632620
680371
735410
793636
854807
700188
526672
467286
450067
469028
506270
557115
616451
680297
748020
)
;

boundaryField
{
    left
    {
        type            calculated;
        value           nonuniform List<scalar> 
30
(
1.57066e+06
1.48489e+06
1.40754e+06
1.33657e+06
1.27002e+06
1.20753e+06
1.14791e+06
1.0909e+06
1.03627e+06
984285
934135
885976
840208
797600
759630
728885
710432
712998
762889
878954
6.098e+06
4.12422e+06
3.26558e+06
2.79883e+06
2.48003e+06
2.24209e+06
2.05528e+06
1.90286e+06
1.77612e+06
1.66483e+06
)
;
    }
    right
    {
        type            calculated;
        value           nonuniform List<scalar> 
30
(
1.44736e+06
1.44707e+06
1.4498e+06
1.45688e+06
1.46755e+06
1.48119e+06
1.49665e+06
1.51286e+06
1.52869e+06
1.54308e+06
1.555e+06
1.56393e+06
1.57e+06
1.57331e+06
1.57331e+06
1.57021e+06
1.56452e+06
1.55626e+06
1.54593e+06
1.53398e+06
1.52098e+06
1.50751e+06
1.49417e+06
1.48158e+06
1.47031e+06
1.46088e+06
1.45379e+06
1.44922e+06
1.44742e+06
1.44755e+06
)
;
    }
    down
    {
        type            calculated;
        value           nonuniform List<scalar> 
30
(
7856.15
5670.37
65468.4
160586
270127
384604
496428
603039
701166
793574
876797
949320
1.01594e+06
1.07584e+06
1.12988e+06
1.1783e+06
1.22171e+06
1.2604e+06
1.29482e+06
1.32525e+06
1.35198e+06
1.3752e+06
1.39507e+06
1.41171e+06
1.42515e+06
1.43547e+06
1.44263e+06
1.4469e+06
1.44827e+06
1.4478e+06
)
;
    }
    up
    {
        type            calculated;
        value           nonuniform List<scalar> 
30
(
678561
520452
465415
448442
467017
503762
554247
613391
677144
744961
810706
871899
932452
990612
1.04644e+06
1.09908e+06
1.14851e+06
1.19436e+06
1.23661e+06
1.27514e+06
1.30997e+06
1.34106e+06
1.36838e+06
1.39188e+06
1.41145e+06
1.42699e+06
1.43827e+06
1.44539e+06
1.44818e+06
1.44799e+06
)
;
    }
    hole
    {
        type            calculated;
        value           nonuniform List<scalar> 
20
(
2.40923e+06
2.76164e+06
3.19688e+06
3.73692e+06
4.22175e+06
4.49191e+06
4.7761e+06
5.12392e+06
4.97403e+06
5.0169e+06
3843.22
3775.2
50769.8
173541
364913
622594
938521
1.30191e+06
1.70443e+06
2.12774e+06
)
;
    }
    frontAndBack
    {
        type            empty;
    }
}


// ************************************************************************* //
