/*--------------------------------*- C++ -*----------------------------------*\
  =========                 |
  \\      /  F ield         | OpenFOAM: The Open Source CFD Toolbox
   \\    /   O peration     | Website:  https://openfoam.org
    \\  /    A nd           | Version:  9
     \\/     M anipulation  |
\*---------------------------------------------------------------------------*/
FoamFile
{
    format      ascii;
    class       volSymmTensorField;
    location    "15";
    object      sigma;
}
// * * * * * * * * * * * * * * * * * * * * * * * * * * * * * * * * * * * * * //

dimensions      [1 -1 -2 0 0 0 0];

internalField   nonuniform List<symmTensor> 
1000
(
(1.83094e+06 -1.27022e+06 -5.97511e-10 1.0756e+06 -8.88437e-10 249412)
(2.15799e+06 -976544 -3.86078e-10 581141 -6.09271e-10 205625)
(2.32088e+06 -748715 -2.29528e-10 355200 -4.18687e-10 187621)
(2.39042e+06 -576642 -1.1919e-10 174288 -2.78083e-10 170010)
(2.41601e+06 -437763 -3.30492e-11 69486 -1.71971e-10 159628)
(2.40645e+06 -329521 3.00332e-11 -8959.48 -9.21415e-11 150481)
(2.38256e+06 -241372 7.95836e-11 -59498.9 -3.0044e-11 143961)
(2.34536e+06 -171354 1.16496e-10 -95978.2 1.73131e-11 138347)
(2.30697e+06 -113107 1.46362e-10 -120005 5.53432e-11 134125)
(2.25596e+06 -64656.1 1.68413e-10 -142984 8.571e-11 129269)
(2.31053e+06 -1.4047e+06 -5.64094e-10 1.08539e+06 -9.31809e-10 270397)
(2.54937e+06 -1.00853e+06 -3.49674e-10 609830 -6.00589e-10 228504)
(2.63528e+06 -719348 -1.65153e-10 407648 -3.7873e-10 210609)
(2.64353e+06 -512942 -4.18856e-11 235590 -2.21654e-10 191568)
(2.62272e+06 -354364 5.01848e-11 138776 -1.0738e-10 180182)
(2.57511e+06 -236415 1.14027e-10 63769.8 -2.4758e-11 169714)
(2.52028e+06 -143946 1.61962e-10 15416.2 3.73204e-11 161990)
(2.45752e+06 -73759.3 1.95318e-10 -22550.4 8.27959e-11 154905)
(2.39529e+06 -16789.7 2.21057e-10 -45741.5 1.17866e-10 149581)
(2.32648e+06 28766.5 2.38516e-10 -77062.8 1.45779e-10 142706)
(2.84246e+06 -1.50232e+06 -5.81188e-10 1.06097e+06 -9.52243e-10 293988)
(2.94788e+06 -1.00292e+06 -2.8934e-10 627134 -5.65128e-10 250792)
(2.93658e+06 -668543 -8.92423e-11 462925 -3.26042e-10 233612)
(2.87604e+06 -435215 4.17779e-11 313808 -1.59662e-10 214494)
(2.80281e+06 -263196 1.35239e-10 230542 -4.2517e-11 202437)
(2.714e+06 -139691 1.96979e-10 163549 3.93563e-11 191027)
(2.62655e+06 -46522.1 2.40898e-10 119766 9.86044e-11 182275)
(2.53713e+06 21457.5 2.69142e-10 82412.5 1.40291e-10 173903)
(2.45312e+06 74382.8 2.8933e-10 60130.7 1.70739e-10 167548)
(2.36567e+06 117376 3.02401e-10 23850.3 1.95954e-10 159059)
(3.39931e+06 -1.52129e+06 -5.34938e-10 980031 -9.10425e-10 311951)
(3.34053e+06 -965039 -2.09832e-10 644406 -5.08834e-10 273242)
(3.22199e+06 -599117 -3.81821e-12 524544 -2.63129e-10 256910)
(3.0861e+06 -348327 1.28481e-10 407643 -9.53294e-11 238458)
(2.95511e+06 -170152 2.18205e-10 342152 1.89293e-11 225909)
(2.8229e+06 -46051.6 2.74547e-10 285762 9.62899e-11 213714)
(2.70151e+06 43909.8 3.11856e-10 247041 1.49955e-10 203875)
(2.58603e+06 107233 3.33571e-10 210732 1.86237e-10 194268)
(2.48096e+06 153962 3.4692e-10 187735 2.10887e-10 186677)
(2.37812e+06 191985 3.54647e-10 148817 2.3182e-10 177003)
(3.95259e+06 -1.47005e+06 -4.29965e-10 835419 -8.12914e-10 321571)
(3.71273e+06 -890592 -1.11303e-10 639408 -4.27522e-10 292290)
(3.48773e+06 -510452 9.07122e-11 584911 -1.89022e-10 279334)
(3.27012e+06 -255112 2.15745e-10 510814 -3.01041e-11 262423)
(3.07835e+06 -79396.7 2.96172e-10 469143 7.46166e-11 249895)
(2.90145e+06 38559.6 3.42847e-10 426070 1.42586e-10 237107)
(2.7464e+06 120503 3.7063e-10 393094 1.87435e-10 226216)
(2.60602e+06 175763 3.83867e-10 357876 2.1615e-10 215389)
(2.48202e+06 213824 3.89096e-10 332714 2.3372e-10 206446)
(2.36572e+06 244813 3.90476e-10 291202 2.49166e-10 195661)
(4.46056e+06 -1.36823e+06 -3.07417e-10 685250 -6.87321e-10 328861)
(4.07806e+06 -764558 1.81035e-11 630598 -3.12256e-10 311231)
(3.73472e+06 -397023 1.98121e-10 650514 -1.00745e-10 301851)
(3.42996e+06 -153672 3.05149e-10 627382 3.69546e-11 287038)
(3.17412e+06 6733.56 3.67888e-10 610738 1.23225e-10 274339)
(2.95215e+06 109821 3.99448e-10 581311 1.75968e-10 260859)
(2.76458e+06 177953 4.14221e-10 552547 2.08445e-10 248691)
(2.60137e+06 221467 4.16949e-10 517216 2.27477e-10 236539)
(2.46084e+06 248708 4.12999e-10 487946 2.36972e-10 226080)
(2.3335e+06 270939 4.0729e-10 443491 2.46035e-10 214234)
(4.92913e+06 -1.15829e+06 -1.08166e-10 560508 -4.92248e-10 339136)
(4.41774e+06 -574584 1.84234e-10 642749 -1.59336e-10 332523)
(3.94256e+06 -251543 3.20614e-10 738048 2.8536e-12 325717)
(3.55122e+06 -43992.9 3.94889e-10 763915 1.03874e-10 312435)
(3.23331e+06 84295.8 4.2963e-10 767072 1.61364e-10 298748)
(2.97096e+06 162245 4.40212e-10 746661 1.93025e-10 284061)
(2.75567e+06 210389 4.38675e-10 717711 2.09965e-10 270197)
(2.57412e+06 238815 4.29355e-10 679241 2.17837e-10 256503)
(2.42106e+06 253882 4.15862e-10 643284 2.19e-10 244374)
(2.28562e+06 266481 4.02906e-10 594886 2.21468e-10 231472)
(5.41274e+06 -849261 1.49929e-10 509234 -2.41096e-10 361076)
(4.71974e+06 -335891 3.77456e-10 720174 1.50159e-11 361114)
(4.10786e+06 -80468 4.54865e-10 881511 1.13277e-10 355094)
(3.63261e+06 61947.7 4.77879e-10 935660 1.6086e-10 340364)
(3.2603e+06 142608 4.7555e-10 942782 1.81804e-10 323791)
(2.96555e+06 186824 4.60523e-10 918686 1.88854e-10 306524)
(2.72975e+06 211565 4.41287e-10 881011 1.89602e-10 290164)
(2.53575e+06 224088 4.20063e-10 834032 1.86895e-10 274514)
(2.37482e+06 227966 3.98192e-10 788281 1.81133e-10 260556)
(2.23461e+06 231884 3.79006e-10 734717 1.7806e-10 246621)
(5.78136e+06 -374176 3.9427e-10 441752 1.60256e-10 381353)
(4.92638e+06 -40276.3 5.96081e-10 903065 2.06677e-10 399462)
(4.17713e+06 85449.2 5.74521e-10 1.0886e+06 2.04775e-10 387868)
(3.63571e+06 133329 5.29572e-10 1.14213e+06 1.84346e-10 368399)
(3.23362e+06 156085 4.86261e-10 1.12319e+06 1.6752e-10 346122)
(2.92583e+06 164809 4.46671e-10 1.07782e+06 1.52476e-10 324928)
(2.68382e+06 168392 4.12793e-10 1.02099e+06 1.40938e-10 305464)
(2.48686e+06 168598 3.83056e-10 960449 1.31413e-10 287726)
(2.32427e+06 165547 3.56265e-10 903230 1.22262e-10 272095)
(2.18295e+06 164114 3.33426e-10 844355 1.16175e-10 257336)
(6.32185e+06 338241 6.27663e-10 704973 6.95634e-10 460359)
(5.00941e+06 389124 8.89394e-10 1.35746e+06 4.44787e-10 468848)
(4.16712e+06 239244 6.797e-10 1.42039e+06 2.67078e-10 432724)
(3.61272e+06 164150 5.53791e-10 1.38846e+06 1.7419e-10 399738)
(3.2077e+06 125674 4.69602e-10 1.29557e+06 1.25228e-10 366821)
(2.90186e+06 109523 4.13345e-10 1.20532e+06 9.91152e-11 339532)
(2.66118e+06 102005 3.71778e-10 1.11917e+06 8.37535e-11 316162)
(2.46522e+06 98744 3.39477e-10 1.04221e+06 7.39279e-11 296288)
(2.3028e+06 95507.7 3.12246e-10 974692 6.58633e-11 279323)
(2.16092e+06 93571 2.88907e-10 912672 5.97597e-11 264120)
(-8422.03 2919.81 -3.98284e-11 -4772.29 -1.69035e-11 1836.86)
(6895.29 -10643.3 -4.68655e-11 915.292 -2.61495e-11 3651.91)
(68215.3 -33312.4 -5.87365e-11 -3408.19 -4.13448e-11 9054.98)
(166195 -51439.7 -6.57369e-11 -6985.75 -5.34566e-11 18054.4)
(279998 -62604.6 -6.72589e-11 -8838.05 -6.08816e-11 28744.1)
(399384 -68954.1 -6.53009e-11 -9733.01 -6.50652e-11 40071.3)
(516321 -71431.4 -6.09014e-11 -9881.46 -6.66472e-11 51244.8)
(628036 -71601.2 -5.52297e-11 -9497.8 -6.66834e-11 61973.1)
(730455 -69687 -4.55587e-11 -9297.21 -6.23505e-11 70195.9)
(825917 -68215 -3.11139e-11 -7699.49 -5.34767e-11 75205.4)
(11229.8 -11482.2 -4.73943e-11 -640.481 -2.66868e-11 3943.55)
(90220.5 -61711.5 -6.98547e-11 37936.3 -6.12038e-11 14130.1)
(204866 -117076 -9.89357e-11 39573 -9.85458e-11 24890.1)
(326417 -159367 -1.21267e-10 27571.2 -1.26823e-10 35355.8)
(448627 -185351 -1.33129e-10 16086.9 -1.44091e-10 46025.6)
(564743 -199904 -1.37888e-10 5672.18 -1.53661e-10 56264.4)
(672449 -205122 -1.36808e-10 -2339.34 -1.5697e-10 65938.8)
(772105 -204773 -1.23368e-10 -8022.36 -1.48249e-10 70527.7)
(860003 -199113 -1.07615e-10 -12904.6 -1.36497e-10 74374.7)
(943361 -194601 -9.30639e-11 -13350.7 -1.26401e-10 78555.4)
(34657.2 -56137.6 -6.91182e-11 38238.6 -5.74857e-11 8865.98)
(172806 -153875 -1.18049e-10 81737.4 -1.24135e-10 24796.7)
(331023 -222411 -1.54343e-10 75712.7 -1.70213e-10 39065.3)
(476261 -268320 -1.80202e-10 46311.3 -2.00626e-10 50453.7)
(609940 -293588 -1.93221e-10 19146.1 -2.1714e-10 61033.9)
(727662 -305481 -1.91948e-10 -4492.48 -2.18982e-10 67330)
(831060 -306940 -1.7886e-10 -22389.4 -2.09111e-10 70158.7)
(923204 -302047 -1.63257e-10 -35322.8 -1.96572e-10 73159.9)
(1.00025e+06 -291358 -1.46084e-10 -45084.8 -1.81848e-10 75900.1)
(1.07483e+06 -282372 -1.3008e-10 -47910.3 -1.69263e-10 79395)
(83010.2 -126064 -9.85846e-11 127285 -1.06176e-10 19833.7)
(284469 -264262 -1.74536e-10 138362 -1.99568e-10 39110.2)
(478616 -336287 -2.13663e-10 114829 -2.47685e-10 55466.6)
(644339 -376674 -2.37536e-10 67086.1 -2.74045e-10 67456.7)
(787698 -393405 -2.36963e-10 25226.9 -2.75454e-10 72954)
(907060 -396538 -2.23283e-10 -11051.8 -2.63205e-10 74166.6)
(1.00675e+06 -389798 -2.05975e-10 -38937.1 -2.4707e-10 75626.6)
(1.09225e+06 -377307 -1.86862e-10 -59564.9 -2.29179e-10 77401.6)
(1.15917e+06 -359926 -1.67169e-10 -75146.6 -2.10215e-10 78972.4)
(1.22582e+06 -345235 -1.48863e-10 -81385.5 -1.94136e-10 81707.4)
(165497 -224823 -1.38827e-10 257664 -1.75009e-10 37034.6)
(434233 -384373 -2.34447e-10 200705 -2.81638e-10 57447.2)
(658332 -449071 -2.71847e-10 145362 -3.2425e-10 74298.7)
(838159 -476012 -2.79378e-10 74250.6 -3.31462e-10 80685.9)
(985534 -477820 -2.61635e-10 16994 -3.13531e-10 80590.6)
(1.10249e+06 -467310 -2.40239e-10 -31087.3 -2.91099e-10 80340.7)
(1.19578e+06 -448877 -2.16876e-10 -67489.7 -2.66791e-10 80538.1)
(1.27282e+06 -426286 -1.92908e-10 -94359.5 -2.42217e-10 81221.2)
(1.32874e+06 -400885 -1.69948e-10 -114396 -2.18367e-10 81775.4)
(1.38679e+06 -379287 -1.48655e-10 -123006 -1.98176e-10 83869.4)
(292856 -354456 -1.92057e-10 418924 -2.65181e-10 60689.6)
(626962 -506065 -2.92142e-10 270316 -3.64864e-10 80442.3)
(874820 -550494 -3.16971e-10 174383 -3.89199e-10 94492.4)
(1.06167e+06 -557143 -2.97998e-10 77560.4 -3.66533e-10 91156.7)
(1.20679e+06 -539999 -2.69321e-10 5655.3 -3.34567e-10 89312)
(1.31623e+06 -513439 -2.39383e-10 -52593.2 -3.00985e-10 87590.8)
(1.39932e+06 -481840 -2.09533e-10 -95824.4 -2.68047e-10 86575.8)
(1.4649e+06 -448273 -1.80539e-10 -127432 -2.3664e-10 86224.6)
(1.50793e+06 -414617 -1.54399e-10 -150950 -2.08023e-10 85797.8)
(1.55554e+06 -385762 -1.30136e-10 -161120 -1.83739e-10 87268.9)
(474124 -513789 -2.59622e-10 592845 -3.75587e-10 90285.8)
(861922 -624546 -3.45238e-10 342719 -4.45936e-10 107715)
(1.12429e+06 -634624 -3.32947e-10 202309 -4.26908e-10 109424)
(1.30968e+06 -614068 -2.98232e-10 78528.1 -3.83258e-10 102894)
(1.44561e+06 -574823 -2.5762e-10 -7057.16 -3.35877e-10 99122.7)
(1.54185e+06 -530909 -2.1908e-10 -73967.5 -2.90938e-10 95860.6)
(1.61054e+06 -485780 -1.83048e-10 -122234 -2.49695e-10 93661.3)
(1.66116e+06 -441410 -1.49582e-10 -157122 -2.12034e-10 92287.6)
(1.68938e+06 -400054 -1.20834e-10 -182800 -1.79332e-10 90947.3)
(1.72404e+06 -364174 -9.40763e-11 -193895 -1.51396e-10 91749.4)
(716788 -696233 -3.3964e-10 760276 -5.01451e-10 125125)
(1.13703e+06 -735120 -3.86244e-10 414372 -5.16851e-10 136227)
(1.40103e+06 -697525 -3.31817e-10 233134 -4.48614e-10 126400)
(1.57511e+06 -643686 -2.78905e-10 84700.9 -3.81064e-10 116569)
(1.6947e+06 -580159 -2.25934e-10 -12272.7 -3.17698e-10 110843)
(1.77222e+06 -518639 -1.79354e-10 -85938.7 -2.61925e-10 106014)
(1.82254e+06 -460645 -1.38061e-10 -137746 -2.13325e-10 102617)
(1.85501e+06 -406659 -1.01262e-10 -174526 -1.70627e-10 100225)
(1.86677e+06 -358926 -7.0949e-11 -202080 -1.34887e-10 97906.9)
(1.88598e+06 -316937 -4.25903e-11 -213329 -1.04203e-10 98002.2)
(1.02615e+06 -892566 -4.28096e-10 906111 -6.36286e-10 164623)
(1.44795e+06 -833795 -4.01218e-10 481844 -5.63555e-10 159175)
(1.69752e+06 -737491 -3.13516e-10 268829 -4.54053e-10 145325)
(1.84915e+06 -645761 -2.4096e-10 100541 -3.61059e-10 132325)
(1.94503e+06 -556676 -1.75762e-10 -4322.1 -2.81895e-10 124748)
(1.9984e+06 -478164 -1.22218e-10 -82629.1 -2.16399e-10 118347)
(2.0268e+06 -408552 -7.68722e-11 -136010 -1.61794e-10 113813)
(2.03782e+06 -346934 -3.84197e-11 -174239 -1.15702e-10 110266)
(2.03241e+06 -294425 -7.58945e-12 -202346 -7.81959e-11 107084)
(2.033e+06 -247476 2.11046e-11 -216835 -4.54352e-11 105896)
(1.39951e+06 -1.08629e+06 -5.1763e-10 1.00908e+06 -7.68594e-10 207007)
(1.78938e+06 -916203 -4.02206e-10 537401 -5.95542e-10 182331)
(2.00634e+06 -754792 -2.79258e-10 309461 -4.44041e-10 165832)
(2.12293e+06 -622578 -1.86941e-10 129797 -3.2594e-10 150172)
(2.1874e+06 -507781 -1.1034e-10 22034.9 -2.32107e-10 141010)
(2.21129e+06 -413370 -5.11577e-11 -57865.6 -1.58417e-10 133151)
(2.21422e+06 -333834 -3.25632e-12 -111285 -9.94052e-11 127478)
(2.20165e+06 -266786 3.52618e-11 -148657 -5.18209e-11 122939)
(2.17902e+06 -212386 6.47529e-11 -179078 -1.42559e-11 118620)
(2.15827e+06 -165192 9.0712e-11 -189844 1.64267e-11 116851)
(911273 -63281.1 -1.6004e-11 -7694.5 -4.2986e-11 79550.8)
(986383 -56457.9 -1.11048e-12 -5981.52 -3.23125e-11 83632.2)
(1.05522e+06 -50529.8 1.23249e-11 -4761.73 -2.27048e-11 87322.6)
(1.11703e+06 -45148.7 2.44189e-11 -3858.11 -1.40169e-11 90612.3)
(1.17283e+06 -40160.3 3.54189e-11 -2965.75 -6.09735e-12 93593.3)
(1.22275e+06 -35694.4 4.52585e-11 -2313.81 1.00784e-12 96242)
(1.26752e+06 -31599.5 5.41394e-11 -1690.11 7.4344e-12 98623.5)
(1.3074e+06 -27906.8 6.20741e-11 -1210.08 1.31968e-11 100735)
(1.34287e+06 -24521.7 6.91964e-11 -785.27 1.83902e-11 102615)
(1.37421e+06 -21421.2 7.55535e-11 -453.96 2.30551e-11 104272)
(1.40173e+06 -18537.2 8.1236e-11 -184.028 2.72612e-11 105726)
(1.42562e+06 -15828.6 8.62952e-11 13.2708 3.10525e-11 106987)
(1.44606e+06 -13241.9 9.07883e-11 147.175 3.44774e-11 108064)
(1.46315e+06 -10739 9.47548e-11 215.773 3.75713e-11 108965)
(1.47693e+06 -8287.98 9.82202e-11 217.047 4.03585e-11 109690)
(1.48749e+06 -5885.44 1.01198e-10 161.245 4.28473e-11 110246)
(1.49478e+06 -3565.89 1.03663e-10 46.4017 4.50119e-11 110629)
(1.49914e+06 -1461.1 1.05579e-10 -41.2572 4.67818e-11 110866)
(1.50055e+06 151.641 1.06779e-10 -32.4966 4.79664e-11 110960)
(1.50041e+06 531.439 1.07022e-10 776.344 4.81117e-11 111064)
(1.01046e+06 -181195 -7.5411e-11 -17220.9 -1.11408e-10 81602.8)
(1.06582e+06 -163074 -5.63481e-11 -16784.9 -9.47932e-11 84689.5)
(1.11919e+06 -147119 -3.8875e-11 -15361.5 -7.98929e-11 87773.9)
(1.16681e+06 -132234 -2.28989e-11 -14636.1 -6.61051e-11 90465)
(1.21096e+06 -118288 -7.97489e-12 -13276.8 -5.33059e-11 93051.2)
(1.25067e+06 -105689 5.47171e-12 -12383.2 -4.17186e-11 95335.2)
(1.28695e+06 -94027.2 1.78589e-11 -11304.8 -3.10638e-11 97457.8)
(1.31954e+06 -83438.2 2.90513e-11 -10489.2 -2.13995e-11 99346.5)
(1.34897e+06 -73669.4 3.92891e-11 -9702.11 -1.25414e-11 101062)
(1.37526e+06 -64682.8 4.85922e-11 -9094.55 -4.44516e-12 102585)
(1.3987e+06 -56305.6 5.71125e-11 -8587.18 3.01834e-12 103944)
(1.4194e+06 -48441.6 6.4921e-11 -8217.59 9.92576e-12 105140)
(1.4375e+06 -40960.2 7.21248e-11 -7948.51 1.6373e-11 106189)
(1.45314e+06 -33772.1 7.87934e-11 -7758.7 2.24257e-11 107098)
(1.46637e+06 -26806.5 8.49858e-11 -7593.78 2.81317e-11 107882)
(1.47735e+06 -20060.5 9.07255e-11 -7341.48 3.34904e-11 108560)
(1.48605e+06 -13615 9.59665e-11 -6853.86 3.84311e-11 109151)
(1.49275e+06 -7750.35 1.00585e-10 -5752.52 4.27465e-11 109713)
(1.49716e+06 -2891.16 1.04294e-10 -3543.16 4.60755e-11 110291)
(1.49999e+06 -310.745 1.06451e-10 1064.06 4.74866e-11 111069)
(1.1256e+06 -262277 -1.10629e-10 -53029.4 -1.51088e-10 81557.3)
(1.1609e+06 -237579 -9.02913e-11 -51744.1 -1.31923e-10 83843.5)
(1.19889e+06 -215430 -7.10405e-11 -47078 -1.14608e-10 86667.8)
(1.23174e+06 -194867 -5.35534e-11 -44027.6 -9.85899e-11 89001.9)
(1.26383e+06 -175282 -3.67345e-11 -39676.1 -8.34325e-11 91453.6)
(1.29265e+06 -157507 -2.15334e-11 -36328.5 -6.96314e-11 93585.3)
(1.31984e+06 -140878 -7.26757e-12 -32788.2 -5.67495e-11 95643.6)
(1.34449e+06 -125689 5.72723e-12 -29879.2 -4.49597e-11 97472.6)
(1.36726e+06 -111588 1.77737e-11 -27208 -3.40213e-11 99161.2)
(1.3879e+06 -98572.5 2.88301e-11 -25025.5 -2.39237e-11 100664)
(1.40669e+06 -86426.2 3.90737e-11 -23203.7 -1.45163e-11 102014)
(1.4236e+06 -75044.8 4.85645e-11 -21791.7 -5.72543e-12 103207)
(1.43877e+06 -64271.5 5.74207e-11 -20717.4 2.55527e-12 104259)
(1.45228e+06 -53997.8 6.57223e-11 -19922.9 1.03969e-11 105185)
(1.46417e+06 -44127.5 7.3542e-11 -19284.2 1.7854e-11 106004)
(1.47457e+06 -34624.1 8.0925e-11 -18573.7 2.49333e-11 106753)
(1.4834e+06 -25510.1 8.78591e-11 -17462.6 3.15758e-11 107469)
(1.49084e+06 -16929.8 9.4302e-11 -15288.4 3.76245e-11 108246)
(1.49624e+06 -9147.54 1.00029e-10 -11109.7 4.27402e-11 109171)
(1.5002e+06 -2515.1 1.04966e-10 -3295.2 4.65531e-11 110481)
(1.26031e+06 -319511 -1.28282e-10 -88272.9 -1.73414e-10 82904.2)
(1.27423e+06 -291214 -1.0875e-10 -87465.1 -1.53627e-10 84108.4)
(1.29628e+06 -265126 -8.92235e-11 -80315.8 -1.35348e-10 86513.6)
(1.31317e+06 -241332 -7.19421e-11 -75994.8 -1.18691e-10 88260.3)
(1.33226e+06 -218175 -5.46625e-11 -69223.2 -1.02556e-10 90426.5)
(1.34905e+06 -197159 -3.90855e-11 -63937.9 -8.78567e-11 92253.7)
(1.36611e+06 -177253 -2.41447e-11 -58236.7 -7.39175e-11 94132.7)
(1.38177e+06 -158984 -1.04462e-11 -53432.5 -6.10738e-11 95801.8)
(1.39692e+06 -141908 2.42813e-12 -48963.6 -4.9024e-11 97384.4)
(1.41097e+06 -126087 1.43464e-11 -45211.4 -3.78125e-11 98801.2)
(1.42421e+06 -111285 2.55003e-11 -42009.4 -2.72795e-11 100092)
(1.43649e+06 -97410 3.59218e-11 -39431.2 -1.73685e-11 101239)
(1.44789e+06 -84294.1 4.57307e-11 -37382.2 -7.97229e-12 102263)
(1.45839e+06 -71816.2 5.50028e-11 -35784.1 9.79004e-13 103174)
(1.46801e+06 -59854.6 6.38196e-11 -34470.2 9.54664e-12 103997)
(1.47678e+06 -48317.7 7.22534e-11 -33155.2 1.77616e-11 104771)
(1.48451e+06 -37146 8.03288e-11 -31438.1 2.56011e-11 105541)
(1.49134e+06 -26266.7 8.81347e-11 -28570.7 3.30374e-11 106410)
(1.49634e+06 -15773.3 9.55132e-11 -23582.1 3.98169e-11 107459)
(1.5003e+06 -4908.28 1.03107e-10 -14731.9 4.6306e-11 108963)
(1.40495e+06 -349176 -1.27672e-10 -130235 -1.75899e-10 84265.8)
(1.39661e+06 -320754 -1.11227e-10 -130067 -1.57841e-10 84274.1)
(1.40301e+06 -293047 -9.27916e-11 -119525 -1.4021e-10 86359.9)
(1.40359e+06 -268649 -7.73896e-11 -113746 -1.24707e-10 87487.9)
(1.40964e+06 -244141 -6.10161e-11 -104074 -1.09119e-10 89397.6)
(1.41407e+06 -221994 -4.64033e-11 -96432.1 -9.49934e-11 90928.7)
(1.42071e+06 -200697 -3.19819e-11 -88114.1 -8.13203e-11 92646.3)
(1.42698e+06 -181045 -1.86713e-11 -80939.4 -6.86331e-11 94173.2)
(1.43406e+06 -162526 -5.96456e-12 -74221.1 -5.65736e-11 95665.1)
(1.44104e+06 -145274 5.91003e-12 -68462.7 -4.52483e-11 97009.1)
(1.44822e+06 -129068 1.71371e-11 -63491.9 -3.45068e-11 98245.6)
(1.45528e+06 -113837 2.77142e-11 -59408.4 -2.43157e-11 99347.2)
(1.46227e+06 -99421.5 3.77488e-11 -56114.1 -1.45786e-11 100331)
(1.46909e+06 -85689.6 4.73108e-11 -53526.9 -5.22574e-12 101204)
(1.47567e+06 -72493.3 5.64899e-11 -51465.6 3.81403e-12 101989)
(1.48199e+06 -59668.7 6.53931e-11 -49629.8 1.2612e-11 102727)
(1.48778e+06 -47068.2 7.40906e-11 -47610.9 2.11965e-11 103459)
(1.49312e+06 -34378.3 8.28108e-11 -44684.3 2.96967e-11 104288)
(1.49703e+06 -21588.7 9.1449e-11 -39985.9 3.79349e-11 105276)
(1.50032e+06 -7012.94 1.01225e-10 -31875.8 4.69063e-11 106704)
(1.55699e+06 -352806 -1.09747e-10 -168270 -1.61006e-10 86879.5)
(1.52545e+06 -327922 -9.885e-11 -170473 -1.46976e-10 85367)
(1.51653e+06 -300815 -8.28498e-11 -156988 -1.31382e-10 87060.2)
(1.50047e+06 -278215 -7.08903e-11 -150556 -1.18552e-10 87413.7)
(1.49345e+06 -254350 -5.6683e-11 -138631 -1.04757e-10 88953.4)
(1.48534e+06 -232869 -4.41895e-11 -129094 -9.23538e-11 90093.4)
(1.48133e+06 -211830 -3.13582e-11 -118609 -8.00048e-11 91556)
(1.47795e+06 -192254 -1.93868e-11 -109337 -6.84291e-11 92871.3)
(1.47661e+06 -173637 -7.73869e-12 -100573 -5.72553e-11 94209.1)
(1.47614e+06 -156155 3.2918e-12 -92889.8 -4.66326e-11 95433.9)
(1.47681e+06 -139637 1.38532e-11 -86159.4 -3.64401e-11 96577.7)
(1.47819e+06 -124029 2.39143e-11 -80516.7 -2.66627e-11 97603)
(1.48025e+06 -109199 3.35555e-11 -75900.2 -1.72218e-11 98517.8)
(1.48282e+06 -95009.1 4.28373e-11 -72257.8 -8.04833e-12 99322.2)
(1.48578e+06 -81298.6 5.18494e-11 -69441.4 9.36802e-13 100032)
(1.48903e+06 -67840.8 6.07264e-11 -67199.5 9.84636e-12 100677)
(1.49229e+06 -54419.6 6.95742e-11 -65187.5 1.87594e-11 101293)
(1.49557e+06 -40515.6 7.87354e-11 -62813.8 2.79504e-11 101964)
(1.49801e+06 -26059.5 8.81563e-11 -59408.2 3.73161e-11 102734)
(1.50025e+06 -8652.01 9.94604e-11 -53605.6 4.8338e-11 103849)
(1.70923e+06 -330392 -7.544e-11 -200150 -1.29598e-10 90674.2)
(1.65458e+06 -313008 -7.26047e-11 -206765 -1.2197e-10 87323.5)
(1.63145e+06 -288815 -6.03566e-11 -191476 -1.09715e-10 88498.2)
(1.59923e+06 -270294 -5.32092e-11 -185118 -1.00941e-10 87975)
(1.57958e+06 -249205 -4.24609e-11 -171854 -9.02065e-11 89016.9)
(1.55934e+06 -230104 -3.30993e-11 -160692 -8.05913e-11 89727.2)
(1.54482e+06 -210937 -2.28493e-11 -148344 -7.05862e-11 90879.1)
(1.53196e+06 -192762 -1.30166e-11 -137041 -6.09759e-11 91963.9)
(1.52218e+06 -175242 -3.17268e-12 -126295 -5.14721e-11 93121.5)
(1.51421e+06 -158571 6.36183e-12 -116699 -4.22422e-11 94208.2)
(1.50821e+06 -142683 1.56502e-11 -108229 -3.32325e-11 95235.6)
(1.5037e+06 -127553 2.46353e-11 -101048 -2.44482e-11 96158.9)
(1.50055e+06 -113092 3.33555e-11 -95148.7 -1.58418e-11 96974.6)
(1.49854e+06 -99171.6 4.18572e-11 -90520.3 -7.34901e-12 97674)
(1.49751e+06 -85628.4 5.02224e-11 -87070.7 1.11352e-12 98263.3)
(1.49728e+06 -72191.5 5.86024e-11 -84633.6 9.69243e-12 98760.2)
(1.49763e+06 -58598.3 6.71344e-11 -82964.9 1.85121e-11 99188)
(1.49844e+06 -44178.5 7.62311e-11 -81675.8 2.79617e-11 99601.5)
(1.49921e+06 -28835.8 8.58953e-11 -80314.8 3.80084e-11 100035)
(1.50012e+06 -9704.54 9.79629e-11 -77965.7 5.04575e-11 100658)
(1.85554e+06 -283590 -2.64444e-11 -219994 -8.39698e-11 96084.5)
(1.77936e+06 -277569 -3.39119e-11 -233048 -8.49291e-11 90656.2)
(1.74335e+06 -258794 -2.6872e-11 -218710 -7.72347e-11 90985.5)
(1.69649e+06 -245885 -2.52921e-11 -212984 -7.3337e-11 89567.3)
(1.66474e+06 -229475 -1.91717e-11 -200252 -6.66586e-11 89866.9)
(1.63338e+06 -214090 -1.36675e-11 -188587 -6.05004e-11 90032.7)
(1.60868e+06 -198274 -6.9101e-12 -175622 -5.36435e-11 90707.8)
(1.58676e+06 -182790 1.58325e-14 -163143 -4.67149e-11 91453.8)
(1.5687e+06 -167579 7.30585e-12 -151032 -3.95967e-11 92341.6)
(1.55335e+06 -152792 1.46841e-11 -139875 -3.24181e-11 93234.9)
(1.5407e+06 -138478 2.21104e-11 -129821 -2.51968e-11 94112.7)
(1.53025e+06 -124654 2.94996e-11 -121118 -1.79551e-11 94918.1)
(1.5218e+06 -111292 3.68351e-11 -113871 -1.06804e-11 95628.1)
(1.51508e+06 -98295.9 4.41363e-11 -108167 -3.32196e-12 96218.5)
(1.50989e+06 -85524.5 5.14601e-11 -104014 4.19688e-12 96680.4)
(1.50601e+06 -72698 5.89525e-11 -101380 1.20397e-11 97011)
(1.50328e+06 -59538.6 6.6765e-11 -100163 2.03643e-11 97219.6)
(1.50145e+06 -45292.6 7.53354e-11 -100231 2.96328e-11 97321.8)
(1.50047e+06 -29861.2 8.47237e-11 -101359 3.98792e-11 97345.2)
(1.49993e+06 -10143.3 9.68073e-11 -103212 5.30804e-11 97357.4)
(1.991e+06 -216921 3.38723e-11 -223920 -2.79782e-11 103305)
(1.89553e+06 -224351 1.50934e-11 -244378 -3.8602e-11 95756.2)
(1.84761e+06 -214864 1.44433e-11 -237454 -3.71943e-11 94392.1)
(1.78896e+06 -208668 1.0144e-11 -233303 -3.8549e-11 92083.2)
(1.74562e+06 -198897 1.04453e-11 -222556 -3.70104e-11 91449.9)
(1.70467e+06 -188148 1.17292e-11 -210677 -3.4753e-11 91097.5)
(1.67058e+06 -176447 1.46215e-11 -197356 -3.14529e-11 91289.9)
(1.64048e+06 -164234 1.83948e-11 -184000 -2.74809e-11 91693.8)
(1.61476e+06 -151848 2.28853e-11 -170911 -2.2992e-11 92285)
(1.59251e+06 -139473 2.78304e-11 -158664 -1.81189e-11 92940.2)
(1.57351e+06 -127268 3.30916e-11 -147519 -1.2955e-11 93612.4)
(1.5573e+06 -115301 3.85517e-11 -137776 -7.5491e-12 94238.6)
(1.54363e+06 -103593 4.41556e-11 -129617 -1.91578e-12 94782)
(1.53219e+06 -92081.9 4.98924e-11 -123215 3.97982e-12 95205.5)
(1.52278e+06 -80651.7 5.58029e-11 -118680 1.02107e-11 95486.5)
(1.51513e+06 -69035.5 6.20096e-11 -116130 1.69442e-11 95600.7)
(1.50921e+06 -56960.1 6.86767e-11 -115615 2.4364e-11 95542.9)
(1.50463e+06 -43654.9 7.62207e-11 -117293 3.29641e-11 95284.2)
(1.50185e+06 -29017.9 8.4769e-11 -121170 4.28521e-11 94848.5)
(1.49975e+06 -9931.32 9.60845e-11 -127593 5.60332e-11 94178.7)
(2.10378e+06 -131313 1.03128e-10 -216073 3.72443e-11 111191)
(2.00678e+06 -147721 7.87029e-11 -232545 2.00945e-11 103957)
(1.94542e+06 -151512 6.744e-11 -239866 1.32404e-11 99876.8)
(1.88013e+06 -152994 5.72592e-11 -241148 6.87891e-12 96419.2)
(1.82529e+06 -152163 5.01754e-11 -236880 2.28683e-12 94239.9)
(1.77529e+06 -148647 4.55789e-11 -228582 -5.86568e-13 92866)
(1.73171e+06 -143260 4.31455e-11 -217333 -2.02356e-12 92223.7)
(1.69326e+06 -136315 4.24537e-11 -204605 -2.16714e-12 92052.7)
(1.6598e+06 -128291 4.31577e-11 -191209 -1.25274e-12 92234.2)
(1.63064e+06 -119549 4.49069e-11 -178025 5.25121e-13 92613.6)
(1.6054e+06 -110378 4.74506e-11 -165596 3.00695e-12 93097.4)
(1.5836e+06 -100984 5.05743e-11 -154432 6.07333e-12 93591.8)
(1.56489e+06 -91490 5.41411e-11 -144891 9.65627e-12 94031.3)
(1.5489e+06 -81925.9 5.80698e-11 -137303 1.37424e-11 94353.9)
(1.53542e+06 -72244.6 6.23498e-11 -131924 1.83747e-11 94516.2)
(1.52412e+06 -62238.2 6.70531e-11 -129051 2.36969e-11 94465.9)
(1.51506e+06 -51675.6 7.23261e-11 -128916 2.98948e-11 94180.1)
(1.50772e+06 -39843.7 7.85198e-11 -131989 3.74494e-11 93580.9)
(1.50313e+06 -26651.3 8.58266e-11 -138525 4.65376e-11 92687.9)
(1.49948e+06 -9167.71 9.57743e-11 -149567 5.90645e-11 91316.8)
(2.16782e+06 -60644.1 1.56782e-10 -192295 8.66163e-11 118496)
(2.07846e+06 -69367.6 1.38174e-10 -209462 7.52728e-11 111663)
(2.00823e+06 -85583.7 1.17638e-10 -226221 6.05504e-11 105735)
(1.94083e+06 -93225.4 1.0314e-10 -233421 5.06258e-11 101314)
(1.88121e+06 -98594.8 9.13888e-11 -233568 4.20437e-11 98232.7)
(1.82662e+06 -100981 8.23526e-11 -229115 3.53253e-11 96044.4)
(1.7781e+06 -101018 7.57633e-11 -220765 3.02228e-11 94700.7)
(1.7346e+06 -99116.6 7.11579e-11 -210211 2.65697e-11 93922.4)
(1.69614e+06 -95649.6 6.82808e-11 -198315 2.42233e-11 93593.6)
(1.66212e+06 -91007.6 6.67693e-11 -186085 2.29898e-11 93546.9)
(1.63224e+06 -85493.1 6.63727e-11 -174188 2.27232e-11 93677)
(1.60606e+06 -79360.8 6.68487e-11 -163257 2.32904e-11 93875.5)
(1.58328e+06 -72785 6.80296e-11 -153775 2.46063e-11 94061.7)
(1.56352e+06 -65857.1 6.97916e-11 -146201 2.66328e-11 94156.4)
(1.54661e+06 -58590.5 7.20882e-11 -140925 2.93912e-11 94099.6)
(1.5322e+06 -50859.9 7.49304e-11 -138407 3.29876e-11 93815.3)
(1.52048e+06 -42501.4 7.84339e-11 -139052 3.75931e-11 93263)
(1.51078e+06 -32961.1 8.28237e-11 -143593 4.36036e-11 92321.9)
(1.50456e+06 -22175.5 8.83284e-11 -152526 5.12415e-11 91001.4)
(1.49942e+06 -7654.27 9.60934e-11 -167538 6.21445e-11 88997)
(2.13511e+06 8817.24 1.96121e-10 -165716 1.26669e-10 121304)
(2.06493e+06 -1261.71 1.78743e-10 -201699 1.18237e-10 112964)
(2.00038e+06 -21098.3 1.56745e-10 -219062 1.01674e-10 107190)
(1.93914e+06 -34085.1 1.39715e-10 -228825 8.90352e-11 102668)
(1.88392e+06 -44306 1.25519e-10 -230727 7.78231e-11 99509.6)
(1.83261e+06 -51540.5 1.13887e-10 -227889 6.83666e-11 97206.8)
(1.78628e+06 -56206.2 1.04686e-10 -221017 6.05611e-11 95714.4)
(1.74403e+06 -58724 9.74739e-11 -211761 5.42438e-11 94767)
(1.70605e+06 -59427.9 9.20422e-11 -200969 4.93098e-11 94259.4)
(1.6719e+06 -58688.6 8.80622e-11 -189649 4.55918e-11 94032.2)
(1.64144e+06 -56798.6 8.53118e-11 -178488 4.29657e-11 93985.9)
(1.61434e+06 -54018.2 8.356e-11 -168154 4.13088e-11 94013.1)
(1.59042e+06 -50536.9 8.26455e-11 -159173 4.05414e-11 94033.3)
(1.56939e+06 -46480.8 8.24319e-11 -152064 4.0616e-11 93962.8)
(1.55116e+06 -41899.5 8.28603e-11 -147284 4.15454e-11 93737.1)
(1.53544e+06 -36753.3 8.38946e-11 -145390 4.33948e-11 93269.2)
(1.52252e+06 -30927.9 8.56301e-11 -146882 4.63233e-11 92510.8)
(1.51174e+06 -24077 8.81588e-11 -152648 5.06069e-11 91318)
(1.50486e+06 -16208.1 9.17015e-11 -163376 5.64695e-11 89689.6)
(1.49915e+06 -5583.69 9.68823e-11 -181000 6.50522e-11 87261.3)
(2.1104e+06 78489.8 2.36888e-10 -134237 1.66971e-10 125152)
(2.04574e+06 62560.7 2.16466e-10 -176057 1.55818e-10 116246)
(1.99107e+06 39139.2 1.93496e-10 -197608 1.38207e-10 110371)
(1.93463e+06 21839.6 1.7432e-10 -211888 1.2365e-10 105441)
(1.88382e+06 7525.23 1.58078e-10 -217618 1.1055e-10 101947)
(1.8352e+06 -3859.36 1.44136e-10 -218218 9.89767e-11 99272.4)
(1.79083e+06 -12548.6 1.32621e-10 -214232 8.90129e-11 97445.6)
(1.7497e+06 -18997.2 1.23048e-10 -207407 8.0475e-11 96182.2)
(1.71231e+06 -23468.1 1.15297e-10 -198588 7.33298e-11 95393.8)
(1.67827e+06 -26312.6 1.09057e-10 -188850 6.74361e-11 94915.6)
(1.64758e+06 -27798.9 1.0414e-10 -178929 6.27036e-11 94648.6)
(1.62e+06 -28184.4 1.00325e-10 -169563 5.90256e-11 94480.3)
(1.5954e+06 -27667.6 9.74513e-11 -161350 5.63309e-11 94324.7)
(1.57359e+06 -26404.7 9.53733e-11 -154882 5.4567e-11 94091.6)
(1.5545e+06 -24486.3 9.40091e-11 -150704 5.37332e-11 93706.7)
(1.53792e+06 -21955 9.32801e-11 -149445 5.38559e-11 93076.3)
(1.52419e+06 -18755.7 9.32463e-11 -151747 5.50744e-11 92134.6)
(1.51268e+06 -14799.6 9.38453e-11 -158493 5.74968e-11 90736.7)
(1.50539e+06 -10046.5 9.5354e-11 -170465 6.14089e-11 88881)
(1.4991e+06 -3470.21 9.78772e-11 -190065 6.74962e-11 86109.1)
(2.06678e+06 132503 2.65107e-10 -107797 1.95906e-10 127176)
(2.01077e+06 116203 2.45514e-10 -154367 1.85791e-10 118080)
(1.9653e+06 91673 2.23069e-10 -178542 1.68533e-10 112308)
(1.91517e+06 72325.3 2.03411e-10 -195812 1.53502e-10 107276)
(1.86998e+06 55326.6 1.8621e-10 -204177 1.3941e-10 103682)
(1.82552e+06 40970.3 1.7093e-10 -207226 1.2651e-10 100855)
(1.78451e+06 29114.1 1.57852e-10 -205443 1.14993e-10 98865)
(1.74588e+06 19439 1.46565e-10 -200585 1.04763e-10 97425)
(1.71036e+06 11748.5 1.37023e-10 -193484 9.58467e-11 96460.6)
(1.67761e+06 5754 1.28965e-10 -185224 8.81531e-11 95810.4)
(1.6478e+06 1224.35 1.22241e-10 -176554 8.16279e-11 95380.8)
(1.62072e+06 -2077.44 1.16655e-10 -168241 7.61881e-11 95059.8)