/*--------------------------------*- C++ -*----------------------------------*\
  =========                 |
  \\      /  F ield         | OpenFOAM: The Open Source CFD Toolbox
   \\    /   O peration     | Website:  https://openfoam.org
    \\  /    A nd           | Version:  9
     \\/     M anipulation  |
\*---------------------------------------------------------------------------*/
FoamFile
{
    format      ascii;
    class       volVectorField;
    location    "1";
    object      D;
}
// * * * * * * * * * * * * * * * * * * * * * * * * * * * * * * * * * * * * * //

dimensions      [0 1 0 0 0 0 0];

internalField   nonuniform List<vector> 
1000
(
(1.19579e-06 1.7347e-07 0)
(1.09202e-06 2.48281e-07 0)
(1.01677e-06 3.08052e-07 0)
(9.60577e-07 3.5823e-07 0)
(9.17572e-07 4.01916e-07 0)
(8.83994e-07 4.41007e-07 0)
(8.57293e-07 4.76727e-07 0)
(8.35679e-07 5.09917e-07 0)
(8.17859e-07 5.41194e-07 0)
(8.02844e-07 5.70965e-07 0)
(1.07301e-06 1.29331e-07 0)
(9.69745e-07 1.94836e-07 0)
(8.95549e-07 2.47733e-07 0)
(8.40579e-07 2.92553e-07 0)
(7.98737e-07 3.31762e-07 0)
(7.6617e-07 3.66945e-07 0)
(7.40281e-07 3.99119e-07 0)
(7.1926e-07 4.29e-07 0)
(7.01791e-07 4.57102e-07 0)
(6.86863e-07 4.83876e-07 0)
(9.48193e-07 8.7478e-08 0)
(8.48589e-07 1.42679e-07 0)
(7.77351e-07 1.88365e-07 0)
(7.24879e-07 2.27767e-07 0)
(6.85121e-07 2.62554e-07 0)
(6.54267e-07 2.93924e-07 0)
(6.29746e-07 3.22653e-07 0)
(6.0978e-07 3.49312e-07 0)
(5.93089e-07 3.74308e-07 0)
(5.78678e-07 3.98061e-07 0)
(8.21845e-07 4.94419e-08 0)
(7.29252e-07 9.38039e-08 0)
(6.63029e-07 1.32137e-07 0)
(6.14412e-07 1.66153e-07 0)
(5.77694e-07 1.96614e-07 0)
(5.49263e-07 2.24285e-07 0)
(5.26669e-07 2.49678e-07 0)
(5.08226e-07 2.73214e-07 0)
(4.92734e-07 2.95192e-07 0)
(4.7923e-07 3.15981e-07 0)
(6.94388e-07 1.68259e-08 0)
(6.12173e-07 5.03703e-08 0)
(5.53082e-07 8.14091e-08 0)
(5.0969e-07 1.10127e-07 0)
(4.76952e-07 1.36353e-07 0)
(4.51617e-07 1.60407e-07 0)
(4.3146e-07 1.82539e-07 0)
(4.14952e-07 2.03015e-07 0)
(4.01012e-07 2.22036e-07 0)
(3.88742e-07 2.39905e-07 0)
(5.66208e-07 -8.72489e-09 0)
(4.975e-07 1.46336e-08 0)
(4.47546e-07 3.86244e-08 0)
(4.10663e-07 6.21435e-08 0)
(3.82761e-07 8.41611e-08 0)
(3.61121e-07 1.04593e-07 0)
(3.43846e-07 1.23445e-07 0)
(3.29624e-07 1.40844e-07 0)
(3.17533e-07 1.56904e-07 0)
(3.06777e-07 1.71857e-07 0)
(4.37786e-07 -2.55382e-08 0)
(3.85147e-07 -1.11542e-08 0)
(3.46005e-07 6.16883e-09 0)
(3.16705e-07 2.45371e-08 0)
(2.94355e-07 4.22492e-08 0)
(2.76908e-07 5.89125e-08 0)
(2.62884e-07 7.43335e-08 0)
(2.51247e-07 8.85253e-08 0)
(2.41265e-07 1.01529e-07 0)
(2.32285e-07 1.13512e-07 0)
(3.09751e-07 -3.19552e-08 0)
(2.7456e-07 -2.48817e-08 0)
(2.47229e-07 -1.37497e-08 0)
(2.2624e-07 -5.68356e-10 0)
(2.09981e-07 1.25939e-08 0)
(1.97139e-07 2.51751e-08 0)
(1.86703e-07 3.68577e-08 0)
(1.77946e-07 4.75777e-08 0)
(1.70353e-07 5.73252e-08 0)
(1.63444e-07 6.62104e-08 0)
(1.83198e-07 -2.63307e-08 0)
(1.65257e-07 -2.5039e-08 0)
(1.49924e-07 -1.96244e-08 0)
(1.37585e-07 -1.17795e-08 0)
(1.27759e-07 -3.55413e-09 0)
(1.19837e-07 4.47237e-09 0)
(1.13281e-07 1.19591e-08 0)
(1.07691e-07 1.88109e-08 0)
(1.02776e-07 2.49917e-08 0)
(9.82524e-08 3.05654e-08 0)
(5.93667e-08 -7.53829e-09 0)
(5.49837e-08 -9.5389e-09 0)
(5.06708e-08 -8.78935e-09 0)
(4.68498e-08 -6.38661e-09 0)
(4.36394e-08 -3.63531e-09 0)
(4.09661e-08 -8.61291e-10 0)
(3.86949e-08 1.74756e-09 0)
(3.67195e-08 4.13628e-09 0)
(3.49563e-08 6.27979e-09 0)
(3.33121e-08 8.19784e-09 0)
(2.17316e-06 5.03014e-07 0)
(2.14241e-06 5.98047e-07 0)
(2.11258e-06 6.87566e-07 0)
(2.08557e-06 7.69694e-07 0)
(2.06238e-06 8.44612e-07 0)
(2.04348e-06 9.13211e-07 0)
(2.02892e-06 9.76566e-07 0)
(2.01852e-06 1.03571e-06 0)
(2.01202e-06 1.09153e-06 0)
(2.00901e-06 1.14483e-06 0)
(2.09712e-06 4.90793e-07 0)
(2.05987e-06 5.85606e-07 0)
(2.0259e-06 6.74308e-07 0)
(1.99646e-06 7.5547e-07 0)
(1.97191e-06 8.29401e-07 0)
(1.95217e-06 8.97012e-07 0)
(1.93694e-06 9.59382e-07 0)
(1.9258e-06 1.01754e-06 0)
(1.91836e-06 1.07236e-06 0)
(1.91413e-06 1.12468e-06 0)
(2.01914e-06 4.72258e-07 0)
(1.9741e-06 5.67831e-07 0)
(1.93442e-06 6.55758e-07 0)
(1.90095e-06 7.35483e-07 0)
(1.87362e-06 8.07797e-07 0)
(1.85185e-06 8.73795e-07 0)
(1.835e-06 9.3462e-07 0)
(1.82241e-06 9.91303e-07 0)
(1.81353e-06 1.04472e-06 0)
(1.80773e-06 1.0957e-06 0)
(1.93656e-06 4.4799e-07 0)
(1.88286e-06 5.44727e-07 0)
(1.8368e-06 6.31709e-07 0)
(1.79873e-06 7.09534e-07 0)
(1.76804e-06 7.79665e-07 0)
(1.74371e-06 8.43476e-07 0)
(1.72479e-06 9.02215e-07 0)
(1.71038e-06 9.56936e-07 0)
(1.69978e-06 1.0085e-06 0)
(1.69222e-06 1.05774e-06 0)
(1.84806e-06 4.18606e-07 0)
(1.78509e-06 5.16289e-07 0)
(1.73256e-06 6.0189e-07 0)
(1.68992e-06 6.77298e-07 0)
(1.65587e-06 7.4471e-07 0)
(1.62894e-06 8.05811e-07 0)
(1.60787e-06 8.6197e-07 0)
(1.59157e-06 9.14269e-07 0)
(1.57919e-06 9.63566e-07 0)
(1.56986e-06 1.01066e-06 0)
(1.75315e-06 3.84754e-07 0)
(1.6807e-06 4.82537e-07 0)
(1.62202e-06 5.6605e-07 0)
(1.57519e-06 6.38489e-07 0)
(1.53811e-06 7.02712e-07 0)
(1.50883e-06 7.60683e-07 0)
(1.48579e-06 8.13872e-07 0)
(1.46772e-06 8.63382e-07 0)
(1.45366e-06 9.1006e-07 0)
(1.44266e-06 9.54676e-07 0)
(1.65189e-06 3.47084e-07 0)
(1.5703e-06 4.43643e-07 0)
(1.50609e-06 5.24189e-07 0)
(1.45568e-06 5.93093e-07 0)
(1.41607e-06 6.53721e-07 0)
(1.38483e-06 7.08233e-07 0)
(1.36013e-06 7.58161e-07 0)
(1.34056e-06 8.04606e-07 0)
(1.32506e-06 8.48395e-07 0)
(1.3126e-06 8.90255e-07 0)
(1.54477e-06 3.06279e-07 0)
(1.45492e-06 3.99991e-07 0)
(1.38607e-06 4.7662e-07 0)
(1.33282e-06 5.41451e-07 0)
(1.29128e-06 5.98146e-07 0)
(1.25858e-06 6.48959e-07 0)
(1.23264e-06 6.95424e-07 0)
(1.21191e-06 7.38616e-07 0)
(1.19526e-06 7.79324e-07 0)
(1.18164e-06 8.18214e-07 0)
(1.43248e-06 2.6311e-07 0)
(1.33585e-06 3.52218e-07 0)
(1.26347e-06 4.24005e-07 0)
(1.20824e-06 4.84294e-07 0)
(1.16545e-06 5.36797e-07 0)
(1.13183e-06 5.83753e-07 0)
(1.10511e-06 6.26641e-07 0)
(1.08362e-06 6.66478e-07 0)
(1.06617e-06 7.0399e-07 0)
(1.05174e-06 7.39764e-07 0)
(1.31587e-06 2.18482e-07 0)
(1.21444e-06 3.01243e-07 0)
(1.13986e-06 3.67364e-07 0)
(1.08362e-06 4.22734e-07 0)
(1.04031e-06 4.70872e-07 0)
(1.00638e-06 5.13896e-07 0)
(9.79393e-07 5.53177e-07 0)
(9.576e-07 5.89639e-07 0)
(9.39763e-07 6.23928e-07 0)
(9.24953e-07 6.56428e-07 0)
(2.01046e-06 1.19602e-06 0)
(2.01579e-06 1.24637e-06 0)
(2.02357e-06 1.2957e-06 0)
(2.03351e-06 1.34435e-06 0)
(2.04538e-06 1.39256e-06 0)
(2.05897e-06 1.44054e-06 0)
(2.07407e-06 1.48847e-06 0)
(2.0905e-06 1.53646e-06 0)
(2.1081e-06 1.58463e-06 0)
(2.12672e-06 1.63306e-06 0)
(2.14623e-06 1.68181e-06 0)
(2.1665e-06 1.73095e-06 0)
(2.18741e-06 1.7805e-06 0)
(2.20887e-06 1.83049e-06 0)
(2.23076e-06 1.88093e-06 0)
(2.25299e-06 1.93182e-06 0)
(2.27548e-06 1.98314e-06 0)
(2.29812e-06 2.03483e-06 0)
(2.32085e-06 2.08683e-06 0)
(2.34359e-06 2.139e-06 0)
(1.9171e-06 1.17556e-06 0)
(1.9261e-06 1.22639e-06 0)
(1.93693e-06 1.27615e-06 0)
(1.94937e-06 1.32519e-06 0)
(1.96329e-06 1.37378e-06 0)
(1.97854e-06 1.42212e-06 0)
(1.99498e-06 1.47039e-06 0)
(2.01249e-06 1.51872e-06 0)
(2.03095e-06 1.56722e-06 0)
(2.05027e-06 1.61599e-06 0)
(2.07033e-06 1.66508e-06 0)
(2.09105e-06 1.71456e-06 0)
(2.11233e-06 1.76446e-06 0)
(2.13411e-06 1.8148e-06 0)
(2.1563e-06 1.86561e-06 0)
(2.17884e-06 1.91687e-06 0)
(2.20165e-06 1.96857e-06 0)
(2.22466e-06 2.02067e-06 0)
(2.24783e-06 2.07309e-06 0)
(2.27106e-06 2.12574e-06 0)
(1.81259e-06 1.14645e-06 0)
(1.82619e-06 1.19841e-06 0)
(1.84097e-06 1.24923e-06 0)
(1.85677e-06 1.29925e-06 0)
(1.87354e-06 1.34876e-06 0)
(1.89121e-06 1.39797e-06 0)
(1.9097e-06 1.44706e-06 0)
(1.92895e-06 1.49617e-06 0)
(1.9489e-06 1.54543e-06 0)
(1.96947e-06 1.59492e-06 0)
(1.99062e-06 1.64473e-06 0)
(2.01228e-06 1.69491e-06 0)
(2.03441e-06 1.74551e-06 0)
(2.05694e-06 1.79655e-06 0)
(2.07984e-06 1.84806e-06 0)
(2.10304e-06 1.90005e-06 0)
(2.12651e-06 1.95249e-06 0)
(2.1502e-06 2.00537e-06 0)
(2.17404e-06 2.05864e-06 0)
(2.19795e-06 2.11225e-06 0)
(1.69927e-06 1.10854e-06 0)
(1.71811e-06 1.16222e-06 0)
(1.73751e-06 1.21472e-06 0)
(1.75731e-06 1.26631e-06 0)
(1.77756e-06 1.31729e-06 0)
(1.79824e-06 1.36788e-06 0)
(1.81934e-06 1.41828e-06 0)
(1.84086e-06 1.46863e-06 0)
(1.86277e-06 1.51907e-06 0)
(1.88506e-06 1.5697e-06 0)
(1.90772e-06 1.62061e-06 0)
(1.93072e-06 1.67187e-06 0)
(1.95403e-06 1.72352e-06 0)
(1.97765e-06 1.77561e-06 0)
(2.00154e-06 1.82817e-06 0)
(2.02569e-06 1.88122e-06 0)
(2.05005e-06 1.93475e-06 0)
(2.0746e-06 1.98878e-06 0)
(2.09928e-06 2.04329e-06 0)
(2.12402e-06 2.09826e-06 0)
(1.57933e-06 1.06168e-06 0)
(1.60387e-06 1.1177e-06 0)
(1.62835e-06 1.17248e-06 0)
(1.6526e-06 1.22621e-06 0)
(1.67678e-06 1.27922e-06 0)
(1.7009e-06 1.33172e-06 0)
(1.72503e-06 1.38391e-06 0)
(1.7492e-06 1.43597e-06 0)
(1.77344e-06 1.48804e-06 0)
(1.7978e-06 1.54022e-06 0)
(1.82227e-06 1.59263e-06 0)
(1.84689e-06 1.64534e-06 0)
(1.87167e-06 1.69841e-06 0)
(1.8966e-06 1.7519e-06 0)
(1.9217e-06 1.80585e-06 0)
(1.94696e-06 1.8603e-06 0)
(1.97237e-06 1.91526e-06 0)
(1.99792e-06 1.97077e-06 0)
(2.02357e-06 2.02685e-06 0)
(2.04925e-06 2.08351e-06 0)
(1.45475e-06 1.00609e-06 0)
(1.48527e-06 1.06501e-06 0)
(1.51513e-06 1.12267e-06 0)
(1.54413e-06 1.17909e-06 0)
(1.57254e-06 1.23465e-06 0)
(1.6004e-06 1.28956e-06 0)
(1.62784e-06 1.34403e-06 0)
(1.65494e-06 1.39825e-06 0)
(1.68179e-06 1.45237e-06 0)
(1.70844e-06 1.50652e-06 0)
(1.73496e-06 1.56082e-06 0)
(1.76141e-06 1.61535e-06 0)
(1.78782e-06 1.67021e-06 0)
(1.81423e-06 1.72544e-06 0)
(1.84067e-06 1.78111e-06 0)
(1.86716e-06 1.83728e-06 0)
(1.89372e-06 1.89398e-06 0)
(1.92034e-06 1.95127e-06 0)
(1.94702e-06 2.0092e-06 0)
(1.97372e-06 2.06782e-06 0)
(1.32743e-06 9.42245e-07 0)
(1.36402e-06 1.00458e-06 0)
(1.39941e-06 1.06562e-06 0)
(1.43332e-06 1.12525e-06 0)
(1.46612e-06 1.18385e-06 0)
(1.4979e-06 1.24164e-06 0)
(1.52883e-06 1.29884e-06 0)
(1.55904e-06 1.35565e-06 0)
(1.58865e-06 1.41224e-06 0)
(1.61777e-06 1.46875e-06 0)
(1.64648e-06 1.52531e-06 0)
(1.67488e-06 1.58203e-06 0)
(1.70304e-06 1.63901e-06 0)
(1.73101e-06 1.69631e-06 0)
(1.75887e-06 1.75402e-06 0)
(1.78665e-06 1.8122e-06 0)
(1.8144e-06 1.87092e-06 0)
(1.84213e-06 1.93025e-06 0)
(1.86987e-06 1.99027e-06 0)
(1.89761e-06 2.05105e-06 0)
(1.19924e-06 8.70905e-07 0)
(1.24179e-06 9.37048e-07 0)
(1.28267e-06 1.0019e-06 0)
(1.3215e-06 1.06515e-06 0)
(1.35874e-06 1.12722e-06 0)
(1.39451e-06 1.1883e-06 0)
(1.42901e-06 1.24864e-06 0)
(1.46242e-06 1.30844e-06 0)
(1.49488e-06 1.36789e-06 0)
(1.52653e-06 1.42713e-06 0)
(1.55751e-06 1.48632e-06 0)
(1.58792e-06 1.54557e-06 0)
(1.61787e-06 1.60499e-06 0)
(1.64746e-06 1.66467e-06 0)
(1.67675e-06 1.72471e-06 0)
(1.70583e-06 1.78519e-06 0)
(1.73476e-06 1.84618e-06 0)
(1.76359e-06 1.90777e-06 0)
(1.79238e-06 1.97007e-06 0)
(1.82115e-06 2.03317e-06 0)
(1.07204e-06 7.93107e-07 0)
(1.12028e-06 8.6336e-07 0)
(1.1664e-06 9.32269e-07 0)
(1.21004e-06 9.99483e-07 0)
(1.25162e-06 1.06534e-06 0)
(1.29132e-06 1.13006e-06 0)
(1.32937e-06 1.19388e-06 0)
(1.36596e-06 1.25701e-06 0)
(1.40127e-06 1.31965e-06 0)
(1.43547e-06 1.38196e-06 0)
(1.46871e-06 1.44409e-06 0)
(1.50114e-06 1.50619e-06 0)
(1.53288e-06 1.56836e-06 0)
(1.56405e-06 1.63072e-06 0)
(1.59476e-06 1.69336e-06 0)
(1.62511e-06 1.75638e-06 0)
(1.65518e-06 1.81987e-06 0)
(1.68506e-06 1.88392e-06 0)
(1.71482e-06 1.94867e-06 0)
(1.74456e-06 2.0142e-06 0)
(9.47452e-07 7.10232e-07 0)
(1.00087e-06 7.84664e-07 0)
(1.05169e-06 8.57581e-07 0)
(1.09985e-06 9.28926e-07 0)
(1.1456e-06 9.98823e-07 0)
(1.18914e-06 1.06747e-06 0)
(1.23068e-06 1.13507e-06 0)
(1.27041e-06 1.20184e-06 0)
(1.30854e-06 1.26797e-06 0)
(1.34525e-06 1.33364e-06 0)
(1.38073e-06 1.39901e-06 0)
(1.41513e-06 1.46423e-06 0)
(1.4486e-06 1.52943e-06 0)
(1.4813e-06 1.59472e-06 0)
(1.51336e-06 1.66021e-06 0)
(1.54489e-06 1.72599e-06 0)
(1.57601e-06 1.79218e-06 0)
(1.60685e-06 1.85887e-06 0)
(1.6375e-06 1.92619e-06 0)
(1.66811e-06 1.99423e-06 0)
(8.46085e-07 6.55527e-07 0)
(9.02212e-07 7.32187e-07 0)
(9.55498e-07 8.06836e-07 0)
(1.00614e-06 8.8011e-07 0)
(1.05428e-06 9.52073e-07 0)
(1.10011e-06 1.02288e-06 0)
(1.14379e-06 1.09268e-06 0)
(1.18552e-06 1.16166e-06 0)
(1.22548e-06 1.22997e-06 0)
(1.26385e-06 1.29778e-06 0)
(1.30081e-06 1.36523e-06 0)
(1.33653e-06 1.43245e-06 0)
(1.37118e-06 1.49957e-06 0)
(1.40489e-06 1.56669e-06 0)
(1.43783e-06 1.63391e-06 0)
(1.47012e-06 1.70133e-06 0)
(1.50191e-06 1.76905e-06 0)
(1.53333e-06 1.83716e-06 0)
(1.5645e-06 1.90576e-06 0)
(1.59562e-06 1.97496e-06 0)
(7.71337e-07 6.32371e-07 0)
(8.2693e-07 7.08073e-07 0)
(8.80087e-07 7.82264e-07 0)
(9.30839e-07 8.55438e-07 0)
(9.79296e-07 9.27579e-07 0)
(1.02556e-06 9.9877e-07 0)
(1.06978e-06 1.06911e-06 0)
(1.11208e-06 1.13872e-06 0)
(1.15263e-06 1.20772e-06 0)
(1.19158e-06 1.27623e-06 0)
(1.2291e-06 1.34437e-06 0)
(1.26533e-06 1.41225e-06 0)
(1.30044e-06 1.47997e-06 0)
(1.33456e-06 1.54761e-06 0)
(1.36785e-06 1.61527e-06 0)
(1.40044e-06 1.68303e-06 0)
(1.43247e-06 1.75097e-06 0)
(1.46409e-06 1.81916e-06 0)
(1.49544e-06 1.8877e-06 0)
(1.52672e-06 1.95665e-06 0)
(7.04156e-07 6.10817e-07 0)
(7.58235e-07 6.85287e-07 0)
(8.10433e-07 7.58787e-07 0)
(8.60541e-07 8.31655e-07 0)
(9.08632e-07 9.03788e-07 0)
(9.54736e-07 9.75202e-07 0)
(9.98942e-07 1.04594e-06 0)
(1.04135e-06 1.11606e-06 0)
(1.08208e-06 1.18564e-06 0)
(1.12126e-06 1.25478e-06 0)
(1.15903e-06 1.32354e-06 0)
(1.19553e-06 1.39202e-06 0)
(1.23089e-06 1.46029e-06 0)
(1.26525e-06 1.52842e-06 0)
(1.29875e-06 1.59649e-06 0)
(1.33153e-06 1.66455e-06 0)
(1.36372e-06 1.73268e-06 0)
(1.39548e-06 1.80092e-06 0)
(1.42695e-06 1.86933e-06 0)
(1.45835e-06 1.93797e-06 0)
(6.43237e-07 5.90782e-07 0)
(6.95269e-07 6.63877e-07 0)
(7.45904e-07 7.36525e-07 0)
(7.94798e-07 8.0892e-07 0)
(8.41983e-07 8.80888e-07 0)
(8.87428e-07 9.52375e-07 0)
(9.31173e-07 1.02337e-06 0)
(9.7328e-07 1.09388e-06 0)
(1.01383e-06 1.16394e-06 0)
(1.05293e-06 1.2336e-06 0)
(1.09068e-06 1.30291e-06 0)
(1.1272e-06 1.37192e-06 0)
(1.16261e-06 1.44068e-06 0)
(1.19705e-06 1.50926e-06 0)
(1.23063e-06 1.57769e-06 0)
(1.26349e-06 1.64602e-06 0)
(1.29576e-06 1.71429e-06 0)
(1.32759e-06 1.78255e-06 0)
(1.35914e-06 1.8508e-06 0)
(1.3906e-06 1.91908e-06 0)
(5.87707e-07 5.72178e-07 0)
(6.37325e-07 6.43842e-07 0)
(6.85962e-07 7.15536e-07 0)
(7.33203e-07 7.8733e-07 0)
(7.7905e-07 8.58995e-07 0)
(8.23422e-07 9.30422e-07 0)
(8.66323e-07 1.00154e-06 0)
(9.07772e-07 1.07232e-06 0)
(9.47823e-07 1.14275e-06 0)
(9.86545e-07 1.21285e-06 0)
(1.02402e-06 1.28261e-06 0)
(1.06035e-06 1.35209e-06 0)
(1.09564e-06 1.42129e-06 0)
(1.13e-06 1.49025e-06 0)
(1.16353e-06 1.559e-06 0)
(1.19637e-06 1.62756e-06 0)
(1.22864e-06 1.69595e-06 0)
(1.26047e-06 1.76418e-06 0)
(1.29204e-06 1.83223e-06 0)
(1.32352e-06 1.90012e-06 0)
(5.36689e-07 5.54879e-07 0)
(5.83658e-07 6.25117e-07 0)
(6.3e-07 6.95805e-07 0)
(6.75271e-07 7.66913e-07 0)
(7.19448e-07 8.38174e-07 0)
(7.6242e-07 9.0943e-07 0)
(8.04158e-07 9.80569e-07 0)
(8.44653e-07 1.05151e-06 0)
(8.83928e-07 1.12221e-06 0)
(9.22028e-07 1.19264e-06 0)
(9.59013e-07 1.26278e-06 0)
(9.94958e-07 1.33264e-06 0)
(1.02995e-06 1.40222e-06 0)
(1.06408e-06 1.47151e-06 0)
(1.09746e-06 1.54053e-06 0)
(1.13018e-06 1.60928e-06 0)
(1.16237e-06 1.67775e-06 0)
(1.19415e-06 1.74593e-06 0)
(1.22566e-06 1.81378e-06 0)
(1.25707e-06 1.8813e-06 0)
(4.89375e-07 5.38739e-07 0)
(5.33557e-07 6.07599e-07 0)
(5.77409e-07 6.77274e-07 0)
(6.20486e-07 7.47652e-07 0)
(6.62748e-07 8.18439e-07 0)
(7.04067e-07 8.89442e-07 0)
(7.44391e-07 9.60507e-07 0)
(7.83689e-07 1.03152e-06 0)
(8.2196e-07 1.10239e-06 0)
(8.59225e-07 1.17307e-06 0)
(8.95525e-07 1.24351e-06 0)
(9.30915e-07 1.31368e-06 0)
(9.65463e-07 1.38356e-06 0)
(9.99246e-07 1.45313e-06 0)
(1.03235e-06 1.52238e-06 0)
(1.06487e-06 1.59128e-06 0)
(1.0969e-06 1.65981e-06 0)
(1.12857e-06 1.72793e-06 0)
(1.15998e-06 1.79559e-06 0)
(1.19128e-06 1.86275e-06 0)
(4.45021e-07 5.23604e-07 0)
(4.86349e-07 5.91167e-07 0)
(5.27593e-07 6.59857e-07 0)
(5.68324e-07 7.29496e-07 0)
(6.08497e-07 7.99773e-07 0)
(6.47974e-07 8.70466e-07 0)
(6.86691e-07 9.41388e-07 0)
(7.246e-07 1.01239e-06 0)
(7.61681e-07 1.08337e-06 0)
(7.97939e-07 1.15422e-06 0)
(8.33394e-07 1.22488e-06 0)
(8.68084e-07 1.29529e-06 0)
(9.0206e-07 1.36541e-06 0)
(9.35384e-07 1.43521e-06 0)
(9.68124e-07 1.50463e-06 0)
(1.00036e-06 1.57365e-06 0)
(1.03218e-06 1.64222e-06 0)
(1.06366e-06 1.71028e-06 0)
(1.09492e-06 1.77776e-06 0)
(1.12608e-06 1.8446e-06 0)
(4.02954e-07 5.09322e-07 0)
(4.41402e-07 5.75695e-07 0)
(4.79973e-07 6.43456e-07 0)
(5.18263e-07 7.12375e-07 0)
(5.56229e-07 7.82134e-07 0)
(5.9373e-07 8.52484e-07 0)
(6.30698e-07 9.23216e-07 0)
(6.67071e-07 9.94156e-07 0)
(7.0282e-07 1.06516e-06 0)
(7.37932e-07 1.13612e-06 0)
(7.72414e-07 1.20693e-06 0)
(8.06287e-07 1.27752e-06 0)
(8.39586e-07 1.34783e-06 0)
(8.72358e-07 1.41779e-06 0)
(9.04655e-07 1.48736e-06 0)
(9.36539e-07 1.55647e-06 0)
(9.68078e-07 1.62506e-06 0)
(9.99346e-07 1.69308e-06 0)
(1.03042e-06 1.76041e-06 0)
(1.06139e-06 1.82698e-06 0)
(3.62558e-07 4.95754e-07 0)
(3.98126e-07 5.61059e-07 0)
(4.33993e-07 6.27966e-07 0)
(4.69789e-07 6.9621e-07 0)
(5.05472e-07 7.65463e-07 0)
(5.40909e-07 8.35462e-07 0)
(5.76027e-07 9.05974e-07 0)
(6.10762e-07 9.76807e-07 0)
(6.45073e-07 1.04779e-06 0)
(6.78937e-07 1.1188e-06 0)
(7.12348e-07 1.18971e-06 0)
(7.45313e-07 1.26042e-06 0)
(7.77853e-07 1.33086e-06 0)
(8.09998e-07 1.40095e-06 0)
(8.41787e-07 1.47062e-06 0)
(8.73265e-07 1.53979e-06 0)
(9.04481e-07 1.60841e-06 0)
(9.35488e-07 1.67638e-06 0)
(9.66339e-07 1.7436e-06 0)
(9.97095e-07 1.80999e-06 0)
(3.23262e-07 4.82775e-07 0)
(3.55966e-07 5.47142e-07 0)
(3.89121e-07 6.13289e-07 0)
(4.22396e-07 6.80916e-07 0)
(4.55755e-07 7.49695e-07 0)
(4.89074e-07 8.19349e-07 0)
(5.22281e-07 8.89631e-07 0)
(5.5531e-07 9.60329e-07 0)
(5.88114e-07 1.03126e-06 0)
(6.2066e-07 1.10227e-06 0)
(6.52932e-07 1.17323e-06 0)
(6.84925e-07 1.24402e-06 0)
(7.16646e-07 1.31454e-06 0)
(7.48111e-07 1.38471e-06 0)
(7.79344e-07 1.45444e-06 0)
(8.10374e-07 1.52367e-06 0)
(8.41231e-07 1.5923e-06 0)
(8.71946e-07 1.66026e-06 0)
(9.0255e-07 1.72742e-06 0)
(9.33068e-07 1.79369e-06 0)
(2.84531e-07 4.7028e-07 0)
(3.14388e-07 5.33845e-07 0)
(3.44837e-07 5.99329e-07 0)
(3.75588e-07 6.66411e-07 0)
(4.06607e-07 7.34761e-07 0)
(4.37786e-07 8.0409e-07 0)
(4.69053e-07 8.74142e-07 0)
(5.00342e-07 9.44692e-07 0)
(5.31601e-07 1.01554e-06 0)
(5.62791e-07 1.08652e-06 0)
(5.93885e-07 1.15749e-06 0)
(6.24868e-07 1.22831e-06 0)
(6.55734e-07 1.29887e-06 0)
(6.86486e-07 1.36909e-06 0)
(7.17132e-07 1.43887e-06 0)
(7.47685e-07 1.50812e-06 0)
(7.78159e-07 1.57677e-06 0)
(8.08563e-07 1.64473e-06 0)
(8.38904e-07 1.71187e-06 0)
(8.69171e-07 1.77813e-06 0)
(2.45851e-07 4.58183e-07 0)
(2.72876e-07 5.21078e-07 0)
(3.00633e-07 5.86002e-07 0)
(3.28869e-07 6.52615e-07 0)
(3.57558e-07 7.20586e-07 0)
(3.866e-07 7.89621e-07 0)
(4.15927e-07 8.59455e-07 0)
(4.45472e-07 9.29852e-07 0)
(4.75181e-07 1.0006e-06 0)
(5.05006e-07 1.07153e-06 0)
(5.34914e-07 1.14247e-06 0)
(5.64876e-07 1.21329e-06 0)
(5.94876e-07 1.28387e-06 0)
(6.24902e-07 1.3541e-06 0)
(6.54948e-07 1.42389e-06 0)
(6.85012e-07 1.49316e-06 0)
(7.15091e-07 1.56183e-06 0)
(7.45173e-07 1.6298e-06 0)
(7.75246e-07 1.69699e-06 0)
(8.05262e-07 1.7633e-06 0)
(2.06709e-07 4.46414e-07 0)
(2.30917e-07 5.08767e-07 0)
(2.56002e-07 5.7323e-07 0)
(2.81749e-07 6.39451e-07 0)
(3.08133e-07 7.07099e-07 0)
(3.35065e-07 7.75875e-07 0)
(3.62479e-07 8.45509e-07 0)
(3.90308e-07 9.15756e-07 0)
(4.1849e-07 9.86401e-07 0)
(4.46975e-07 1.05725e-06 0)
(4.75715e-07 1.12815e-06 0)
(5.04675e-07 1.19894e-06 0)
(5.33822e-07 1.2695e-06 0)
(5.63133e-07 1.33972e-06 0)
(5.92588e-07 1.40951e-06 0)
(6.22168e-07 1.47879e-06 0)
(6.51854e-07 1.54746e-06 0)
(6.81618e-07 1.61548e-06 0)
(7.11425e-07 1.68274e-06 0)
(7.412e-07 1.74919e-06 0)
(1.66586e-07 4.3492e-07 0)
(1.8799e-07 4.96846e-07 0)
(2.1043e-07 5.60942e-07 0)
(2.33727e-07 6.26845e-07 0)
(2.57854e-07 6.94224e-07 0)
(2.82728e-07 7.62778e-07 0)
(3.08284e-07 8.32232e-07 0)
(3.34451e-07 9.02339e-07 0)
(3.61163e-07 9.72876e-07 0)
(3.88359e-07 1.04365e-06 0)
(4.15985e-07 1.11448e-06 0)
(4.43988e-07 1.18522e-06 0)
(4.72326e-07 1.25575e-06 0)
(5.00959e-07 1.32594e-06 0)
(5.29853e-07 1.3957e-06 0)
(5.58973e-07 1.46496e-06 0)
(5.88286e-07 1.53365e-06 0)
(6.17746e-07 1.60171e-06 0)
(6.47303e-07 1.66908e-06 0)
(6.76858e-07 1.73573e-06 0)
(1.24942e-07 4.23656e-07 0)
(1.43559e-07 4.8526e-07 0)
(1.63393e-07 5.49071e-07 0)
(1.84294e-07 6.14721e-07 0)
(2.06232e-07 6.81881e-07 0)
(2.29126e-07 7.50249e-07 0)
(2.52907e-07 8.19547e-07 0)
(2.77498e-07 8.89524e-07 0)
(3.02828e-07 9.59956e-07 0)
(3.28823e-07 1.03064e-06 0)
(3.55416e-07 1.1014e-06 0)
(3.82544e-07 1.17208e-06 0)
(4.10146e-07 1.24255e-06 0)
(4.38169e-07 1.3127e-06 0)
(4.66559e-07 1.38242e-06 0)
(4.95268e-07 1.45166e-06 0)
(5.24246e-07 1.52035e-06 0)
(5.53434e-07 1.58845e-06 0)
(5.82766e-07 1.65595e-06 0)
(6.12131e-07 1.72283e-06 0)
(8.1206e-08 4.12583e-07 0)
(9.70631e-08 4.7395e-07 0)
(1.14345e-07 5.37545e-07 0)
(1.32928e-07 6.02998e-07 0)
(1.52769e-07 6.69983e-07 0)
(1.73788e-07 7.38196e-07 0)
(1.95907e-07 8.0736e-07 0)
(2.19043e-07 8.77221e-07 0)
(2.43111e-07 9.47552e-07 0)
(2.68027e-07 1.01815e-06 0)
(2.93708e-07 1.08883e-06 0)
(3.20076e-07 1.15944e-06 0)
(3.47052e-07 1.22985e-06 0)
(3.74563e-07 1.29994e-06 0)
(4.02541e-07 1.36962e-06 0)
(4.30916e-07 1.43882e-06 0)
(4.59622e-07 1.5075e-06 0)
(4.88588e-07 1.57564e-06 0)
(5.17737e-07 1.64325e-06 0)
(5.46951e-07 1.71038e-06 0)
(3.47714e-08 4.01662e-07 0)
(4.79139e-08 4.62858e-07 0)
(6.27213e-08 5.26289e-07 0)
(7.90869e-08 5.9159e-07 0)
(9.6954e-08 6.58434e-07 0)
(1.16234e-07 7.26519e-07 0)
(1.36839e-07 7.95566e-07 0)
(1.58673e-07 8.65323e-07 0)
(1.81638e-07 9.3556e-07 0)
(2.05635e-07 1.00607e-06 0)
(2.30563e-07 1.07668e-06 0)
(2.56324e-07 1.14722e-06 0)
(2.82822e-07 1.21756e-06 0)
(3.09964e-07 1.28759e-06 0)
(3.37657e-07 1.35721e-06 0)
(3.65813e-07 1.42637e-06 0)
(3.94346e-07 1.49503e-06 0)
(4.23167e-07 1.56319e-06 0)
(4.5219e-07 1.63089e-06 0)
(4.81302e-07 1.69823e-06 0)
(-1.50175e-08 3.90829e-07 0)
(-4.5171e-09 4.519e-07 0)
(7.92317e-09 5.15204e-07 0)
(2.22063e-08 5.80384e-07 0)
(3.82551e-08 6.47112e-07 0)
(5.59696e-08 7.15088e-07 0)
(7.52455e-08 7.84035e-07 0)
(9.59712e-08 8.53699e-07 0)
(1.18031e-07 9.2385e-07 0)
(1.41308e-07 9.94283e-07 0)
(1.65683e-07 1.06482e-06 0)
(1.91037e-07 1.13529e-06 0)
(2.17251e-07 1.20557e-06 0)
(2.44209e-07 1.27554e-06 0)
(2.71795e-07 1.34511e-06 0)
(2.99894e-07 1.41422e-06 0)
(3.28395e-07 1.48285e-06 0)
(3.57189e-07 1.55101e-06 0)
(3.86172e-07 1.61877e-06 0)
(4.15237e-07 1.68624e-06 0)
(-6.88224e-08 3.80053e-07 0)
(-6.08623e-08 4.41019e-07 0)
(-5.06447e-08 5.04213e-07 0)
(-3.82731e-08 5.69285e-07 0)
(-2.38482e-08 6.35911e-07 0)
(-7.48809e-09 7.03789e-07 0)
(1.06831e-08 7.72643e-07 0)
(3.05338e-08 8.4222e-07 0)
(5.19283e-08 9.12291e-07 0)
(7.47278e-08 9.8265e-07 0)
(9.87922e-08 1.05311e-06 0)
(1.2398e-07 1.12353e-06 0)
(1.50151e-07 1.19375e-06 0)
(1.77161e-07 1.26367e-06 0)
(2.04869e-07 1.33319e-06 0)
(2.33131e-07 1.40227e-06 0)
(2.61803e-07 1.47087e-06 0)
(2.90744e-07 1.53901e-06 0)
(3.19821e-07 1.60677e-06 0)
(3.48913e-07 1.67429e-06 0)
(3.09301e-08 9.57773e-09 0)
(9.16119e-08 3.42174e-08 0)
(1.52919e-07 7.11454e-08 0)
(2.17799e-07 1.18959e-07 0)
(2.88097e-07 1.77176e-07 0)
(3.65468e-07 2.44653e-07 0)
(4.5094e-07 3.19936e-07 0)
(5.45008e-07 4.01249e-07 0)
(6.47642e-07 4.86629e-07 0)
(7.58258e-07 5.73909e-07 0)
(2.79593e-08 1.03405e-08 0)
(8.3145e-08 3.58624e-08 0)
(1.39175e-07 7.23734e-08 0)
(1.98473e-07 1.187e-07 0)
(2.62618e-07 1.74478e-07 0)
(3.33035e-07 2.38781e-07 0)
(4.10667e-07 3.10404e-07 0)
(4.9601e-07 3.87855e-07 0)
(5.89091e-07 4.69433e-07 0)
(6.89442e-07 5.5332e-07 0)
(2.52878e-08 1.08589e-08 0)
(7.54881e-08 3.69141e-08 0)
(1.26734e-07 7.2923e-08 0)
(1.81004e-07 1.17882e-07 0)
(2.39627e-07 1.71503e-07 0)
(3.03808e-07 2.33003e-07 0)
(3.74385e-07 3.01355e-07 0)
(4.51859e-07 3.75297e-07 0)
(5.36392e-07 4.53374e-07 0)
(6.27629e-07 5.34056e-07 0)
(2.28292e-08 1.11626e-08 0)
(6.84204e-08 3.74353e-08 0)
(1.15257e-07 7.28545e-08 0)
(1.64955e-07 1.16543e-07 0)
(2.18635e-07 1.68267e-07 0)
(2.77304e-07 2.27338e-07 0)
(3.41687e-07 2.92852e-07 0)
(4.12222e-07 3.63696e-07 0)
(4.89129e-07 4.38585e-07 0)
(5.72049e-07 5.16156e-07 0)
(2.05395e-08 1.12852e-08 0)
(6.18183e-08 3.7499e-08 0)
(1.04534e-07 7.22297e-08 0)
(1.5e-07 1.14697e-07 0)
(1.99163e-07 1.64701e-07 0)
(2.52858e-07 2.21622e-07 0)
(3.11701e-07 2.84639e-07 0)
(3.76066e-07 3.52752e-07 0)
(4.46198e-07 4.24813e-07 0)
(5.21689e-07 4.99548e-07 0)
(1.83801e-08 1.12497e-08 0)
(5.55764e-08 3.71568e-08 0)
(9.4395e-08 7.1099e-08 0)
(1.35897e-07 1.12371e-07 0)
(1.80881e-07 1.60797e-07 0)
(2.30034e-07 2.15803e-07 0)
(2.83873e-07 2.76625e-07 0)
(3.42697e-07 3.4234e-07 0)
(4.06762e-07 4.11905e-07 0)
(4.75607e-07 4.84102e-07 0)
(1.63197e-08 1.10742e-08 0)
(4.9609e-08 3.64506e-08 0)
(8.47001e-08 6.95022e-08 0)
(1.2244e-07 1.09582e-07 0)
(1.63501e-07 1.56532e-07 0)
(2.08445e-07 2.09809e-07 0)
(2.577e-07 2.68689e-07 0)
(3.11499e-07 3.32301e-07 0)
(3.70086e-07 3.99685e-07 0)
(4.32968e-07 4.69658e-07 0)
(1.43324e-08 1.07721e-08 0)
(4.38443e-08 3.54113e-08 0)
(7.53338e-08 6.747e-08 0)
(1.09462e-07 1.06347e-07 0)
(1.46793e-07 1.51896e-07 0)
(1.8778e-07 2.03595e-07 0)
(2.32777e-07 2.60746e-07 0)
(2.81957e-07 3.22514e-07 0)
(3.35544e-07 3.87998e-07 0)
(3.93032e-07 4.5605e-07 0)
(1.23955e-08 1.03529e-08 0)
(3.82203e-08 3.40605e-08 0)
(6.61966e-08 6.50237e-08 0)
(9.68183e-08 1.02676e-07 0)
(1.30558e-07 1.4688e-07 0)
(1.67773e-07 1.97123e-07 0)
(2.08754e-07 2.52724e-07 0)
(2.53627e-07 3.12871e-07 0)
(3.02589e-07 3.76708e-07 0)
(3.55144e-07 4.43119e-07 0)
(1.04888e-08 9.82196e-09 0)
(3.26823e-08 3.2411e-08 0)
(5.72013e-08 6.21753e-08 0)
(8.43846e-08 9.85744e-08 0)
(1.14621e-07 1.41474e-07 0)
(1.4819e-07 1.90362e-07 0)
(1.85327e-07 2.44565e-07 0)
(2.26121e-07 3.03286e-07 0)
(2.70744e-07 3.65699e-07 0)
(3.18721e-07 4.30724e-07 0)
(8.59404e-09 9.18141e-09 0)
(2.71813e-08 3.04669e-08 0)
(4.82696e-08 5.8928e-08 0)
(7.20472e-08 9.40412e-08 0)
(9.8827e-08 1.35668e-07 0)
(1.28819e-07 1.83287e-07 0)
(1.62219e-07 2.36225e-07 0)
(1.99089e-07 2.93689e-07 0)
(2.39574e-07 3.54878e-07 0)
(2.83235e-07 4.18744e-07 0)
(6.69379e-09 8.42902e-09 0)
(2.16727e-08 2.82231e-08 0)
(3.93298e-08 5.52752e-08 0)
(5.97007e-08 8.90692e-08 0)
(8.30269e-08 1.29451e-07 0)
(1.09463e-07 1.75879e-07 0)
(1.39171e-07 2.27669e-07 0)
(1.72201e-07 2.84029e-07 0)
(2.08674e-07 3.4417e-07 0)
(2.48194e-07 4.07081e-07 0)
(4.77141e-09 7.55705e-09 0)
(1.61163e-08 2.5663e-08 0)
(3.03156e-08 5.12002e-08 0)
(4.72437e-08 8.3646e-08 0)
(6.70758e-08 1.22813e-07 0)
(8.99232e-08 1.68126e-07 0)
(1.15929e-07 2.18876e-07 0)
(1.45137e-07 2.74268e-07 0)
(1.77653e-07 3.3352e-07 0)
(2.13129e-07 3.95657e-07 0)
(2.81083e-09 6.54943e-09 0)
(1.04782e-08 2.27564e-08 0)
(2.11654e-08 4.66751e-08 0)
(3.45752e-08 7.77548e-08 0)
(5.08239e-08 1.15747e-07 0)
(6.99961e-08 1.60021e-07 0)
(9.22283e-08 2.09835e-07 0)
(1.1757e-07 2.64384e-07 0)
(1.46118e-07 3.22891e-07 0)
(1.77571e-07 3.84415e-07 0)
(7.97379e-10 5.37572e-09 0)
(4.73389e-09 1.94539e-08 0)
(1.1822e-08 4.16606e-08 0)
(2.15887e-08 7.13772e-08 0)
(3.41071e-08 1.0825e-07 0)
(4.94582e-08 1.5157e-07 0)
(6.77865e-08 2.0055e-07 0)
(8.91564e-08 2.54371e-07 0)
(1.13657e-07 3.12262e-07 0)
(1.41041e-07 3.73317e-07 0)
(-1.27799e-09 3.97936e-09 0)
(-1.12347e-09 1.56784e-08 0)
(2.23105e-09 3.6106e-08 0)
(8.16346e-09 6.44986e-08 0)
(1.67345e-08 1.00333e-07 0)
(2.80527e-08 1.42794e-07 0)
(4.22848e-08 1.9104e-07 0)
(5.95154e-08 2.44239e-07 0)
(7.98317e-08 3.01626e-07 0)
(1.03033e-07 3.62336e-07 0)
(-3.4046e-09 2.25166e-09 0)
(-7.07108e-09 1.13171e-08 0)
(-7.66268e-09 2.99556e-08 0)
(-5.85222e-09 5.71173e-08 0)
(-1.53179e-09 9.20249e-08 0)
(5.47074e-09 1.33729e-07 0)
(1.53533e-08 1.81336e-07 0)
(2.82208e-08 2.34006e-07 0)
(4.41566e-08 2.90985e-07 0)
(6.30045e-08 3.51454e-07 0)
(-5.49428e-09 -8.71705e-12 0)
(-1.30328e-08 6.20365e-09 0)
(-1.79344e-08 2.31617e-08 0)
(-2.0672e-08 4.9263e-08 0)
(-2.10041e-08 8.33849e-08 0)
(-1.86693e-08 1.2444e-07 0)
(-1.34434e-08 1.71491e-07 0)
(-5.2123e-09 2.23706e-07 0)
(6.09781e-09 2.8035e-07 0)
(2.03665e-08 3.40658e-07 0)
(-7.20856e-09 -3.20965e-09 0)
(-1.88725e-08 1.54015e-10 0)
(-2.87224e-08 1.57277e-08 0)
(-3.6626e-08 4.10089e-08 0)
(-4.21133e-08 7.44953e-08 0)
(-4.48527e-08 1.1499e-07 0)
(-4.46287e-08 1.61545e-07 0)
(-4.13431e-08 2.13353e-07 0)
(-3.49431e-08 2.69709e-07 0)
(-2.55266e-08 3.29907e-07 0)
(-7.12236e-09 -7.9607e-09 0)
(-2.43218e-08 -7.05821e-09 0)
(-4.03167e-08 7.74989e-09 0)
(-5.42105e-08 3.2534e-08 0)
(-6.54016e-08 6.55144e-08 0)
(-7.36326e-08 1.05502e-07 0)
(-7.87649e-08 1.51586e-07 0)
(-8.07531e-08 2.03006e-07 0)
(-7.9576e-08 2.5909e-07 0)
(-7.53301e-08 3.19198e-07 0)
)
;

boundaryField
{
    left
    {
        type            fixedDisplacement;
        value           uniform (0 0 0);
    }
    right
    {
        type            solidTraction;
        tractionSeries  
{
        file            "$FOAM_CASE/constant/timeVsTraction";
        outOfBounds     clamp;
}
        pressure        uniform 0;
        secondOrder     false;
        setEffectiveTraction false;
        relaxationFactor 1;
        value           nonuniform List<vector> 
30
(
(2.35485e-06 2.16508e-06 2.61791e-21)
(2.28239e-06 2.15207e-06 2.64156e-21)
(2.20945e-06 2.13913e-06 2.67256e-21)
(2.13578e-06 2.1259e-06 2.71268e-21)
(2.06137e-06 2.11208e-06 2.76304e-21)
(1.9863e-06 2.09743e-06 2.82404e-21)
(1.91073e-06 2.0818e-06 2.89612e-21)
(1.83488e-06 2.06511e-06 2.97968e-21)
(1.75897e-06 2.04739e-06 3.07522e-21)
(1.68325e-06 2.02869e-06 3.18311e-21)
(1.61121e-06 2.01001e-06 3.23784e-21)
(1.54238e-06 1.99145e-06 3.22454e-21)
(1.47406e-06 1.97248e-06 3.21455e-21)
(1.40634e-06 1.95326e-06 3.20807e-21)
(1.33925e-06 1.93398e-06 3.20565e-21)
(1.27277e-06 1.91484e-06 3.20703e-21)
(1.20692e-06 1.89598e-06 3.21169e-21)
(1.14164e-06 1.87756e-06 3.21954e-21)
(1.07685e-06 1.85973e-06 3.23015e-21)
(1.01244e-06 1.84259e-06 3.24294e-21)
(9.48288e-07 1.8262e-06 3.2572e-21)
(8.84264e-07 1.81063e-06 3.27232e-21)
(8.20229e-07 1.79586e-06 3.28759e-21)
(7.56048e-07 1.78187e-06 3.30221e-21)
(6.91601e-07 1.76859e-06 3.31568e-21)
(6.26787e-07 1.75591e-06 3.32725e-21)