/*--------------------------------*- C++ -*----------------------------------*\
  =========                 |
  \\      /  F ield         | OpenFOAM: The Open Source CFD Toolbox
   \\    /   O peration     | Website:  https://openfoam.org
    \\  /    A nd           | Version:  9
     \\/     M anipulation  |
\*---------------------------------------------------------------------------*/
FoamFile
{
    format      ascii;
    class       volScalarField;
    location    "1";
    object      epsilonEq;
}
// * * * * * * * * * * * * * * * * * * * * * * * * * * * * * * * * * * * * * //

dimensions      [0 0 0 0 0 0 0];

internalField   nonuniform List<scalar> 
1000
(
1.13897e-06
9.21965e-07
8.61549e-07
8.45839e-07
8.38908e-07
8.30907e-07
8.19959e-07
8.06138e-07
7.90241e-07
7.74414e-07
1.30095e-06
1.02639e-06
9.26746e-07
8.85884e-07
8.63099e-07
8.44622e-07
8.26506e-07
8.07667e-07
7.87745e-07
7.71135e-07
1.46364e-06
1.1299e-06
9.85587e-07
9.15102e-07
8.73678e-07
8.43222e-07
8.17162e-07
7.92941e-07
7.6904e-07
7.50623e-07
1.62349e-06
1.23058e-06
1.03868e-06
9.35453e-07
8.73156e-07
8.29492e-07
7.95e-07
7.65378e-07
7.37891e-07
7.17258e-07
1.77492e-06
1.32609e-06
1.08734e-06
9.50362e-07
8.65867e-07
8.08042e-07
7.64644e-07
7.29502e-07
6.9866e-07
6.75549e-07
1.90977e-06
1.4135e-06
1.13321e-06
9.64315e-07
8.57641e-07
7.85108e-07
7.32264e-07
6.9119e-07
6.56784e-07
6.30683e-07
2.01776e-06
1.49142e-06
1.18063e-06
9.84736e-07
8.573e-07
7.69794e-07
7.06645e-07
6.58636e-07
6.1977e-07
5.89646e-07
2.0859e-06
1.55712e-06
1.23199e-06
1.01702e-06
8.72126e-07
7.70355e-07
6.96311e-07
6.40208e-07
5.95566e-07
5.60105e-07
2.10249e-06
1.62278e-06
1.30275e-06
1.07738e-06
9.18094e-07
8.02004e-07
7.15289e-07
6.48507e-07
5.95235e-07
5.51816e-07
2.03647e-06
1.65626e-06
1.37226e-06
1.15415e-06
9.89965e-07
8.64563e-07
7.67231e-07
6.9006e-07
6.27375e-07
5.75028e-07
3.1965e-07
3.20254e-07
2.98053e-07
2.5902e-07
2.13297e-07
1.68595e-07
1.3257e-07
1.13264e-07
1.15139e-07
1.33056e-07
3.10936e-07
2.9623e-07
2.60863e-07
2.27384e-07
2.04075e-07
1.93163e-07
1.93306e-07
2.0161e-07
2.14404e-07
2.31082e-07
3.13367e-07
2.96192e-07
2.66507e-07
2.52525e-07
2.56003e-07
2.69661e-07
2.86481e-07
3.03048e-07
3.17261e-07
3.31764e-07
3.3173e-07
3.20952e-07
3.09135e-07
3.16275e-07
3.36351e-07
3.60206e-07
3.82002e-07
3.99852e-07
4.12642e-07
4.24473e-07
3.75265e-07
3.70735e-07
3.76917e-07
3.98862e-07
4.2654e-07
4.52942e-07
4.74431e-07
4.90358e-07
5.00176e-07
5.08623e-07
4.50313e-07
4.40584e-07
4.5771e-07
4.87635e-07
5.17477e-07
5.42528e-07
5.61036e-07
5.73301e-07
5.79211e-07
5.83606e-07
5.55259e-07
5.24447e-07
5.43528e-07
5.75423e-07
6.03774e-07
6.25193e-07
6.39257e-07
6.4694e-07
6.48504e-07
6.48393e-07
6.83299e-07
6.17417e-07
6.29398e-07
6.57655e-07
6.81498e-07
6.97655e-07
7.06404e-07
7.09085e-07
7.06293e-07
7.01419e-07
8.269e-07
7.16064e-07
7.12182e-07
7.31269e-07
7.47724e-07
7.57172e-07
7.59901e-07
7.57309e-07
7.50334e-07
7.41161e-07
9.80105e-07
8.18099e-07
7.8991e-07
7.94288e-07
8.00446e-07
8.01766e-07
7.9784e-07
7.89767e-07
7.7915e-07
7.64063e-07
1.57334e-07
1.82146e-07
2.07035e-07
2.30488e-07
2.52094e-07
2.7167e-07
2.89227e-07
3.04841e-07
3.18627e-07
3.30708e-07
3.41197e-07
3.50201e-07
3.57809e-07
3.64093e-07
3.69113e-07
3.72918e-07
3.75548e-07
3.7707e-07
3.77516e-07
3.77108e-07
2.43771e-07
2.53078e-07
2.64244e-07
2.75802e-07
2.87502e-07
2.98938e-07
3.0987e-07
3.20124e-07
3.29604e-07
3.38253e-07
3.46048e-07
3.52987e-07
3.59078e-07
3.64336e-07
3.6877e-07
3.72383e-07
3.75144e-07
3.76998e-07
3.77708e-07
3.77051e-07
3.36289e-07
3.34431e-07
3.34416e-07
3.35304e-07
3.37263e-07
3.40049e-07
3.43475e-07
3.47324e-07
3.51417e-07
3.55598e-07
3.59743e-07
3.63754e-07
3.67553e-07
3.71074e-07
3.74245e-07
3.76981e-07
3.79133e-07
3.80495e-07
3.80596e-07
3.79115e-07
4.22612e-07
4.12665e-07
4.04175e-07
3.96781e-07
3.9078e-07
3.86118e-07
3.82738e-07
3.80491e-07
3.79222e-07
3.78765e-07
3.78961e-07
3.79665e-07
3.80742e-07
3.82061e-07
3.83483e-07
3.84843e-07
3.85912e-07
3.86408e-07
3.85776e-07
3.83775e-07
5.01183e-07
4.85056e-07
4.6983e-07
4.55944e-07
4.43577e-07
4.32781e-07
4.23612e-07
4.15987e-07
4.09817e-07
4.04964e-07
4.01283e-07
3.98619e-07
3.96816e-07
3.95708e-07
3.95118e-07
3.9484e-07
3.94608e-07
3.94129e-07
3.9287e-07
3.90708e-07
5.71202e-07
5.50362e-07
5.29719e-07
5.10681e-07
4.93239e-07
4.77454e-07
4.63476e-07
4.51268e-07
4.40803e-07
4.31986e-07
4.24703e-07
4.18818e-07
4.14179e-07
4.10618e-07
4.07949e-07
4.05963e-07
4.04403e-07
4.03007e-07
4.01338e-07
3.99363e-07
6.31841e-07
6.0769e-07
5.8298e-07
5.59939e-07
5.38554e-07
5.18768e-07
5.00852e-07
4.84798e-07
4.70642e-07
4.58335e-07
4.47806e-07
4.3895e-07
4.3164e-07
4.25728e-07
4.21044e-07
4.17404e-07
4.14594e-07
4.12412e-07
4.10557e-07
4.09057e-07
6.81982e-07
6.5583e-07
6.28691e-07
6.02738e-07
5.7851e-07
5.55712e-07
5.34727e-07
5.15577e-07
4.9835e-07
4.83055e-07
4.69671e-07
4.58141e-07
4.48379e-07
4.40275e-07
4.337e-07
4.28515e-07
4.24572e-07
4.21744e-07
4.1989e-07
4.19076e-07
7.21282e-07
6.93815e-07
6.66669e-07
6.39163e-07
6.13054e-07
5.88024e-07
5.64598e-07
5.42918e-07
5.23129e-07
5.05301e-07
4.8946e-07
4.75594e-07
4.6366e-07
4.53591e-07
4.45311e-07
4.38737e-07
4.33801e-07
4.3046e-07
4.28746e-07
4.28743e-07
7.48441e-07
7.19274e-07
6.9396e-07
6.67326e-07
6.41176e-07
6.15493e-07
5.90775e-07
5.67387e-07
5.45615e-07
5.25657e-07
5.0764e-07
4.91632e-07
4.7766e-07
4.65721e-07
4.55798e-07
4.47878e-07
4.41977e-07
4.38146e-07
4.36592e-07
4.37432e-07
7.59736e-07
7.30928e-07
7.06504e-07
6.81069e-07
6.55417e-07
6.29964e-07
6.0515e-07
5.81381e-07
5.58988e-07
5.38219e-07
5.19257e-07
5.02223e-07
4.872e-07
4.74241e-07
4.63393e-07
4.54708e-07
4.48284e-07
4.44249e-07
4.42949e-07
4.44509e-07
7.27141e-07
7.13612e-07
6.93769e-07
6.72265e-07
6.4982e-07
6.26966e-07
6.04257e-07
5.82134e-07
5.6098e-07
5.41097e-07
5.2272e-07
5.06032e-07
4.9117e-07
4.78246e-07
4.67368e-07
4.58651e-07
4.52262e-07
4.48388e-07
4.47481e-07
4.49661e-07
7.03302e-07
6.94575e-07
6.79187e-07
6.61051e-07
6.41553e-07
6.21132e-07
6.00461e-07
5.80002e-07
5.60176e-07
5.4132e-07
5.23711e-07
5.07569e-07
4.93077e-07
4.80394e-07
4.69673e-07
4.61078e-07
4.54825e-07
4.51136e-07
4.50525e-07
4.53104e-07
6.76578e-07
6.71831e-07
6.60312e-07
6.45517e-07
6.29002e-07
6.11148e-07
5.92694e-07
5.74119e-07
5.55873e-07
5.3832e-07
5.21765e-07
5.06462e-07
4.92624e-07
4.80445e-07
4.70111e-07
4.61822e-07
4.55809e-07
4.52341e-07
4.52027e-07
4.5476e-07
6.48247e-07
6.46517e-07
6.38344e-07
6.26668e-07
6.13038e-07
5.9777e-07
5.81619e-07
5.65064e-07
5.48573e-07
5.32524e-07
5.17242e-07
5.03003e-07
4.90042e-07
4.78575e-07
4.68805e-07
4.60958e-07
4.55244e-07
4.52111e-07
4.51169e-07
4.54495e-07
6.18973e-07
6.1958e-07
6.14261e-07
6.05386e-07
5.94431e-07
5.81658e-07
5.67796e-07
5.53313e-07
5.38675e-07
5.24266e-07
5.10421e-07
4.97422e-07
4.8552e-07
4.74938e-07
4.6589e-07
4.58595e-07
4.53312e-07
4.50329e-07
4.49991e-07
4.52292e-07
5.89257e-07
5.91664e-07
5.88748e-07
5.82333e-07
5.73803e-07
5.63373e-07
5.51726e-07
5.39306e-07
5.26566e-07
5.13881e-07
5.01583e-07
4.89958e-07
4.79253e-07
4.69691e-07
4.61479e-07
4.54824e-07
4.49956e-07
4.47085e-07
4.46606e-07
4.48551e-07
5.59404e-07
5.63175e-07
5.6226e-07
5.57978e-07
5.51616e-07
5.43354e-07
5.33815e-07
5.23412e-07
5.12573e-07
5.01656e-07
4.90982e-07
4.80825e-07
4.71425e-07
4.62991e-07
4.55712e-07
4.4977e-07
4.45356e-07
4.42648e-07
4.41981e-07
4.43314e-07
5.29541e-07
5.34332e-07
5.3507e-07
5.32628e-07
5.282e-07
5.21932e-07
5.14385e-07
5.05936e-07
4.9698e-07
4.87852e-07
4.7885e-07
4.70232e-07
4.6222e-07
4.55002e-07
4.48743e-07
4.43586e-07
4.39677e-07
4.37142e-07
4.36224e-07
4.36853e-07
4.99644e-07
5.05196e-07
5.07304e-07
5.06463e-07
5.03772e-07
4.99347e-07
4.93689e-07
4.87133e-07
4.80037e-07
4.72704e-07
4.65407e-07
4.58381e-07
4.51824e-07
4.45897e-07
4.40734e-07
4.36437e-07
4.33094e-07
4.30771e-07
4.29593e-07
4.29465e-07
4.69571e-07
4.75709e-07
4.78979e-07
4.79562e-07
4.78462e-07
4.75771e-07
4.71925e-07
4.67218e-07
4.61966e-07
4.56436e-07
4.50873e-07
4.45483e-07
4.40435e-07
4.35865e-07
4.31868e-07
4.28506e-07
4.25802e-07
4.23755e-07
4.22356e-07
4.21484e-07
4.39094e-07
4.45727e-07
4.5003e-07
4.51934e-07
4.52345e-07
4.51331e-07
4.49263e-07
4.46392e-07
4.42987e-07
4.39281e-07
4.35482e-07
4.31767e-07
4.28278e-07
4.2512e-07
4.22355e-07
4.2e-07
4.18018e-07
4.16336e-07
4.14805e-07
4.13269e-07
4.0792e-07
4.15046e-07
4.20345e-07
4.23552e-07
4.25469e-07
4.26139e-07
4.25868e-07
4.24861e-07
4.2334e-07
4.21496e-07
4.19503e-07
4.17505e-07
4.15618e-07
4.13918e-07
4.12438e-07
4.11157e-07
4.09982e-07
4.08773e-07
4.07241e-07
4.05183e-07
3.75727e-07
3.83448e-07
3.89803e-07
3.9439e-07
3.97893e-07
4.00329e-07
4.01938e-07
4.02874e-07
4.03309e-07
4.03393e-07
4.03261e-07
4.03026e-07
4.02778e-07
4.0257e-07
4.0241e-07
4.02252e-07
4.0196e-07
4.01334e-07
3.99967e-07
3.97588e-07
3.42204e-07
3.50738e-07
3.58322e-07
3.64468e-07
3.69733e-07
3.741e-07
3.77739e-07
3.80751e-07
3.83258e-07
3.85363e-07
3.87163e-07
3.88741e-07
3.9016e-07
3.91458e-07
3.92628e-07
3.93609e-07
3.94247e-07
3.94301e-07
3.93276e-07
3.90827e-07
3.07125e-07
3.16821e-07
3.25933e-07
3.33933e-07
3.41233e-07
3.47779e-07
3.53667e-07
3.58943e-07
3.63672e-07
3.67915e-07
3.71728e-07
3.75164e-07
3.78265e-07
3.81055e-07
3.83525e-07
3.85615e-07
3.87176e-07
3.87962e-07
3.87446e-07
3.85207e-07
2.70466e-07
2.81817e-07
2.92886e-07
3.03149e-07
3.12855e-07
3.21904e-07
3.30314e-07
3.38075e-07
3.452e-07
3.51702e-07
3.57604e-07
3.6293e-07
3.67702e-07
3.71936e-07
3.75624e-07
3.78728e-07
3.8113e-07
3.82622e-07
3.82724e-07
3.80974e-07
2.32692e-07
2.46327e-07
2.59905e-07
2.72934e-07
2.85478e-07
2.97388e-07
3.08604e-07
3.19064e-07
3.28732e-07
3.37587e-07
3.45619e-07
3.52829e-07
3.59222e-07
3.64806e-07
3.69581e-07
3.73531e-07
3.76594e-07
3.7864e-07
3.79331e-07
3.78276e-07
1.95189e-07
2.11771e-07
2.28451e-07
2.44744e-07
2.60523e-07
2.75587e-07
2.89811e-07
3.03094e-07
3.15366e-07
3.26581e-07
3.36708e-07
3.4573e-07
3.5364e-07
3.60434e-07
3.66113e-07
3.70675e-07
3.74113e-07
3.76408e-07
3.77452e-07
3.7712e-07
1.61968e-07
1.81819e-07
2.01873e-07
2.21584e-07
2.40668e-07
2.5887e-07
2.76023e-07
2.92001e-07
3.06717e-07
3.20114e-07
3.3215e-07
3.42801e-07
3.52044e-07
3.59865e-07
3.66243e-07
3.71169e-07
3.74637e-07
3.76699e-07
3.77431e-07
3.77197e-07
5.30712e-07
5.14988e-07
5.27483e-07
5.57942e-07
5.98495e-07
6.42359e-07
6.83473e-07
7.17368e-07
7.40526e-07
7.46875e-07
4.91146e-07
4.81258e-07
4.95934e-07
5.25681e-07
5.64692e-07
6.07676e-07
6.4968e-07
6.86675e-07
7.15285e-07
7.28199e-07
4.55472e-07
4.50538e-07
4.67261e-07
4.96236e-07
5.33154e-07
5.73725e-07
6.14037e-07
6.51059e-07
6.82125e-07
7.02315e-07
4.22229e-07
4.21487e-07
4.40039e-07
4.68527e-07
5.03881e-07
5.42596e-07
5.81454e-07
6.17984e-07
6.4944e-07
6.7341e-07
3.90719e-07
3.93575e-07
4.13829e-07
4.42002e-07
4.7596e-07
5.12819e-07
5.49968e-07
5.85546e-07
6.16633e-07
6.42848e-07
3.60332e-07
3.66338e-07
3.88256e-07
4.16356e-07
4.49226e-07
4.84449e-07
5.1988e-07
5.54179e-07
5.84318e-07
6.1153e-07
3.30589e-07
3.39399e-07
3.62981e-07
3.91227e-07
4.2328e-07
4.57091e-07
4.90906e-07
5.23824e-07
5.52797e-07
5.80142e-07
3.01096e-07
3.12462e-07
3.37757e-07
3.66363e-07
3.97854e-07
4.30476e-07
4.62814e-07
4.94326e-07
5.22071e-07
5.49003e-07
2.71525e-07
2.85276e-07
3.12378e-07
3.41538e-07
3.72686e-07
4.04318e-07
4.35328e-07
4.65468e-07
4.92009e-07
5.18198e-07
2.41595e-07
2.57639e-07
2.86684e-07
3.16575e-07
3.4755e-07
3.78342e-07
4.08153e-07
4.36976e-07
4.62373e-07
4.87644e-07
2.11074e-07
2.2939e-07
2.60562e-07
2.91329e-07
3.22239e-07
3.52279e-07
3.80976e-07
4.08534e-07
4.3285e-07
4.57127e-07
1.79791e-07
2.00438e-07
2.33961e-07
2.65697e-07
2.96558e-07
3.25851e-07
3.5346e-07
3.79784e-07
4.03078e-07
4.26348e-07
1.47698e-07
1.70812e-07
2.06927e-07
2.3962e-07
2.70318e-07
2.98762e-07
3.25237e-07
3.5033e-07
3.7265e-07
3.94941e-07
1.15052e-07
1.40799e-07
1.79668e-07
2.1311e-07
2.43334e-07
2.70692e-07
2.95908e-07
3.1974e-07
3.41127e-07
3.62501e-07
8.30683e-08
1.11306e-07
1.52706e-07
1.86289e-07
2.15436e-07
2.41299e-07
2.65043e-07
2.8756e-07
3.08065e-07
3.28624e-07
5.66749e-08
8.48672e-08
1.27202e-07
1.59535e-07
1.86548e-07
2.10281e-07
2.32246e-07
2.53374e-07
2.73072e-07
2.9297e-07
5.15436e-08
6.8134e-08
1.0572e-07
1.3386e-07
1.56942e-07
1.77555e-07
1.97283e-07
2.16915e-07
2.35919e-07
2.55382e-07
7.50543e-08
7.13009e-08
9.35816e-08
1.12175e-07
1.28194e-07
1.43939e-07
1.60587e-07
1.78463e-07
1.96877e-07
2.16198e-07
1.0822e-07
9.55108e-08
9.8958e-08
1.01809e-07
1.05705e-07
1.12993e-07
1.24465e-07
1.39662e-07
1.57326e-07
1.7677e-07
1.31122e-07
1.3684e-07
1.27557e-07
1.14621e-07
1.02748e-07
9.61373e-08
9.73858e-08
1.06718e-07
1.22197e-07
1.41545e-07
)
;

boundaryField
{
    left
    {
        type            calculated;
        value           nonuniform List<scalar> 
30
(
5.3169e-07
4.8981e-07
4.52336e-07
4.17612e-07
3.84854e-07
3.53377e-07
3.22651e-07
2.92238e-07
2.6177e-07
2.30934e-07
1.99459e-07
1.67143e-07
1.33907e-07
1.0005e-07
6.73404e-08
4.48978e-08
5.59481e-08
9.24363e-08
1.3281e-07
1.51309e-07
1.98935e-06
1.66088e-06
1.39636e-06
1.18131e-06
1.0145e-06
8.84809e-07
7.82898e-07
7.01423e-07
6.34905e-07
5.7909e-07
)
;
    }
    right
    {
        type            calculated;
        value           nonuniform List<scalar> 
30
(
3.7696e-07
3.77126e-07
3.7925e-07
3.83973e-07
3.9097e-07
3.99682e-07
4.0942e-07
4.19469e-07
4.29143e-07
4.37829e-07
4.4484e-07
4.49952e-07
4.53314e-07
4.54862e-07
4.54432e-07
4.52182e-07
4.48354e-07
4.43013e-07
4.36456e-07
4.28987e-07
4.20947e-07
4.12697e-07
4.04609e-07
3.97047e-07
3.90357e-07
3.84842e-07
3.80743e-07
3.78184e-07
3.77119e-07
3.77066e-07
)
;
    }
    down
    {
        type            calculated;
        value           nonuniform List<scalar> 
30
(
3.2031e-07
3.19427e-07
2.96701e-07
2.56166e-07
2.07797e-07
1.59299e-07
1.18476e-07
9.51071e-08
9.70979e-08
1.1811e-07
1.45942e-07
1.73979e-07
2.01034e-07
2.25996e-07
2.48675e-07
2.69029e-07
2.87162e-07
3.03208e-07
3.17325e-07
3.29659e-07
3.40345e-07
3.49501e-07
3.57226e-07
3.63601e-07
3.6869e-07
3.72551e-07
3.7523e-07
3.76817e-07
3.77381e-07
3.7726e-07
)
;
    }
    up
    {
        type            calculated;
        value           nonuniform List<scalar> 
30
(
1.31196e-07
1.37539e-07
1.26848e-07
1.13015e-07
1.00512e-07
9.34896e-08
9.46084e-08
1.04083e-07
1.19807e-07
1.39495e-07
1.60154e-07
1.80307e-07
2.00634e-07
2.20568e-07
2.39836e-07
2.5819e-07
2.75469e-07
2.91551e-07
3.06352e-07
3.19817e-07
3.31907e-07
3.42599e-07
3.51872e-07
3.59711e-07
3.66098e-07
3.71026e-07
3.74494e-07
3.76566e-07
3.77345e-07
3.77284e-07
)
;
    }
    hole
    {
        type            calculated;
        value           nonuniform List<scalar> 
20
(
1.28228e-06
1.43006e-06
1.57585e-06
1.72031e-06
1.86031e-06
1.98779e-06
2.0907e-06
2.1531e-06
2.15916e-06
2.0849e-06
3.14843e-07
3.14299e-07
3.27009e-07
3.6335e-07
4.32081e-07
5.35668e-07
6.67791e-07
8.17634e-07
9.74466e-07
1.13052e-06
)
;
    }
    frontAndBack
    {
        type            empty;
    }
}


// ************************************************************************* //
