/*--------------------------------*- C++ -*----------------------------------*\
  =========                 |
  \\      /  F ield         | OpenFOAM: The Open Source CFD Toolbox
   \\    /   O peration     | Website:  https://openfoam.org
    \\  /    A nd           | Version:  9
     \\/     M anipulation  |
\*---------------------------------------------------------------------------*/
FoamFile
{
    format      ascii;
    class       volSymmTensorField;
    location    "1";
    object      epsilon;
}
// * * * * * * * * * * * * * * * * * * * * * * * * * * * * * * * * * * * * * //

dimensions      [0 0 0 0 0 0 0];

internalField   nonuniform List<symmTensor> 
1000
(
(4.25766e-07 -9.40782e-07 7.77237e-20 5.7018e-07 8.63689e-20 2.34222e-34)
(7.76647e-07 -6.87966e-07 -1.99015e-21 1.87655e-07 1.49629e-21 0)
(9.37204e-07 -5.07251e-07 2.12199e-21 -2.07125e-08 -8.40858e-22 0)
(1.01158e-06 -3.7351e-07 6.33549e-22 -1.4517e-07 -5.9909e-22 0)
(1.03932e-06 -2.7244e-07 -2.32863e-21 -2.22408e-07 7.99989e-22 0)
(1.04109e-06 -1.94671e-07 -3.57317e-22 -2.71184e-07 4.42602e-22 0)
(1.02809e-06 -1.34022e-07 -1.73395e-21 -3.02119e-07 -8.05265e-22 0)
(1.00671e-06 -8.61531e-08 1.2626e-21 -3.21159e-07 3.66239e-22 0)
(9.80715e-07 -4.8386e-08 -3.56795e-22 -3.32265e-07 -9.39063e-22 0)
(9.52401e-07 -1.44183e-08 0 -3.41382e-07 0 0)
(7.74551e-07 -1.05369e-06 7.58222e-20 5.52572e-07 9.81687e-20 1.33067e-35)
(1.02018e-06 -7.06258e-07 0 2.04586e-07 0 0)
(1.11735e-06 -4.8179e-07 1.40899e-21 1.12112e-08 6.68321e-22 0)
(1.14791e-06 -3.25963e-07 -2.37018e-21 -1.03355e-07 -1.25533e-21 0)
(1.1436e-06 -2.14214e-07 -9.81919e-22 -1.74926e-07 -6.11483e-22 0)
(1.12118e-06 -1.31759e-07 5.46395e-22 -2.20597e-07 9.13603e-22 0)
(1.08949e-06 -6.97901e-08 7.45303e-22 -2.50326e-07 5.20468e-22 0)
(1.0533e-06 -2.25647e-08 1.87997e-21 -2.69676e-07 8.55175e-22 0)
(1.01504e-06 1.38441e-08 0 -2.81729e-07 0 0)
(9.77553e-07 4.60189e-08 0 -2.95379e-07 0 0)
(1.16366e-06 -1.12498e-06 7.21278e-20 4.93895e-07 1.07947e-19 0)
(1.26704e-06 -7.05603e-07 0 2.15369e-07 0 0)
(1.28378e-06 -4.4749e-07 1.31301e-21 5.12954e-08 6.85293e-22 0)
(1.26265e-06 -2.75475e-07 -5.13507e-22 -4.75042e-08 4.11547e-22 0)
(1.22278e-06 -1.56816e-07 -2.71361e-23 -1.11303e-07 2.53043e-23 0)
(1.17489e-06 -7.22418e-08 -4.94776e-22 -1.5342e-07 -8.79087e-22 0)
(1.12431e-06 -1.07479e-08 9.62984e-22 -1.82181e-07 1.78322e-22 0)
(1.07379e-06 3.46406e-08 -6.03506e-22 -2.02242e-07 -4.83007e-22 0)
(1.02423e-06 6.85743e-08 -1.73994e-22 -2.15757e-07 2.70192e-22 0)
(9.78374e-07 9.86643e-08 -1.84424e-22 -2.32349e-07 2.13067e-23 0)
(1.57318e-06 -1.14401e-06 6.12941e-20 4.02022e-07 1.10941e-19 -7.09286e-36)
(1.51004e-06 -6.85606e-07 8.83232e-22 2.19399e-07 -4.58298e-22 0)
(1.43379e-06 -4.08392e-07 -5.82571e-22 9.61813e-08 -3.48384e-22 0)
(1.35527e-06 -2.2794e-07 -4.75336e-22 1.7721e-08 3.57113e-22 0)
(1.27776e-06 -1.06712e-07 5.41445e-22 -3.69364e-08 8.51617e-22 0)
(1.20415e-06 -2.25342e-08 -7.69303e-22 -7.5516e-08 -4.91318e-22 0)
(1.1354e-06 3.70703e-08 -6.49421e-22 -1.03922e-07 -4.72022e-22 0)
(1.07177e-06 7.99461e-08 -1.44156e-21 -1.25451e-07 -1.06557e-21 0)
(1.01245e-06 1.11022e-07 -8.83949e-23 -1.41324e-07 -4.40336e-22 0)
(9.59414e-07 1.38554e-07 2.87135e-22 -1.60283e-07 4.06695e-22 0)
(1.9786e-06 -1.10474e-06 4.92964e-20 2.88778e-07 1.07637e-19 -1.2599e-34)
(1.74095e-06 -6.46816e-07 4.34228e-26 2.15991e-07 -1.97288e-26 0)
(1.5661e-06 -3.68625e-07 -1.89765e-21 1.40382e-07 -7.88863e-22 0)
(1.42795e-06 -1.88952e-07 2.12091e-22 8.48739e-08 -1.51819e-22 0)
(1.31267e-06 -6.98028e-08 -3.23875e-22 3.99398e-08 2.77783e-22 0)
(1.21423e-06 1.16786e-08 4.43516e-22 4.67764e-09 7.12293e-22 0)
(1.1287e-06 6.83954e-08 -1.14878e-22 -2.38783e-08 1.31905e-22 0)
(1.05352e-06 1.08482e-07 6.01068e-22 -4.7392e-08 2.92969e-22 0)
(9.86135e-07 1.368e-07 1.34329e-22 -6.62108e-08 -6.88533e-22 0)
(9.27142e-07 1.61756e-07 -2.02732e-22 -8.74608e-08 -2.03741e-22 0)
(2.35205e-06 -1.00685e-06 3.46891e-20 1.68082e-07 9.7888e-20 -1.27924e-34)
(1.94995e-06 -5.91445e-07 3.6468e-26 2.0407e-07 -1.44066e-26 0)
(1.68036e-06 -3.32036e-07 -2.07714e-26 1.76162e-07 1.12447e-26 0)
(1.48511e-06 -1.62809e-07 1.80509e-22 1.43716e-07 -1.25444e-22 0)
(1.33429e-06 -5.01268e-08 -7.73019e-22 1.08386e-07 -4.11351e-22 0)
(1.21306e-06 2.69091e-08 1.40096e-23 7.63583e-08 -1.39522e-23 0)
(1.1126e-06 8.03686e-08 5.63361e-22 4.76759e-08 3.5214e-22 0)
(1.02744e-06 1.17992e-07 1.13292e-21 2.23586e-08 9.3184e-22 0)
(9.5338e-07 1.44253e-07 2.08619e-22 8.28745e-10 1.60988e-22 0)
(8.89369e-07 1.67146e-07 -3.17814e-22 -2.21294e-08 -3.743e-22 0)
(2.66446e-06 -8.56555e-07 2.54851e-20 5.35749e-08 8.33135e-20 -2.65882e-34)
(2.1291e-06 -5.24281e-07 5.10622e-22 1.8119e-07 -1.73341e-22 0)
(1.78026e-06 -3.023e-07 5.69802e-22 1.93621e-07 1.54887e-22 0)
(1.53581e-06 -1.52152e-07 -1.43836e-22 1.81937e-07 9.89403e-23 0)
(1.3539e-06 -4.94075e-08 4.95663e-22 1.55842e-07 5.14841e-22 0)
(1.21256e-06 2.22468e-08 -4.4512e-22 1.27623e-07 -4.68294e-22 0)
(1.09881e-06 7.2764e-08 2.86677e-22 9.98504e-08 -3.25056e-22 0)
(1.0047e-06 1.08813e-07 -4.3602e-22 7.40204e-08 -2.87267e-22 0)
(9.24602e-07 1.34215e-07 -1.03247e-22 5.11423e-08 1.33396e-22 0)
(8.55802e-07 1.55971e-07 -2.5279e-22 2.78935e-08 -9.42119e-23 0)
(2.88501e-06 -6.67894e-07 1.599e-20 -4.37562e-08 6.45694e-20 -1.04397e-35)
(2.2685e-06 -4.51939e-07 -1.48237e-21 1.42726e-07 -9.88081e-23 0)
(1.86701e-06 -2.80098e-07 1.07424e-23 1.81582e-07 -5.27405e-24 0)
(1.58634e-06 -1.54564e-07 2.07326e-22 1.86342e-07 -1.43509e-22 0)
(1.37988e-06 -6.37565e-08 1.27703e-21 1.69256e-07 5.23336e-22 0)
(1.22174e-06 2.3316e-09 -1.29761e-22 1.46386e-07 1.3246e-22 0)
(1.09634e-06 5.05945e-08 3.98823e-27 1.21846e-07 -4.55661e-27 0)
(9.93904e-07 8.6129e-08 -4.75944e-22 9.81287e-08 -1.39715e-22 0)
(9.07821e-07 1.11938e-07 3.83309e-23 7.65812e-08 -4.81042e-23 0)
(8.33975e-07 1.33569e-07 5.97202e-23 5.54531e-08 -2.70214e-23 0)
(2.9885e-06 -4.60907e-07 7.14279e-21 -1.21436e-07 4.40274e-20 1.03957e-34)
(2.378e-06 -3.88928e-07 -1.59572e-21 7.98251e-08 1.2269e-22 0)
(1.95834e-06 -2.72513e-07 1.47213e-22 1.30962e-07 -6.71774e-23 0)
(1.65648e-06 -1.72841e-07 1.84087e-22 1.46982e-07 -1.28813e-22 0)
(1.43177e-06 -9.36463e-08 -9.82286e-23 1.39063e-07 8.72054e-23 0)
(1.25888e-06 -3.19351e-08 5.03049e-22 1.23899e-07 1.83777e-22 0)
(1.12167e-06 1.55614e-08 6.72711e-23 1.06019e-07 -7.71748e-23 0)
(1.00963e-06 5.20836e-08 8.31241e-22 8.81584e-08 2.55691e-22 0)
(9.1575e-07 7.97395e-08 1.78993e-22 7.16597e-08 6.63607e-23 0)
(8.34994e-07 1.02299e-07 3.87103e-23 5.58065e-08 1.32084e-22 0)
(2.94632e-06 -2.13863e-07 3.0777e-21 -1.64942e-07 2.45132e-20 1.08566e-34)
(2.43598e-06 -2.83198e-07 -4.84154e-23 9.94675e-10 -7.81925e-24 0)
(2.04109e-06 -2.24588e-07 6.23862e-22 4.01757e-08 -9.82454e-23 0)
(1.73776e-06 -1.5352e-07 3.84576e-23 5.54921e-08 -2.71187e-23 0)
(1.50373e-06 -8.89772e-08 1.7633e-27 5.51419e-08 -1.60952e-27 0)
(1.31991e-06 -3.43142e-08 5.77098e-22 5.03265e-08 4.12604e-23 0)
(1.17195e-06 1.00248e-08 2.31161e-23 4.3724e-08 -2.66289e-23 0)
(1.05004e-06 4.54204e-08 4.25575e-22 3.68744e-08 6.68416e-23 0)
(9.47356e-07 7.30904e-08 -1.86104e-23 3.04405e-08 2.16345e-23 0)
(8.58517e-07 9.50811e-08 -1.36822e-23 2.42028e-08 8.02206e-24 0)
(-5.3473e-07 4.88467e-09 2.27504e-20 -1.43379e-07 2.31482e-20 1.37768e-34)
(-5.33379e-07 -4.00021e-09 -3.39461e-22 -1.34979e-07 2.18196e-20 1.80974e-36)
(-4.98467e-07 -1.99755e-08 -3.31532e-22 -1.38187e-07 2.02054e-20 2.25132e-35)
(-4.35409e-07 -3.37257e-08 -2.49596e-24 -1.44507e-07 2.06945e-20 0)
(-3.58001e-07 -4.26647e-08 2.29684e-22 -1.51059e-07 1.98104e-20 -1.7931e-36)
(-2.75301e-07 -4.73863e-08 -6.40026e-22 -1.57034e-07 2.03949e-20 3.73273e-35)
(-1.93474e-07 -4.89365e-08 -1.38961e-22 -1.62196e-07 2.10985e-20 1.77629e-36)
(-1.15707e-07 -4.83212e-08 -5.50401e-22 -1.66568e-07 2.05384e-20 3.36391e-35)
(-4.43013e-08 -4.62223e-08 1.98873e-22 -1.70295e-07 2.05866e-20 -1.45452e-35)
(2.1106e-08 -4.39708e-08 8.31713e-22 -1.73021e-07 2.03053e-20 -4.37207e-35)
(-5.21987e-07 -1.8814e-09 2.41198e-20 -1.46238e-07 3.36087e-21 3.1394e-35)
(-4.86467e-07 -3.62189e-08 3.66995e-22 -1.16666e-07 6.35739e-22 0)
(-4.14063e-07 -7.60376e-08 -3.44954e-22 -1.22296e-07 -5.45349e-22 0)
(-3.28723e-07 -1.07412e-07 1.49342e-22 -1.38359e-07 -4.31474e-22 0)
(-2.4186e-07 -1.2738e-07 0 -1.54922e-07 0 0)
(-1.58997e-07 -1.37813e-07 -7.24985e-22 -1.69023e-07 -1.24526e-22 0)
(-8.26399e-08 -1.41076e-07 -1.44811e-22 -1.80053e-07 6.70727e-22 0)
(-1.33747e-08 -1.39438e-07 -5.79838e-24 -1.88325e-07 3.59302e-23 0)
(4.796e-08 -1.34216e-07 1.28006e-22 -1.9434e-07 -1.20878e-21 0)
(1.03412e-07 -1.28946e-07 2.8747e-22 -1.97784e-07 3.31461e-23 0)
(-5.17401e-07 -2.76983e-08 2.64803e-20 -1.25027e-07 5.19449e-21 -1.46206e-36)
(-4.45678e-07 -9.95052e-08 3.78153e-22 -8.60317e-08 6.27601e-22 0)
(-3.38599e-07 -1.51476e-07 5.37001e-22 -9.8684e-08 1.41473e-22 0)
(-2.29404e-07 -1.86028e-07 1.68228e-22 -1.28534e-07 -4.2301e-22 0)
(-1.29239e-07 -2.04995e-07 0 -1.58766e-07 0 0)
(-4.16118e-08 -2.12622e-07 -7.7503e-22 -1.84177e-07 -2.23553e-22 0)
(3.36929e-08 -2.12259e-07 -1.04604e-21 -2.03713e-07 -3.13564e-22 0)
(9.82065e-08 -2.0662e-07 5.78407e-22 -2.17968e-07 4.67236e-22 0)
(1.52412e-07 -1.97216e-07 -2.16731e-24 -2.27715e-07 1.57051e-23 0)
(2.00339e-07 -1.8828e-07 -5.0421e-22 -2.33301e-07 -4.21475e-22 0)
(-5.11852e-07 -7.31866e-08 3.15573e-20 -6.87424e-08 8.41055e-21 -2.79794e-35)
(-3.88629e-07 -1.806e-07 2.76484e-22 -5.06138e-08 -5.11245e-22 0)
(-2.48121e-07 -2.35926e-07 5.9119e-22 -8.08881e-08 1.36956e-22 0)
(-1.1824e-07 -2.6458e-07 0 -1.26752e-07 0 0)
(-7.40844e-09 -2.75018e-07 -1.2271e-21 -1.69839e-07 4.49356e-22 0)
(8.37095e-08 -2.74278e-07 -3.74018e-22 -2.05112e-07 1.0671e-21 0)
(1.57711e-07 -2.66529e-07 1.67306e-22 -2.31893e-07 -5.74133e-22 0)
(2.17845e-07 -2.5457e-07 2.0676e-22 -2.51251e-07 -8.87484e-22 0)
(2.65611e-07 -2.39818e-07 3.09919e-22 -2.64266e-07 9.92784e-23 0)
(3.06797e-07 -2.2659e-07 5.62878e-22 -2.71779e-07 2.14678e-22 0)
(-4.96348e-07 -1.41178e-07 3.24852e-20 2.06932e-08 1.32104e-20 6.64969e-35)
(-3.05273e-07 -2.70481e-07 -1.31489e-21 -1.16524e-08 7.86159e-22 0)
(-1.32135e-07 -3.19655e-07 -6.08581e-22 -7.02661e-08 -2.07168e-22 0)
(1.34505e-08 -3.356e-07 -4.24886e-22 -1.34472e-07 7.94867e-22 0)
(1.29732e-07 -3.32716e-07 -2.32889e-23 -1.89364e-07 4.93318e-23 0)
(2.20318e-07 -3.20312e-07 1.15524e-21 -2.32473e-07 -3.63226e-22 0)
(2.90296e-07 -3.03005e-07 4.11226e-22 -2.64487e-07 1.00507e-22 0)
(3.44374e-07 -2.83401e-07 0 -2.87291e-07 0 0)
(3.84851e-07 -2.62676e-07 -2.0262e-22 -3.02364e-07 -6.73508e-22 0)
(4.18816e-07 -2.4478e-07 1.79812e-22 -3.10941e-07 3.09443e-23 0)
(-4.5983e-07 -2.34539e-07 3.97341e-20 1.34299e-07 1.71854e-20 -8.4489e-35)
(-1.91594e-07 -3.62289e-07 6.95861e-22 2.85642e-08 -9.65166e-22 0)
(1.09917e-08 -3.94202e-07 -3.71957e-22 -6.58903e-08 -6.40606e-22 0)
(1.65974e-07 -3.9177e-07 2.32623e-22 -1.49202e-07 -3.80353e-22 0)
(2.81659e-07 -3.72811e-07 1.04037e-21 -2.14203e-07 3.66509e-22 0)
(3.66911e-07 -3.47438e-07 -1.19624e-21 -2.62807e-07 2.32841e-22 0)
(4.29376e-07 -3.20032e-07 -1.38022e-23 -2.97834e-07 3.46502e-23 0)
(4.75004e-07 -2.92674e-07 -6.44657e-22 -3.22248e-07 -6.05783e-22 0)
(5.06726e-07 -2.66159e-07 -3.74836e-24 -3.38026e-07 1.37367e-23 0)
(5.32357e-07 -2.43765e-07 -8.07212e-22 -3.46621e-07 -3.80331e-22 0)
(-3.89768e-07 -3.53191e-07 5.06406e-20 2.58473e-07 2.72795e-20 -7.57155e-35)
(-4.7255e-08 -4.50477e-07 3.51841e-23 6.79544e-08 -4.28497e-23 0)
(1.77418e-07 -4.53721e-07 -2.73289e-26 -6.46054e-08 3.57367e-26 0)
(3.34335e-07 -4.28307e-07 -9.29908e-22 -1.65738e-07 -8.66889e-22 0)
(4.43379e-07 -3.9191e-07 -3.93091e-22 -2.38747e-07 6.4091e-22 0)
(5.1874e-07 -3.53564e-07 -9.48663e-22 -2.90727e-07 -4.00294e-22 0)
(5.70395e-07 -3.16611e-07 1.67597e-21 -3.26948e-07 7.84164e-22 0)
(6.05263e-07 -2.82258e-07 -1.11195e-23 -3.51533e-07 2.87041e-23 0)
(6.26789e-07 -2.50763e-07 4.19914e-22 -3.67016e-07 -7.26963e-23 0)
(6.42849e-07 -2.24507e-07 -4.44547e-22 -3.74837e-07 -2.08929e-22 0)
(-2.73858e-07 -4.93077e-07 6.32241e-20 3.77752e-07 3.98027e-20 -1.32776e-34)
(1.25792e-07 -5.3044e-07 8.42981e-22 1.04609e-07 -9.06677e-22 0)
(3.60582e-07 -4.94891e-07 -3.38961e-22 -6.27159e-08 3.93595e-22 0)
(5.10933e-07 -4.43189e-07 2.24169e-22 -1.78249e-07 -2.88091e-22 0)
(6.07535e-07 -3.89031e-07 2.26548e-26 -2.56703e-07 -3.28828e-26 0)
(6.69029e-07 -3.38537e-07 1.26411e-21 -3.10159e-07 -5.70464e-23 0)
(7.07153e-07 -2.93269e-07 2.7491e-22 -3.46207e-07 -5.29275e-22 0)
(7.29439e-07 -2.53249e-07 -1.95826e-22 -3.70017e-07 4.40304e-22 0)
(7.39727e-07 -2.18044e-07 -8.41113e-23 -3.84712e-07 2.21504e-22 0)
(7.45145e-07 -1.88879e-07 2.39694e-22 -3.91311e-07 3.95869e-22 0)
(-1.02097e-07 -6.45936e-07 7.03495e-20 4.77111e-07 5.61555e-20 1.61968e-34)
(3.23977e-07 -5.98428e-07 -5.69055e-22 1.37226e-07 1.65943e-21 0)
(5.52981e-07 -5.16699e-07 -3.04577e-26 -5.65749e-08 3.15727e-26 0)
(6.87531e-07 -4.36989e-07 1.52438e-21 -1.81397e-07 2.49836e-22 0)
(7.66176e-07 -3.65619e-07 1.06092e-21 -2.62399e-07 5.64515e-22 0)
(8.10384e-07 -3.0431e-07 9.56748e-22 -3.15634e-07 4.90484e-22 0)
(8.32789e-07 -2.5229e-07 -2.84317e-22 -3.50519e-07 4.88155e-22 0)
(8.4109e-07 -2.08195e-07 -1.12573e-21 -3.73056e-07 -6.51486e-22 0)
(8.39515e-07 -1.70691e-07 8.45512e-22 -3.86938e-07 1.25222e-23 0)
(8.33856e-07 -1.39753e-07 3.06984e-22 -3.92941e-07 1.8631e-22 0)
(1.31193e-07 -7.99908e-07 7.54624e-20 5.44027e-07 6.99825e-20 2.17696e-35)
(5.42672e-07 -6.51595e-07 -4.88996e-22 1.65059e-07 4.13977e-22 0)
(7.47309e-07 -5.2003e-07 -6.9663e-22 -4.31891e-08 -3.47717e-22 0)
(8.56487e-07 -4.1235e-07 3.23784e-21 -1.7112e-07 4.25419e-22 0)
(9.11995e-07 -3.25082e-07 2.96235e-23 -2.51654e-07 -3.4968e-23 0)
(9.36044e-07 -2.54601e-07 -9.1868e-22 -3.0319e-07 -5.50153e-22 0)
(9.41123e-07 -1.97511e-07 -1.203e-21 -3.36232e-07 9.72824e-23 0)
(9.34658e-07 -1.51038e-07 -3.68006e-22 -3.57154e-07 -2.24726e-22 0)
(9.21336e-07 -1.13372e-07 2.82829e-22 -3.70423e-07 -5.77076e-22 0)
(9.02892e-07 -8.4204e-08 -4.71584e-23 -3.73692e-07 6.30074e-22 0)
(7.91222e-08 -3.93767e-08 8.67282e-22 -1.75729e-07 2.07321e-20 -1.29749e-35)
(1.29713e-07 -3.37577e-08 1.18831e-21 -1.77241e-07 2.0156e-20 -2.8439e-35)
(1.75379e-07 -2.87336e-08 8.07214e-22 -1.78576e-07 1.92293e-20 -1.65519e-35)
(2.16003e-07 -2.41471e-08 6.70148e-22 -1.79729e-07 1.96685e-20 -7.24932e-37)
(2.52108e-07 -1.99969e-08 1.42797e-22 -1.8074e-07 1.97497e-20 4.29796e-35)
(2.84049e-07 -1.62762e-08 6.54736e-22 -1.81631e-07 1.9829e-20 0)
(3.12226e-07 -1.29443e-08 6.16446e-22 -1.82413e-07 1.9783e-20 0)
(3.36989e-07 -9.96502e-09 6.72464e-22 -1.831e-07 2.00078e-20 5.56091e-37)
(3.58659e-07 -7.29581e-09 7.23055e-22 -1.83701e-07 1.97468e-20 -1.45209e-35)
(3.77517e-07 -4.89624e-09 7.11994e-22 -1.84223e-07 2.02092e-20 9.41253e-37)
(3.93807e-07 -2.72574e-09 1.01973e-21 -1.84672e-07 1.97667e-20 -4.39086e-35)
(4.07732e-07 -7.46698e-10 2.34811e-22 -1.85051e-07 1.95748e-20 1.46979e-35)
(4.19459e-07 1.0755e-09 9.50627e-22 -1.85364e-07 1.97159e-20 -4.4286e-35)
(4.29122e-07 2.76823e-09 -1.69667e-23 -1.85609e-07 1.87404e-20 -8.88846e-37)
(4.36828e-07 4.35342e-09 2.32086e-22 -1.85787e-07 1.97983e-20 1.51493e-35)
(4.42668e-07 5.83883e-09 2.62326e-22 -1.85893e-07 1.95443e-20 -3.5852e-45)
(4.4672e-07 7.21e-09 9.65681e-23 -1.85916e-07 1.92483e-20 -1.61721e-37)
(4.49118e-07 8.40954e-09 3.05746e-22 -1.85827e-07 1.98117e-20 1.16022e-37)
(4.49971e-07 9.30011e-09 4.84579e-22 -1.85564e-07 1.90544e-20 -4.57186e-35)
(4.49788e-07 9.59324e-09 2.53967e-20 -1.84942e-07 1.86514e-20 -5.62161e-35)
(1.48683e-07 -1.17835e-07 3.13944e-22 -2.00374e-07 8.92603e-22 0)
(1.85575e-07 -1.04124e-07 4.32973e-22 -2.00052e-07 9.70614e-23 0)
(2.1978e-07 -9.1909e-08 1.46252e-22 -1.992e-07 -2.22381e-22 0)
(2.50544e-07 -8.05109e-08 6.32423e-22 -1.98185e-07 9.17442e-22 0)
(2.78409e-07 -7.00605e-08 -1.97206e-22 -1.97129e-07 -2.50927e-23 0)
(3.03454e-07 -6.0574e-08 -4.62244e-22 -1.96121e-07 -8.48185e-22 0)
(3.25921e-07 -5.19814e-08 3.99205e-22 -1.95185e-07 1.09393e-22 0)
(3.45982e-07 -4.42187e-08 0 -1.94345e-07 0 0)
(3.63821e-07 -3.71986e-08 1.94582e-22 -1.93605e-07 4.40982e-23 0)
(3.79602e-07 -3.08345e-08 3.94346e-22 -1.92962e-07 1.0271e-22 0)
(3.93478e-07 -2.50375e-08 1.08851e-21 -1.92409e-07 4.99003e-22 0)
(4.05585e-07 -1.97241e-08 2.78214e-24 -1.91933e-07 6.56564e-24 0)
(4.16041e-07 -1.48178e-08 2.69906e-22 -1.9152e-07 -1.95962e-22 0)
(4.24954e-07 -1.02549e-08 1.20211e-22 -1.91146e-07 2.76459e-22 0)
(4.32413e-07 -5.9908e-09 1.24408e-22 -1.90779e-07 2.83489e-22 0)
(4.38496e-07 -2.01044e-09 -1.23946e-22 -1.90367e-07 -2.81406e-22 0)
(4.4325e-07 1.65632e-09 -1.25258e-22 -1.89822e-07 -2.83681e-22 0)
(4.46728e-07 4.90388e-09 -2.52435e-22 -1.88996e-07 -5.71302e-22 0)
(4.48802e-07 7.5408e-09 -2.07988e-24 -1.87611e-07 -3.98267e-24 0)
(4.49545e-07 9.13403e-09 2.58465e-20 -1.85176e-07 6.97686e-22 5.80761e-35)
(2.33785e-07 -1.7238e-07 7.02502e-23 -2.35694e-07 2.80985e-22 0)
(2.56808e-07 -1.54016e-07 2.38492e-22 -2.33567e-07 7.97292e-23 0)
(2.79063e-07 -1.37416e-07 -2.46052e-22 -2.30023e-07 -8.0732e-22 0)
(2.99162e-07 -1.21912e-07 -1.41894e-22 -2.26257e-07 1.68723e-22 0)
(3.17885e-07 -1.07514e-07 7.14915e-22 -2.22453e-07 9.13604e-22 0)
(3.35069e-07 -9.43134e-08 -5.0511e-22 -2.18842e-07 -8.46819e-22 0)
(3.50871e-07 -8.22261e-08 -1.06196e-22 -2.15496e-07 -2.80958e-22 0)
(3.65312e-07 -7.12009e-08 2.09442e-22 -2.12474e-07 5.24864e-22 0)
(3.78465e-07 -6.11452e-08 2.03234e-22 -2.09789e-07 -3.9914e-22 0)
(3.90383e-07 -5.19654e-08 -2.28784e-22 -2.0744e-07 -5.4544e-22 0)
(4.01128e-07 -4.35615e-08 2.22598e-22 -2.05407e-07 5.18946e-22 0)
(4.1076e-07 -3.58369e-08 3.47674e-22 -2.03664e-07 7.99792e-22 0)
(4.19337e-07 -2.87017e-08 2.75468e-24 -2.0217e-07 5.97195e-24 0)
(4.26909e-07 -2.20784e-08 -1.212e-22 -2.00869e-07 -2.73532e-22 0)
(4.33515e-07 -1.59076e-08 1.20673e-22 -1.99684e-07 2.71454e-22 0)
(4.39175e-07 -1.01565e-08 1.84623e-29 -1.98494e-07 3.89174e-29 0)
(4.4385e-07 -4.82761e-09 -1.25773e-22 -1.97118e-07 -2.80906e-22 0)
(4.47477e-07 3.43491e-11 -7.731e-23 -1.95273e-07 2.38785e-22 0)
(4.49707e-07 4.33005e-09 -8.88391e-22 -1.92502e-07 8.18428e-23 0)
(4.50545e-07 8.03547e-09 2.61923e-20 -1.88191e-07 3.73483e-22 4.32411e-38)
(3.28937e-07 -2.06992e-07 0 -2.73898e-07 0 0)
(3.38076e-07 -1.86615e-07 2.55286e-22 -2.70236e-07 8.66242e-23 0)
(3.4839e-07 -1.67707e-07 1.01221e-22 -2.6415e-07 2.67999e-22 0)
(3.576e-07 -1.502e-07 1.07435e-22 -2.57824e-07 2.97078e-22 0)
(3.6684e-07 -1.33717e-07 0 -2.51351e-07 0 0)
(3.75693e-07 -1.18475e-07 1.23186e-22 -2.4514e-07 -1.74969e-22 0)
(3.84296e-07 -1.04365e-07 -5.58545e-22 -2.39315e-07 -4.04187e-22 0)
(3.92546e-07 -9.13707e-08 -2.23789e-22 -2.33989e-07 -5.18883e-22 0)
(4.00425e-07 -7.94139e-08 -2.26816e-22 -2.29201e-07 -9.2907e-23 0)
(4.07894e-07 -6.84181e-08 -1.99329e-22 -2.24964e-07 3.92283e-22 0)
(4.14931e-07 -5.82939e-08 -3.09394e-22 -2.21261e-07 1.37117e-22 0)
(4.21517e-07 -4.89511e-08 4.32965e-22 -2.18055e-07 1.41394e-22 0)
(4.27644e-07 -4.03019e-08 5.16937e-22 -2.15291e-07 -7.9755e-23 0)
(4.33297e-07 -3.22646e-08 -9.00593e-23 -2.12889e-07 2.07855e-22 0)
(4.38449e-07 -2.47661e-08 -8.51022e-23 -2.10734e-07 2.18e-22 0)
(4.43055e-07 -1.77471e-08 -1.24831e-22 -2.08665e-07 -2.74257e-22 0)
(4.46999e-07 -1.11609e-08 -2.70674e-29 -2.06452e-07 -5.82116e-29 0)
(4.50151e-07 -4.95783e-09 1.73389e-22 -2.0376e-07 7.91847e-22 0)
(4.5205e-07 8.74849e-10 8.14404e-23 -2.00106e-07 -2.34701e-22 0)
(4.52807e-07 6.77416e-09 2.53331e-20 -1.94874e-07 -4.40255e-22 -8.33452e-35)
(4.29803e-07 -2.22512e-07 -1.75386e-22 -3.12434e-07 4.28219e-22 0)
(4.25088e-07 -2.02645e-07 -2.68042e-22 -3.07703e-07 -1.17857e-22 0)
(4.23752e-07 -1.83228e-07 -5.00192e-22 -2.99273e-07 -6.46788e-22 0)
(4.22159e-07 -1.65588e-07 3.69258e-22 -2.90737e-07 3.38698e-22 0)
(4.21949e-07 -1.48675e-07 9.79984e-22 -2.81842e-07 8.32454e-22 0)
(4.22359e-07 -1.32913e-07 -1.20884e-22 -2.73214e-07 -2.67292e-22 0)
(4.23563e-07 -1.18137e-07 0 -2.65012e-07 0 0)
(4.25337e-07 -1.04386e-07 1.19058e-22 -2.57416e-07 2.55872e-22 0)
(4.27602e-07 -9.16035e-08 -6.82278e-22 -2.50507e-07 -2.40377e-22 0)
(4.30237e-07 -7.97462e-08 -3.47644e-22 -2.44321e-07 -3.41879e-22 0)
(4.33149e-07 -6.87499e-08 2.08792e-22 -2.38859e-07 -3.54383e-22 0)
(4.36253e-07 -5.85442e-08 -2.9733e-23 -2.34089e-07 -4.63e-22 0)
(4.39473e-07 -4.90521e-08 -3.02318e-22 -2.29953e-07 5.52824e-22 0)
(4.42735e-07 -4.01936e-08 1.5284e-22 -2.2636e-07 7.27822e-22 0)
(4.45955e-07 -3.18861e-08 2.1722e-22 -2.23183e-07 6.55142e-23 0)
(4.49032e-07 -2.40419e-08 9.10223e-23 -2.20248e-07 -2.07405e-22 0)
(4.51806e-07 -1.65636e-08 4.27611e-22 -2.17313e-07 1.14127e-22 0)
(4.54116e-07 -9.31162e-09 2.12041e-22 -2.14058e-07 5.25094e-23 0)
(4.55491e-07 -2.19104e-09 6.69672e-22 -2.10046e-07 6.45105e-22 0)
(4.56151e-07 5.60149e-09 2.61873e-20 -2.04728e-07 1.38465e-21 8.18106e-35)
(5.3235e-07 -2.20016e-07 6.03372e-23 -3.47294e-07 2.85334e-22 0)
(5.14055e-07 -2.03214e-07 -7.54662e-25 -3.42508e-07 1.13437e-23 0)
(5.01675e-07 -1.84937e-07 -4.06225e-22 -3.32251e-07 -3.85404e-22 0)
(4.89644e-07 -1.68838e-07 -9.24277e-22 -3.2215e-07 -1.01181e-21 0)
(4.80315e-07 -1.52955e-07 3.82919e-22 -3.11366e-07 3.46771e-22 0)
(4.72467e-07 -1.37999e-07 2.5934e-22 -3.00762e-07 5.18464e-22 0)
(4.66347e-07 -1.23755e-07 -1.2682e-22 -2.9053e-07 -2.52615e-22 0)
(4.61615e-07 -1.1032e-07 -1.1721e-22 -2.80923e-07 1.45297e-22 0)
(4.5815e-07 -9.7674e-08 8.41208e-22 -2.72068e-07 5.56804e-22 0)
(4.55764e-07 -8.58129e-08 -3.67405e-22 -2.64046e-07 -7.47832e-22 0)
(4.54311e-07 -7.47084e-08 -1.30103e-22 -2.56886e-07 -2.68102e-22 0)
(4.53647e-07 -6.43187e-08 1.61119e-22 -2.50578e-07 1.10971e-21 0)
(4.53644e-07 -5.45874e-08 -9.9779e-22 -2.45079e-07 -1.26303e-22 0)
(4.54179e-07 -4.54436e-08 -3.68419e-22 -2.40308e-07 -7.73039e-22 0)
(4.55127e-07 -3.68011e-08 9.68848e-23 -2.36152e-07 -1.91764e-22 0)
(4.56351e-07 -2.85519e-08 -6.90204e-22 -2.32449e-07 -6.63999e-22 0)
(4.57672e-07 -2.05603e-08 -4.34007e-24 -2.28987e-07 -6.28638e-24 0)
(4.58934e-07 -1.2618e-08 5.85642e-22 -2.25494e-07 8.57833e-22 0)
(4.5972e-07 -4.58002e-09 -8.81381e-23 -2.21629e-07 2.20843e-22 0)
(4.60303e-07 4.61691e-09 2.6289e-20 -2.1693e-07 7.34502e-22 -5.85573e-37)
(6.32392e-07 -2.00586e-07 -7.17163e-23 -3.74896e-07 -2.83359e-22 0)
(6.01319e-07 -1.89414e-07 1.58073e-22 -3.71706e-07 2.58128e-22 0)
(5.78952e-07 -1.73848e-07 2.75463e-22 -3.60632e-07 1.48501e-22 0)
(5.57203e-07 -1.6079e-07 -1.45472e-22 -3.49913e-07 -2.57749e-22 0)
(5.39375e-07 -1.47263e-07 -5.24504e-22 -3.38045e-07 -2.54018e-22 0)
(5.23729e-07 -1.34282e-07 2.56558e-22 -3.26104e-07 1.21689e-22 0)
(5.10598e-07 -1.21623e-07 6.41419e-22 -3.14359e-07 5.00801e-22 0)
(4.99556e-07 -1.0944e-07 -1.00751e-21 -3.03139e-07 -8.4669e-22 0)
(4.90449e-07 -9.77683e-08 -6.3045e-22 -2.92644e-07 -5.03142e-22 0)
(4.83043e-07 -8.66529e-08 9.76556e-22 -2.83011e-07 8.12561e-22 0)
(4.77152e-07 -7.61103e-08 -4.71497e-22 -2.74317e-07 -1.91769e-22 0)
(4.72591e-07 -6.61365e-08 3.69752e-22 -2.66591e-07 7.43282e-22 0)
(4.69196e-07 -5.67037e-08 5.89513e-22 -2.59821e-07 4.33421e-22 0)
(4.66809e-07 -4.77593e-08 -1.34249e-22 -2.53959e-07 -6.65547e-22 0)
(4.65276e-07 -3.92231e-08 -4.4143e-22 -2.48921e-07 2.63987e-22 0)
(4.64447e-07 -3.09778e-08 8.51365e-24 -2.44586e-07 1.22025e-23 0)
(4.64148e-07 -2.28667e-08 -8.02279e-22 -2.40795e-07 -9.01416e-22 0)
(4.64243e-07 -1.46405e-08 1.20873e-22 -2.37351e-07 2.60054e-22 0)
(4.64417e-07 -6.12921e-09 3.3664e-22 -2.3403e-07 3.18347e-22 0)
(4.64931e-07 3.88566e-09 2.59112e-20 -2.30483e-07 7.18667e-22 -2.36778e-37)
(7.25418e-07 -1.65768e-07 -2.41189e-24 -3.91854e-07 1.04096e-23 0)
(6.83141e-07 -1.62508e-07 -1.70769e-22 -3.92266e-07 -2.5557e-22 0)
(6.52372e-07 -1.51206e-07 1.17018e-22 -3.82006e-07 -1.05828e-22 0)
(6.22127e-07 -1.42365e-07 0 -3.71816e-07 0 0)
(5.9672e-07 -1.32361e-07 0 -3.59973e-07 0 0)
(5.74066e-07 -1.22345e-07 -5.49054e-22 -3.47605e-07 -6.39954e-22 0)
(5.54498e-07 -1.12191e-07 4.08184e-22 -3.35115e-07 7.11916e-22 0)
(5.37574e-07 -1.02091e-07 9.3046e-22 -3.22896e-07 1.36382e-21 0)
(5.23108e-07 -9.21448e-08 -6.32783e-22 -3.11238e-07 -1.15878e-21 0)
(5.10858e-07 -8.24485e-08 -6.37708e-22 -3.00353e-07 -8.60188e-22 0)
(5.00612e-07 -7.30704e-08 2.4916e-22 -2.90389e-07 4.80707e-22 0)
(4.92169e-07 -6.40511e-08 -1.19697e-22 -2.81437e-07 1.32236e-22 0)
(4.85341e-07 -5.54005e-08 7.09073e-22 -2.73541e-07 2.9197e-22 0)
(4.79954e-07 -4.70943e-08 9.42626e-22 -2.66703e-07 7.64616e-22 0)
(4.75843e-07 -3.90701e-08 1.04789e-23 -2.60894e-07 1.51254e-23 0)
(4.72859e-07 -3.12175e-08 7.83532e-22 -2.56051e-07 -3.48093e-22 0)
(4.70851e-07 -2.33781e-08 0 -2.52092e-07 0 0)
(4.69711e-07 -1.52878e-08 -4.43644e-22 -2.48911e-07 -1.32589e-22 0)
(4.6926e-07 -6.77245e-09 2.16534e-22 -2.46411e-07 5.75838e-23 0)
(4.69694e-07 3.4471e-09 2.61578e-20 -2.44383e-07 8.14116e-22 -6.20113e-37)
(8.07597e-07 -1.18722e-07 2.65851e-24 -3.95646e-07 -9.69995e-24 0)
(7.56062e-07 -1.24949e-07 2.84124e-22 -4.0142e-07 1.74211e-22 0)
(7.18841e-07 -1.19865e-07 -2.78566e-22 -3.95135e-07 -1.79249e-22 0)
(6.8201e-07 -1.1603e-07 -2.74648e-22 -3.8697e-07 -1.73763e-22 0)
(6.50164e-07 -1.1045e-07 6.94495e-22 -3.76342e-07 5.81207e-22 0)
(6.21531e-07 -1.04013e-07 5.36482e-22 -3.64368e-07 3.33602e-22 0)
(5.96291e-07 -9.68942e-08 -6.62305e-22 -3.51776e-07 -5.29112e-22 0)
(5.74103e-07 -8.93456e-08 2.407e-22 -3.391e-07 -2.04752e-22 0)
(5.54758e-07 -8.15671e-08 1.11803e-22 -3.26746e-07 1.87735e-22 0)
(5.38022e-07 -7.37167e-08 -2.41833e-22 -3.15015e-07 2.25746e-22 0)
(5.23681e-07 -6.59163e-08 -7.51466e-22 -3.04127e-07 -3.8062e-22 0)
(5.11527e-07 -5.82502e-08 4.3812e-24 -2.94238e-07 7.69504e-24 0)
(5.0137e-07 -5.07644e-08 -1.15028e-22 -2.85455e-07 -5.97378e-22 0)
(4.93031e-07 -4.34645e-08 -8.22276e-24 -2.7784e-07 -1.21717e-23 0)
(4.86354e-07 -3.63129e-08 4.61832e-22 -2.71428e-07 1.74991e-22 0)
(4.812e-07 -2.92169e-08 -6.62348e-24 -2.66231e-07 -8.47463e-24 0)
(4.77457e-07 -2.20311e-08 2.21947e-22 -2.62253e-07 8.79442e-22 0)
(4.75054e-07 -1.4501e-08 -2.19873e-22 -2.59492e-07 -6.6107e-23 0)
(4.73965e-07 -6.46475e-09 -6.66245e-22 -2.57988e-07 -1.04146e-21 0)
(4.74283e-07 3.32891e-09 2.4902e-20 -2.57688e-07 6.24659e-23 -4.62081e-35)
(8.73326e-07 -5.82051e-08 -4.11162e-23 -3.86854e-07 -1.30638e-23 0)
(8.20083e-07 -7.04733e-08 -3.17824e-22 -3.92921e-07 -1.6702e-22 0)
(7.77856e-07 -7.41822e-08 2.08044e-22 -3.94176e-07 2.29894e-22 0)
(7.37205e-07 -7.65242e-08 -4.57268e-22 -3.90876e-07 -7.53814e-22 0)
(7.00288e-07 -7.71409e-08 -5.195e-22 -3.8425e-07 -6.74404e-22 0)
(6.66675e-07 -7.60338e-08 2.24623e-22 -3.74959e-07 5.40185e-22 0)
(6.36393e-07 -7.35177e-08 1.40086e-22 -3.63948e-07 5.61501e-22 0)
(6.09353e-07 -6.98638e-08 4.21073e-22 -3.51991e-07 6.6538e-22 0)
(5.85414e-07 -6.53576e-08 -6.01838e-22 -3.39723e-07 -5.89334e-22 0)
(5.64402e-07 -6.02492e-08 -1.09292e-23 -3.27642e-07 2.32428e-23 0)
(5.46121e-07 -5.4748e-08 2.64225e-23 -3.16128e-07 -6.6858e-23 0)
(5.30375e-07 -4.90179e-08 -3.59641e-22 -3.05469e-07 -6.55815e-22 0)
(5.16974e-07 -4.31742e-08 0 -2.95878e-07 0 0)
(5.05741e-07 -3.72812e-08 -6.12202e-22 -2.87514e-07 -7.34403e-23 0)
(4.96525e-07 -3.13512e-08 4.7841e-24 -2.805e-07 -1.45501e-23 0)
(4.89205e-07 -2.53348e-08 -7.01144e-22 -2.74937e-07 -2.55001e-22 0)
(4.83709e-07 -1.91238e-08 1.12676e-22 -2.70928e-07 2.21098e-22 0)
(4.80005e-07 -1.25017e-08 4.53215e-22 -2.68588e-07 1.39416e-22 0)
(4.78231e-07 -5.33877e-09 7.72611e-24 -2.68096e-07 -2.33776e-24 0)
(4.78392e-07 3.50929e-09 2.4759e-20 -2.69575e-07 3.10376e-22 -1.93318e-37)
(9.05986e-07 -1.42636e-08 2.41751e-22 -3.73129e-07 3.43324e-22 0)
(8.55592e-07 -1.98339e-08 -3.02775e-22 -3.79586e-07 -1.65193e-22 0)
(8.11461e-07 -3.10426e-08 -1.35418e-22 -3.85687e-07 -1.6788e-22 0)
(7.70213e-07 -3.78027e-08 2.92703e-22 -3.85911e-07 1.55593e-22 0)
(7.31759e-07 -4.25607e-08 -6.72795e-22 -3.82117e-07 -1.44339e-22 0)
(6.96232e-07 -4.53701e-08 -4.42486e-22 -3.75204e-07 -1.16089e-22 0)
(6.63704e-07 -4.65023e-08 -4.18609e-22 -3.66074e-07 -3.67214e-22 0)
(6.34199e-07 -4.62212e-08 1.34561e-22 -3.5554e-07 -9.81074e-23 0)
(6.07687e-07 -4.47865e-08 9.26877e-22 -3.44286e-07 5.94899e-22 0)
(5.84079e-07 -4.24472e-08 -1.76607e-23 -3.32872e-07 -4.46058e-23 0)
(5.6325e-07 -3.94246e-08 5.26563e-22 -3.21749e-07 2.58744e-22 0)
(5.45058e-07 -3.59036e-08 -1.27299e-23 -3.11277e-07 -3.58092e-23 0)
(5.29353e-07 -3.20277e-08 1.16141e-36 -3.01742e-07 2.2777e-36 0)
(5.15995e-07 -2.7895e-08 -2.42893e-22 -2.93376e-07 -9.00018e-23 0)
(5.04864e-07 -2.35538e-08 2.39074e-22 -2.86381e-07 8.40826e-23 0)
(4.95872e-07 -1.8998e-08 -2.90419e-24 -2.80938e-07 -1.81616e-23 0)
(4.88999e-07 -1.41676e-08 1.26947e-22 -2.77243e-07 -1.523e-22 0)
(4.84244e-07 -8.9131e-09 -2.3188e-24 -2.75512e-07 9.18254e-24 0)
(4.81874e-07 -3.15301e-09 -5.06454e-24 -2.76051e-07 4.62555e-24 0)
(4.81792e-07 4.07558e-09 2.50347e-20 -2.79134e-07 1.32442e-22 2.23012e-37)
(8.76e-07 3.0259e-08 2.56492e-22 -3.43903e-07 2.53243e-22 0)
(8.41132e-07 2.28786e-08 0 -3.62758e-07 0 0)
(8.03693e-07 8.89237e-09 -1.72535e-22 -3.71639e-07 -2.44692e-22 0)
(7.6734e-07 -1.08908e-09 2.51395e-36 -3.74785e-07 2.74232e-36 0)
(7.32648e-07 -8.9737e-09 6.43251e-37 -3.73458e-07 5.13907e-37 0)
(6.99825e-07 -1.48505e-08 2.95854e-36 -3.68742e-07 2.57177e-36 0)
(6.69172e-07 -1.89462e-08 4.14325e-36 -3.61557e-07 4.56268e-36 0)
(6.40835e-07 -2.15044e-08 -1.37573e-22 -3.52704e-07 -2.30156e-22 0)
(6.14918e-07 -2.27616e-08 0 -3.42868e-07 0 0)
(5.91453e-07 -2.29493e-08 1.26972e-22 -3.32625e-07 2.26903e-22 0)
(5.70425e-07 -2.22782e-08 1.0665e-38 -3.22451e-07 -6.50851e-37 0)
(5.51785e-07 -2.0932e-08 -1.18456e-22 -3.12741e-07 -2.25141e-22 0)
(5.35465e-07 -1.90605e-08 1.14953e-22 -3.03822e-07 2.24756e-22 0)
(5.21397e-07 -1.67767e-08 2.36409e-36 -2.95973e-07 1.98444e-36 0)
(5.09524e-07 -1.41523e-08 -1.09384e-22 -2.89447e-07 -2.24859e-22 0)
(4.99816e-07 -1.12174e-08 -1.15994e-36 -2.84482e-07 -1.66007e-36 0)
(4.9231e-07 -7.95704e-09 1.05688e-22 -2.81339e-07 2.26039e-22 0)
(4.87055e-07 -4.29919e-09 1.0456e-22 -2.80298e-07 2.27039e-22 0)
(4.84418e-07 -2.23571e-10 -1.50122e-36 -2.8176e-07 -1.77672e-36 0)
(4.84241e-07 4.94084e-09 2.49405e-20 -2.86082e-07 -1.79197e-36 -1.47127e-49)