/*--------------------------------*- C++ -*----------------------------------*\
  =========                 |
  \\      /  F ield         | OpenFOAM: The Open Source CFD Toolbox
   \\    /   O peration     | Website:  https://openfoam.org
    \\  /    A nd           | Version:  9
     \\/     M anipulation  |
\*---------------------------------------------------------------------------*/
FoamFile
{
    format      ascii;
    class       pointVectorField;
    location    "1";
    object      pointD;
}
// * * * * * * * * * * * * * * * * * * * * * * * * * * * * * * * * * * * * * //

dimensions      [0 1 0 0 0 0 0];

internalField   nonuniform List<vector> 
2142
(
(1.33183e-06 1.40567e-07 -1.11498e-20)
(1.20454e-06 2.35363e-07 0)
(1.11578e-06 3.06231e-07 0)
(1.05021e-06 3.64092e-07 0)
(1.00052e-06 4.13435e-07 0)
(9.62068e-07 4.5692e-07 0)
(9.31767e-07 4.962e-07 0)
(9.07492e-07 5.32363e-07 0)
(8.87726e-07 5.66168e-07 0)
(8.71355e-07 5.98127e-07 0)
(8.55936e-07 6.3336e-07 0)
(1.21205e-06 1.03063e-07 -1.23142e-20)
(1.08265e-06 1.86474e-07 0)
(9.93525e-07 2.49721e-07 0)
(9.28372e-07 3.01639e-07 0)
(8.79369e-07 3.46113e-07 0)
(8.4162e-07 3.85405e-07 0)
(8.11936e-07 4.20948e-07 0)
(7.8813e-07 4.53689e-07 0)
(7.68648e-07 4.84302e-07 0)
(7.5234e-07 5.13283e-07 0)
(7.24247e-07 5.29102e-07 0)
(1.08693e-06 6.86419e-08 -1.29967e-20)
(9.59892e-07 1.38576e-07 0)
(8.72813e-07 1.934e-07 0)
(8.09593e-07 2.39102e-07 0)
(7.62331e-07 2.78657e-07 0)
(7.26076e-07 3.13794e-07 0)
(6.97617e-07 3.45659e-07 0)
(6.74768e-07 3.7502e-07 0)
(6.55981e-07 4.02429e-07 0)
(6.40106e-07 4.28336e-07 0)
(6.14827e-07 4.42676e-07 0)
(9.56935e-07 3.81664e-08 -1.30806e-20)
(8.36977e-07 9.33469e-08 0)
(7.5456e-07 1.39243e-07 0)
(6.94921e-07 1.78603e-07 0)
(6.50529e-07 2.1327e-07 0)
(6.16588e-07 2.44343e-07 0)
(5.89988e-07 2.72634e-07 0)
(5.68606e-07 2.98713e-07 0)
(5.50958e-07 3.23006e-07 0)
(5.35933e-07 3.45885e-07 0)
(5.13683e-07 3.58991e-07 0)
(8.22668e-07 1.25086e-08 -1.25289e-20)
(7.14421e-07 5.26076e-08 0)
(6.39388e-07 8.94278e-08 0)
(5.85056e-07 1.22455e-07 0)
(5.44689e-07 1.5231e-07 0)
(5.13883e-07 1.79413e-07 0)
(4.89754e-07 2.04226e-07 0)
(4.70328e-07 2.2711e-07 0)
(4.54231e-07 2.48363e-07 0)
(4.4043e-07 2.68278e-07 0)
(4.21263e-07 2.80264e-07 0)
(6.84792e-07 -7.4096e-09 -1.13763e-20)
(5.92573e-07 1.82741e-08 0)
(5.27579e-07 4.62575e-08 0)
(4.80248e-07 7.30743e-08 0)
(4.45018e-07 9.81947e-08 0)
(4.18114e-07 1.21377e-07 0)
(3.97012e-07 1.42745e-07 0)
(3.79971e-07 1.6246e-07 0)
(3.65781e-07 1.80699e-07 0)
(3.53516e-07 1.97675e-07 0)
(3.37395e-07 2.08505e-07 0)
(5.44092e-07 -2.05823e-08 -9.72932e-21)
(4.71665e-07 -7.69734e-09 0)
(4.19053e-07 1.20667e-08 0)
(3.80232e-07 3.28671e-08 0)
(3.51122e-07 5.32716e-08 0)
(3.28787e-07 7.2478e-08 0)
(3.1119e-07 9.03203e-08 0)
(2.96901e-07 1.06786e-07 0)
(2.84918e-07 1.2195e-07 0)
(2.74465e-07 1.3595e-07 0)
(2.61329e-07 1.4545e-07 0)
(4.01506e-07 -2.59154e-08 -7.74669e-21)
(3.51815e-07 -2.33831e-08 0)
(3.13238e-07 -1.09051e-08 0)
(2.84046e-07 4.09598e-09 0)
(2.61821e-07 1.97021e-08 0)
(2.44596e-07 3.47319e-08 0)
(2.30909e-07 4.8819e-08 0)
(2.19695e-07 6.1823e-08 0)
(2.10203e-07 7.37389e-08 0)
(2.01837e-07 8.46439e-08 0)
(1.91673e-07 9.25028e-08 0)
(2.58384e-07 -2.22367e-08 -5.61451e-21)
(2.33194e-07 -2.70519e-08 0)
(2.09244e-07 -2.08243e-08 0)
(1.90246e-07 -1.14311e-08 0)
(1.75392e-07 -8.27637e-10 0)
(1.6368e-07 9.67125e-09 0)
(1.54241e-07 1.96156e-08 0)
(1.46406e-07 2.88009e-08 0)
(1.39692e-07 3.7176e-08 0)
(1.33707e-07 4.47729e-08 0)
(1.26595e-07 5.05585e-08 0)
(1.19266e-07 -8.62324e-09 -3.53966e-21)
(1.15702e-07 -1.71117e-08 0)
(1.05209e-07 -1.57481e-08 0)
(9.6258e-08 -1.16453e-08 0)
(8.89588e-08 -6.33921e-09 0)
(8.30508e-08 -8.94883e-10 0)
(7.81952e-08 4.32917e-09 0)
(7.4097e-08 9.16323e-09 0)
(7.0536e-08 1.35545e-08 0)
(6.73244e-08 1.75085e-08 0)
(6.35452e-08 2.06477e-08 0)
(2.58413e-08 3.73692e-10 -1.27232e-21)
(0 0 0)
(0 0 0)
(0 0 0)
(0 0 0)
(0 0 0)
(0 0 0)
(0 0 0)
(0 0 0)
(0 0 0)
(0 0 0)
(1.33183e-06 1.40567e-07 -1.11498e-20)
(1.20454e-06 2.35363e-07 0)
(1.11578e-06 3.06231e-07 0)
(1.05021e-06 3.64092e-07 0)
(1.00052e-06 4.13435e-07 0)
(9.62068e-07 4.5692e-07 0)
(9.31767e-07 4.962e-07 0)
(9.07492e-07 5.32363e-07 0)
(8.87726e-07 5.66168e-07 0)
(8.71355e-07 5.98127e-07 0)
(8.55936e-07 6.3336e-07 0)
(1.21205e-06 1.03063e-07 -1.23142e-20)
(1.08265e-06 1.86474e-07 0)
(9.93525e-07 2.49721e-07 0)
(9.28372e-07 3.01639e-07 0)
(8.79369e-07 3.46113e-07 0)
(8.4162e-07 3.85405e-07 0)
(8.11936e-07 4.20948e-07 0)
(7.8813e-07 4.53689e-07 0)
(7.68648e-07 4.84302e-07 0)
(7.5234e-07 5.13283e-07 0)
(7.24247e-07 5.29102e-07 0)
(1.08693e-06 6.86419e-08 -1.29967e-20)
(9.59892e-07 1.38576e-07 0)
(8.72813e-07 1.934e-07 0)
(8.09593e-07 2.39102e-07 0)
(7.62331e-07 2.78657e-07 0)
(7.26076e-07 3.13794e-07 0)
(6.97617e-07 3.45659e-07 0)
(6.74768e-07 3.7502e-07 0)
(6.55981e-07 4.02429e-07 0)
(6.40106e-07 4.28336e-07 0)
(6.14827e-07 4.42676e-07 0)
(9.56935e-07 3.81664e-08 -1.30806e-20)
(8.36977e-07 9.33469e-08 0)
(7.5456e-07 1.39243e-07 0)
(6.94921e-07 1.78603e-07 0)
(6.50529e-07 2.1327e-07 0)
(6.16588e-07 2.44343e-07 0)
(5.89988e-07 2.72634e-07 0)
(5.68606e-07 2.98713e-07 0)
(5.50958e-07 3.23006e-07 0)
(5.35933e-07 3.45885e-07 0)
(5.13683e-07 3.58991e-07 0)
(8.22668e-07 1.25086e-08 -1.25289e-20)
(7.14421e-07 5.26076e-08 0)
(6.39388e-07 8.94278e-08 0)
(5.85056e-07 1.22455e-07 0)
(5.44689e-07 1.5231e-07 0)
(5.13883e-07 1.79413e-07 0)
(4.89754e-07 2.04226e-07 0)
(4.70328e-07 2.2711e-07 0)
(4.54231e-07 2.48363e-07 0)
(4.4043e-07 2.68278e-07 0)
(4.21263e-07 2.80264e-07 0)
(6.84792e-07 -7.4096e-09 -1.13763e-20)
(5.92573e-07 1.82741e-08 0)
(5.27579e-07 4.62575e-08 0)
(4.80248e-07 7.30743e-08 0)
(4.45018e-07 9.81947e-08 0)
(4.18114e-07 1.21377e-07 0)
(3.97012e-07 1.42745e-07 0)
(3.79971e-07 1.6246e-07 0)
(3.65781e-07 1.80699e-07 0)
(3.53516e-07 1.97675e-07 0)
(3.37395e-07 2.08505e-07 0)
(5.44092e-07 -2.05823e-08 -9.72932e-21)
(4.71665e-07 -7.69734e-09 0)
(4.19053e-07 1.20667e-08 0)
(3.80232e-07 3.28671e-08 0)
(3.51122e-07 5.32716e-08 0)
(3.28787e-07 7.2478e-08 0)
(3.1119e-07 9.03203e-08 0)
(2.96901e-07 1.06786e-07 0)
(2.84918e-07 1.2195e-07 0)
(2.74465e-07 1.3595e-07 0)
(2.61329e-07 1.4545e-07 0)
(4.01506e-07 -2.59154e-08 -7.74669e-21)
(3.51815e-07 -2.33831e-08 0)
(3.13238e-07 -1.09051e-08 0)
(2.84046e-07 4.09598e-09 0)
(2.61821e-07 1.97021e-08 0)
(2.44596e-07 3.47319e-08 0)
(2.30909e-07 4.8819e-08 0)
(2.19695e-07 6.1823e-08 0)
(2.10203e-07 7.37389e-08 0)
(2.01837e-07 8.46439e-08 0)
(1.91673e-07 9.25028e-08 0)
(2.58384e-07 -2.22367e-08 -5.61451e-21)
(2.33194e-07 -2.70519e-08 0)
(2.09244e-07 -2.08243e-08 0)
(1.90246e-07 -1.14311e-08 0)
(1.75392e-07 -8.27637e-10 0)
(1.6368e-07 9.67125e-09 0)
(1.54241e-07 1.96156e-08 0)
(1.46406e-07 2.88009e-08 0)
(1.39692e-07 3.7176e-08 0)
(1.33707e-07 4.47729e-08 0)
(1.26595e-07 5.05585e-08 0)
(1.19266e-07 -8.62324e-09 -3.53966e-21)
(1.15702e-07 -1.71117e-08 0)
(1.05209e-07 -1.57481e-08 0)
(9.6258e-08 -1.16453e-08 0)
(8.89588e-08 -6.33921e-09 0)
(8.30508e-08 -8.94883e-10 0)
(7.81952e-08 4.32917e-09 0)
(7.4097e-08 9.16323e-09 0)
(7.0536e-08 1.35545e-08 0)
(6.73244e-08 1.75085e-08 0)
(6.35452e-08 2.06477e-08 0)
(2.58413e-08 3.73692e-10 -1.27232e-21)
(0 0 0)
(0 0 0)
(0 0 0)
(0 0 0)
(0 0 0)
(0 0 0)
(0 0 0)
(0 0 0)
(0 0 0)
(0 0 0)
(2.20037e-06 4.80381e-07 -2.10305e-21)
(2.19825e-06 5.53541e-07 -1.79321e-21)
(2.16946e-06 6.46111e-07 -1.95417e-21)
(2.14099e-06 7.32268e-07 -2.11179e-21)
(2.11523e-06 8.11161e-07 -2.26575e-21)
(2.09342e-06 8.83316e-07 -2.41685e-21)
(2.07607e-06 9.49706e-07 -2.56581e-21)
(2.06322e-06 1.01138e-06 -2.71334e-21)
(2.05471e-06 1.06929e-06 -2.85998e-21)
(2.05016e-06 1.12429e-06 -3.00612e-21)
(2.0493e-06 1.17688e-06 -3.10925e-21)
(2.15231e-06 4.48483e-07 -2.5573e-21)
(2.11814e-06 5.44358e-07 0)
(2.08519e-06 6.36376e-07 0)
(2.05513e-06 7.21754e-07 0)
(2.02908e-06 7.9979e-07 0)
(2.00749e-06 8.71055e-07 0)
(1.99038e-06 9.3654e-07 0)
(1.97754e-06 9.97296e-07 0)
(1.96868e-06 1.05428e-06 0)
(1.96338e-06 1.10835e-06 0)
(1.96264e-06 1.16027e-06 0)
(2.07954e-06 4.31408e-07 -2.71645e-21)
(2.03756e-06 5.29115e-07 0)
(1.99857e-06 6.2087e-07 0)
(1.96443e-06 7.0525e-07 0)
(1.93574e-06 7.82034e-07 0)
(1.91239e-06 8.51998e-07 0)
(1.89399e-06 9.16199e-07 0)
(1.88003e-06 9.75708e-07 0)
(1.87002e-06 1.03148e-06 0)
(1.86344e-06 1.08436e-06 0)
(1.86282e-06 1.13558e-06 0)
(2.00455e-06 4.06773e-07 -2.98544e-21)
(1.95317e-06 5.08194e-07 0)
(1.90705e-06 6e-07 0)
(1.86773e-06 6.83116e-07 0)
(1.83534e-06 7.58116e-07 0)
(1.8093e-06 8.2618e-07 0)
(1.78884e-06 8.88524e-07 0)
(1.77314e-06 9.46266e-07 0)
(1.76152e-06 1.00036e-06 0)
(1.75331e-06 1.05166e-06 0)
(1.75284e-06 1.10207e-06 0)
(1.92553e-06 3.76166e-07 -3.4539e-21)
(1.86315e-06 4.81896e-07 0)
(1.80933e-06 5.73648e-07 0)
(1.7645e-06 6.55103e-07 0)
(1.72814e-06 7.27798e-07 0)
(1.69914e-06 7.93412e-07 0)
(1.67633e-06 8.53365e-07 0)
(1.65865e-06 9.08845e-07 0)
(1.64523e-06 9.60816e-07 0)
(1.63526e-06 1.01012e-06 0)
(1.63502e-06 1.0596e-06 0)
(1.84144e-06 3.41036e-07 -4.19125e-21)
(1.76676e-06 4.50539e-07 0)
(1.70509e-06 5.41686e-07 0)
(1.65492e-06 6.20927e-07 0)
(1.61477e-06 6.90799e-07 0)
(1.58294e-06 7.53476e-07 0)
(1.55786e-06 8.10581e-07 0)
(1.53824e-06 8.63371e-07 0)
(1.52303e-06 9.12817e-07 0)
(1.51134e-06 9.59739e-07 0)
(1.51145e-06 1.00819e-06 0)
(1.75165e-06 3.02698e-07 -5.23155e-21)
(1.66402e-06 4.14497e-07 0)
(1.59478e-06 5.04099e-07 0)
(1.53975e-06 5.80451e-07 0)
(1.49626e-06 6.47e-07 0)
(1.46196e-06 7.06334e-07 0)
(1.43489e-06 7.60235e-07 0)
(1.41355e-06 8.10003e-07 0)
(1.39675e-06 8.56609e-07 0)
(1.3835e-06 9.00845e-07 0)
(1.38411e-06 9.48188e-07 0)
(1.65586e-06 2.62372e-07 -6.55575e-21)
(1.55548e-06 3.74242e-07 0)
(1.47935e-06 4.61106e-07 0)
(1.42017e-06 5.33834e-07 0)
(1.37396e-06 5.96599e-07 0)
(1.33769e-06 6.52262e-07 0)
(1.30905e-06 7.02692e-07 0)
(1.28631e-06 7.492e-07 0)
(1.2682e-06 7.92733e-07 0)
(1.25364e-06 8.34045e-07 0)
(1.25494e-06 8.80233e-07 0)
(1.55393e-06 2.212e-07 -8.08295e-21)
(1.44201e-06 3.30393e-07 0)
(1.36008e-06 4.13203e-07 0)
(1.29765e-06 4.81589e-07 0)
(1.24945e-06 5.40169e-07 0)
(1.21179e-06 5.91911e-07 0)
(1.18204e-06 6.38692e-07 0)
(1.15832e-06 6.81788e-07 0)
(1.13924e-06 7.221e-07 0)
(1.1237e-06 7.60321e-07 0)
(1.12583e-06 8.05279e-07 0)
(1.44587e-06 1.80261e-07 -9.67465e-21)
(1.32467e-06 2.83757e-07 0)
(1.23841e-06 3.61203e-07 0)
(1.1738e-06 4.24596e-07 0)
(1.12441e-06 4.78671e-07 0)
(1.086e-06 5.26327e-07 0)
(1.05568e-06 5.69365e-07 0)
(1.03143e-06 6.08982e-07 0)
(1.01179e-06 6.46007e-07 0)
(9.95656e-07 6.81026e-07 0)
(9.98668e-07 7.24615e-07 0)
(2.20037e-06 4.80381e-07 -2.10305e-21)
(2.19825e-06 5.53541e-07 -1.79321e-21)
(2.16946e-06 6.46111e-07 -1.95417e-21)
(2.14099e-06 7.32268e-07 -2.11179e-21)
(2.11523e-06 8.11161e-07 -2.26575e-21)
(2.09342e-06 8.83316e-07 -2.41685e-21)
(2.07607e-06 9.49706e-07 -2.56581e-21)
(2.06322e-06 1.01138e-06 -2.71334e-21)
(2.05471e-06 1.06929e-06 -2.85998e-21)
(2.05016e-06 1.12429e-06 -3.00612e-21)
(2.0493e-06 1.17688e-06 -3.10925e-21)
(2.15231e-06 4.48483e-07 -2.5573e-21)
(2.11814e-06 5.44358e-07 0)
(2.08519e-06 6.36376e-07 0)
(2.05513e-06 7.21754e-07 0)
(2.02908e-06 7.9979e-07 0)
(2.00749e-06 8.71055e-07 0)
(1.99038e-06 9.3654e-07 0)
(1.97754e-06 9.97296e-07 0)
(1.96868e-06 1.05428e-06 0)
(1.96338e-06 1.10835e-06 0)
(1.96264e-06 1.16027e-06 0)
(2.07954e-06 4.31408e-07 -2.71645e-21)
(2.03756e-06 5.29115e-07 0)
(1.99857e-06 6.2087e-07 0)
(1.96443e-06 7.0525e-07 0)
(1.93574e-06 7.82034e-07 0)
(1.91239e-06 8.51998e-07 0)
(1.89399e-06 9.16199e-07 0)
(1.88003e-06 9.75708e-07 0)
(1.87002e-06 1.03148e-06 0)
(1.86344e-06 1.08436e-06 0)
(1.86282e-06 1.13558e-06 0)
(2.00455e-06 4.06773e-07 -2.98544e-21)
(1.95317e-06 5.08194e-07 0)
(1.90705e-06 6e-07 0)
(1.86773e-06 6.83116e-07 0)
(1.83534e-06 7.58116e-07 0)
(1.8093e-06 8.2618e-07 0)
(1.78884e-06 8.88524e-07 0)
(1.77314e-06 9.46266e-07 0)
(1.76152e-06 1.00036e-06 0)
(1.75331e-06 1.05166e-06 0)
(1.75284e-06 1.10207e-06 0)
(1.92553e-06 3.76166e-07 -3.4539e-21)
(1.86315e-06 4.81896e-07 0)
(1.80933e-06 5.73648e-07 0)
(1.7645e-06 6.55103e-07 0)
(1.72814e-06 7.27798e-07 0)
(1.69914e-06 7.93412e-07 0)
(1.67633e-06 8.53365e-07 0)
(1.65865e-06 9.08845e-07 0)
(1.64523e-06 9.60816e-07 0)
(1.63526e-06 1.01012e-06 0)
(1.63502e-06 1.0596e-06 0)
(1.84144e-06 3.41036e-07 -4.19125e-21)
(1.76676e-06 4.50539e-07 0)
(1.70509e-06 5.41686e-07 0)
(1.65492e-06 6.20927e-07 0)
(1.61477e-06 6.90799e-07 0)
(1.58294e-06 7.53476e-07 0)
(1.55786e-06 8.10581e-07 0)
(1.53824e-06 8.63371e-07 0)
(1.52303e-06 9.12817e-07 0)
(1.51134e-06 9.59739e-07 0)
(1.51145e-06 1.00819e-06 0)
(1.75165e-06 3.02698e-07 -5.23155e-21)
(1.66402e-06 4.14497e-07 0)
(1.59478e-06 5.04099e-07 0)
(1.53975e-06 5.80451e-07 0)
(1.49626e-06 6.47e-07 0)
(1.46196e-06 7.06334e-07 0)
(1.43489e-06 7.60235e-07 0)
(1.41355e-06 8.10003e-07 0)
(1.39675e-06 8.56609e-07 0)
(1.3835e-06 9.00845e-07 0)
(1.38411e-06 9.48188e-07 0)
(1.65586e-06 2.62372e-07 -6.55575e-21)
(1.55548e-06 3.74242e-07 0)
(1.47935e-06 4.61106e-07 0)
(1.42017e-06 5.33834e-07 0)
(1.37396e-06 5.96599e-07 0)
(1.33769e-06 6.52262e-07 0)
(1.30905e-06 7.02692e-07 0)
(1.28631e-06 7.492e-07 0)
(1.2682e-06 7.92733e-07 0)
(1.25364e-06 8.34045e-07 0)
(1.25494e-06 8.80233e-07 0)
(1.55393e-06 2.212e-07 -8.08295e-21)
(1.44201e-06 3.30393e-07 0)
(1.36008e-06 4.13203e-07 0)
(1.29765e-06 4.81589e-07 0)
(1.24945e-06 5.40169e-07 0)
(1.21179e-06 5.91911e-07 0)
(1.18204e-06 6.38692e-07 0)
(1.15832e-06 6.81788e-07 0)
(1.13924e-06 7.221e-07 0)
(1.1237e-06 7.60321e-07 0)
(1.12583e-06 8.05279e-07 0)
(1.44587e-06 1.80261e-07 -9.67465e-21)
(1.32467e-06 2.83757e-07 0)
(1.23841e-06 3.61203e-07 0)
(1.1738e-06 4.24596e-07 0)
(1.12441e-06 4.78671e-07 0)
(1.086e-06 5.26327e-07 0)
(1.05568e-06 5.69365e-07 0)
(1.03143e-06 6.08982e-07 0)
(1.01179e-06 6.46007e-07 0)
(9.95656e-07 6.81026e-07 0)
(9.98668e-07 7.24615e-07 0)
(2.05189e-06 1.2278e-06 -3.12653e-21)
(2.05743e-06 1.2777e-06 -3.10123e-21)
(2.06553e-06 1.32673e-06 -3.07692e-21)
(2.07589e-06 1.37519e-06 -3.05355e-21)
(2.08823e-06 1.42332e-06 -3.03106e-21)
(2.10232e-06 1.47129e-06 -3.00938e-21)
(2.11794e-06 1.51926e-06 -2.98844e-21)
(2.13489e-06 1.56735e-06 -2.96817e-21)
(2.153e-06 1.61565e-06 -2.9485e-21)
(2.17211e-06 1.66424e-06 -2.92939e-21)
(2.19208e-06 1.71317e-06 -2.9108e-21)
(2.21279e-06 1.7625e-06 -2.89269e-21)
(2.2341e-06 1.81225e-06 -2.87502e-21)
(2.2559e-06 1.86245e-06 -2.85778e-21)
(2.27809e-06 1.91309e-06 -2.84091e-21)
(2.30056e-06 1.96417e-06 -2.82438e-21)
(2.3232e-06 2.01564e-06 -2.80816e-21)
(2.34589e-06 2.06745e-06 -2.7922e-21)
(2.36854e-06 2.1195e-06 -2.77634e-21)
(2.36737e-06 2.1553e-06 -8.18752e-23)
(1.96737e-06 1.2111e-06 0)
(1.9756e-06 1.26117e-06 0)
(1.98585e-06 1.31036e-06 0)
(1.99789e-06 1.35898e-06 0)
(2.01155e-06 1.40726e-06 0)
(2.02664e-06 1.45539e-06 0)
(2.04301e-06 1.50352e-06 0)
(2.06052e-06 1.55177e-06 0)
(2.07902e-06 1.60023e-06 0)
(2.09839e-06 1.64899e-06 0)
(2.11853e-06 1.69811e-06 0)
(2.13933e-06 1.74762e-06 0)
(2.16069e-06 1.79757e-06 0)
(2.18251e-06 1.84796e-06 0)
(2.20473e-06 1.89881e-06 0)
(2.22724e-06 1.95011e-06 0)
(2.24998e-06 2.00181e-06 0)
(2.27287e-06 2.05386e-06 0)
(2.29583e-06 2.10617e-06 0)
(2.31862e-06 2.15858e-06 2.62973e-21)
(1.87051e-06 1.18672e-06 0)
(1.88256e-06 1.23756e-06 0)
(1.89602e-06 1.28747e-06 0)
(1.91075e-06 1.33676e-06 0)
(1.92665e-06 1.38567e-06 0)
(1.94361e-06 1.4344e-06 0)
(1.96154e-06 1.4831e-06 0)
(1.98033e-06 1.5319e-06 0)
(1.99991e-06 1.5809e-06 0)
(2.02018e-06 1.63019e-06 0)
(2.04108e-06 1.67983e-06 0)
(2.06252e-06 1.72987e-06 0)
(2.08445e-06 1.78034e-06 0)
(2.1068e-06 1.83126e-06 0)
(2.12951e-06 1.88265e-06 0)
(2.15251e-06 1.9345e-06 0)
(2.17576e-06 1.98678e-06 0)
(2.19919e-06 2.03945e-06 0)
(2.22272e-06 2.09244e-06 0)
(2.24592e-06 2.1456e-06 2.65706e-21)
(1.76406e-06 1.15393e-06 0)
(1.78071e-06 1.20616e-06 0)
(1.79815e-06 1.25739e-06 0)
(1.81631e-06 1.30792e-06 0)
(1.83515e-06 1.35799e-06 0)
(1.85464e-06 1.40781e-06 0)
(1.87473e-06 1.45755e-06 0)
(1.89538e-06 1.50734e-06 0)
(1.91656e-06 1.55729e-06 0)
(1.93823e-06 1.6075e-06 0)
(1.96034e-06 1.65804e-06 0)
(1.98287e-06 1.70896e-06 0)
(2.00577e-06 1.76031e-06 0)
(2.029e-06 1.81211e-06 0)
(2.05253e-06 1.86438e-06 0)
(2.07633e-06 1.91713e-06 0)
(2.10035e-06 1.97035e-06 0)
(2.12453e-06 2.02402e-06 0)
(2.14883e-06 2.07811e-06 0)
(2.17262e-06 2.13252e-06 2.69262e-21)
(1.65017e-06 1.11256e-06 0)
(1.67198e-06 1.1668e-06 0)
(1.69396e-06 1.21995e-06 0)
(1.71608e-06 1.27228e-06 0)
(1.73839e-06 1.32404e-06 0)
(1.76089e-06 1.37546e-06 0)
(1.78362e-06 1.42671e-06 0)
(1.80658e-06 1.47794e-06 0)
(1.82978e-06 1.52927e-06 0)
(1.85322e-06 1.5808e-06 0)
(1.87691e-06 1.63262e-06 0)
(1.90084e-06 1.6848e-06 0)
(1.925e-06 1.73737e-06 0)
(1.94939e-06 1.79039e-06 0)
(1.97398e-06 1.84389e-06 0)
(1.99878e-06 1.89789e-06 0)
(2.02374e-06 1.9524e-06 0)
(2.04885e-06 2.00743e-06 0)
(2.07404e-06 2.06298e-06 0)
(2.09858e-06 2.11899e-06 2.73786e-21)
(1.53084e-06 1.06265e-06 0)
(1.55818e-06 1.11949e-06 0)
(1.58508e-06 1.17514e-06 0)
(1.61154e-06 1.22982e-06 0)
(1.63768e-06 1.28381e-06 0)
(1.66356e-06 1.33733e-06 0)
(1.68927e-06 1.39056e-06 0)
(1.71486e-06 1.44367e-06 0)
(1.74038e-06 1.4968e-06 0)
(1.76588e-06 1.55006e-06 0)
(1.7914e-06 1.60355e-06 0)
(1.81696e-06 1.65734e-06 0)
(1.84259e-06 1.7115e-06 0)
(1.86831e-06 1.76609e-06 0)
(1.89414e-06 1.82114e-06 0)
(1.92007e-06 1.87671e-06 0)
(1.9461e-06 1.93282e-06 0)
(1.97222e-06 1.98953e-06 0)
(1.9984e-06 2.04685e-06 0)
(2.02384e-06 2.10475e-06 2.79354e-21)
(1.40791e-06 1.00452e-06 0)
(1.44099e-06 1.0645e-06 0)
(1.47303e-06 1.12319e-06 0)
(1.50406e-06 1.18074e-06 0)
(1.53427e-06 1.23745e-06 0)
(1.56377e-06 1.29354e-06 0)
(1.59269e-06 1.34921e-06 0)
(1.62113e-06 1.40465e-06 0)
(1.64918e-06 1.45999e-06 0)
(1.67693e-06 1.51537e-06 0)
(1.70445e-06 1.5709e-06 0)
(1.7318e-06 1.62666e-06 0)
(1.75904e-06 1.68275e-06 0)
(1.78621e-06 1.73923e-06 0)
(1.81335e-06 1.79616e-06 0)
(1.8405e-06 1.8536e-06 0)
(1.86766e-06 1.91161e-06 0)
(1.89485e-06 1.97025e-06 0)
(1.92207e-06 2.02959e-06 0)
(1.94852e-06 2.08961e-06 2.86008e-21)
(1.28317e-06 9.38736e-07 0)
(1.32201e-06 1.00233e-06 0)
(1.35926e-06 1.06452e-06 0)
(1.39495e-06 1.1254e-06 0)
(1.42935e-06 1.18528e-06 0)
(1.46259e-06 1.24438e-06 0)
(1.49485e-06 1.30292e-06 0)
(1.52627e-06 1.36108e-06 0)
(1.55698e-06 1.41902e-06 0)
(1.58709e-06 1.4769e-06 0)
(1.61671e-06 1.53482e-06 0)
(1.64594e-06 1.59291e-06 0)
(1.67486e-06 1.65126e-06 0)
(1.70354e-06 1.70994e-06 0)
(1.73204e-06 1.76904e-06 0)
(1.76042e-06 1.82863e-06 0)
(1.78873e-06 1.88879e-06 0)
(1.81701e-06 1.9496e-06 0)
(1.84526e-06 2.01115e-06 0)
(1.87281e-06 2.07346e-06 2.9379e-21)
(1.15839e-06 8.66155e-07 0)
(1.20283e-06 9.3369e-07 0)
(1.2452e-06 9.99742e-07 0)
(1.28551e-06 1.06433e-06 0)
(1.32408e-06 1.12776e-06 0)
(1.36108e-06 1.19025e-06 0)
(1.39672e-06 1.25202e-06 0)
(1.43116e-06 1.31327e-06 0)
(1.46456e-06 1.37418e-06 0)
(1.49708e-06 1.4349e-06 0)
(1.52884e-06 1.49556e-06 0)
(1.55997e-06 1.55629e-06 0)
(1.59058e-06 1.6172e-06 0)
(1.62077e-06 1.67838e-06 0)
(1.65063e-06 1.73992e-06 0)
(1.68023e-06 1.80191e-06 0)
(1.70966e-06 1.86444e-06 0)
(1.73898e-06 1.92761e-06 0)
(1.76824e-06 1.99153e-06 0)
(1.79693e-06 2.05625e-06 3.02745e-21)
(1.03522e-06 7.87898e-07 0)
(1.08486e-06 8.5952e-07 0)
(1.13204e-06 9.29612e-07 0)
(1.17682e-06 9.98186e-07 0)
(1.21946e-06 1.06546e-06 0)
(1.26016e-06 1.13166e-06 0)
(1.29913e-06 1.19698e-06 0)
(1.33657e-06 1.26165e-06 0)
(1.37266e-06 1.32583e-06 0)
(1.40756e-06 1.3897e-06 0)
(1.44145e-06 1.4534e-06 0)
(1.47446e-06 1.51707e-06 0)
(1.50673e-06 1.58082e-06 0)
(1.53839e-06 1.64477e-06 0)
(1.56955e-06 1.709e-06 0)
(1.60031e-06 1.77361e-06 0)
(1.63079e-06 1.83872e-06 0)
(1.66107e-06 1.90442e-06 0)
(1.69127e-06 1.97083e-06 0)
(1.72111e-06 2.03804e-06 3.12917e-21)
(9.23921e-07 7.20387e-07 0)
(9.77359e-07 7.95073e-07 0)
(1.02811e-06 8.6814e-07 0)
(1.0763e-06 9.39779e-07 0)
(1.12214e-06 1.01012e-06 0)
(1.1658e-06 1.07936e-06 0)
(1.20749e-06 1.14766e-06 0)
(1.24739e-06 1.21522e-06 0)
(1.2857e-06 1.28221e-06 0)
(1.32259e-06 1.3488e-06 0)
(1.35824e-06 1.41513e-06 0)
(1.3928e-06 1.48133e-06 0)
(1.42645e-06 1.54752e-06 0)
(1.4593e-06 1.61381e-06 0)
(1.49151e-06 1.6803e-06 0)
(1.5232e-06 1.74709e-06 0)
(1.5545e-06 1.81428e-06 0)
(1.58552e-06 1.88197e-06 0)
(1.61641e-06 1.95027e-06 0)
(1.6472e-06 2.01934e-06 3.2105e-21)
(2.05189e-06 1.2278e-06 -3.12653e-21)
(2.05743e-06 1.2777e-06 -3.10123e-21)
(2.06553e-06 1.32673e-06 -3.07692e-21)
(2.07589e-06 1.37519e-06 -3.05355e-21)
(2.08823e-06 1.42332e-06 -3.03106e-21)
(2.10232e-06 1.47129e-06 -3.00938e-21)
(2.11794e-06 1.51926e-06 -2.98844e-21)
(2.13489e-06 1.56735e-06 -2.96817e-21)
(2.153e-06 1.61565e-06 -2.9485e-21)
(2.17211e-06 1.66424e-06 -2.92939e-21)
(2.19208e-06 1.71317e-06 -2.9108e-21)
(2.21279e-06 1.7625e-06 -2.89269e-21)
(2.2341e-06 1.81225e-06 -2.87502e-21)
(2.2559e-06 1.86245e-06 -2.85778e-21)
(2.27809e-06 1.91309e-06 -2.84091e-21)
(2.30056e-06 1.96417e-06 -2.82438e-21)
(2.3232e-06 2.01564e-06 -2.80816e-21)
(2.34589e-06 2.06745e-06 -2.7922e-21)
(2.36854e-06 2.1195e-06 -2.77634e-21)
(2.36737e-06 2.1553e-06 -8.18752e-23)
(1.96737e-06 1.2111e-06 0)
(1.9756e-06 1.26117e-06 0)
(1.98585e-06 1.31036e-06 0)
(1.99789e-06 1.35898e-06 0)
(2.01155e-06 1.40726e-06 0)
(2.02664e-06 1.45539e-06 0)
(2.04301e-06 1.50352e-06 0)
(2.06052e-06 1.55177e-06 0)
(2.07902e-06 1.60023e-06 0)
(2.09839e-06 1.64899e-06 0)
(2.11853e-06 1.69811e-06 0)
(2.13933e-06 1.74762e-06 0)
(2.16069e-06 1.79757e-06 0)
(2.18251e-06 1.84796e-06 0)
(2.20473e-06 1.89881e-06 0)
(2.22724e-06 1.95011e-06 0)
(2.24998e-06 2.00181e-06 0)
(2.27287e-06 2.05386e-06 0)
(2.29583e-06 2.10617e-06 0)
(2.31862e-06 2.15858e-06 2.62973e-21)
(1.87051e-06 1.18672e-06 0)
(1.88256e-06 1.23756e-06 0)
(1.89602e-06 1.28747e-06 0)
(1.91075e-06 1.33676e-06 0)
(1.92665e-06 1.38567e-06 0)
(1.94361e-06 1.4344e-06 0)
(1.96154e-06 1.4831e-06 0)
(1.98033e-06 1.5319e-06 0)
(1.99991e-06 1.5809e-06 0)
(2.02018e-06 1.63019e-06 0)
(2.04108e-06 1.67983e-06 0)
(2.06252e-06 1.72987e-06 0)
(2.08445e-06 1.78034e-06 0)
(2.1068e-06 1.83126e-06 0)
(2.12951e-06 1.88265e-06 0)
(2.15251e-06 1.9345e-06 0)
(2.17576e-06 1.98678e-06 0)
(2.19919e-06 2.03945e-06 0)
(2.22272e-06 2.09244e-06 0)
(2.24592e-06 2.1456e-06 2.65706e-21)
(1.76406e-06 1.15393e-06 0)
(1.78071e-06 1.20616e-06 0)
(1.79815e-06 1.25739e-06 0)
(1.81631e-06 1.30792e-06 0)
(1.83515e-06 1.35799e-06 0)
(1.85464e-06 1.40781e-06 0)
(1.87473e-06 1.45755e-06 0)
(1.89538e-06 1.50734e-06 0)
(1.91656e-06 1.55729e-06 0)
(1.93823e-06 1.6075e-06 0)
(1.96034e-06 1.65804e-06 0)
(1.98287e-06 1.70896e-06 0)
(2.00577e-06 1.76031e-06 0)
(2.029e-06 1.81211e-06 0)
(2.05253e-06 1.86438e-06 0)
(2.07633e-06 1.91713e-06 0)
(2.10035e-06 1.97035e-06 0)
(2.12453e-06 2.02402e-06 0)
(2.14883e-06 2.07811e-06 0)
(2.17262e-06 2.13252e-06 2.69262e-21)
(1.65017e-06 1.11256e-06 0)
(1.67198e-06 1.1668e-06 0)
(1.69396e-06 1.21995e-06 0)
(1.71608e-06 1.27228e-06 0)
(1.73839e-06 1.32404e-06 0)
(1.76089e-06 1.37546e-06 0)
(1.78362e-06 1.42671e-06 0)
(1.80658e-06 1.47794e-06 0)
(1.82978e-06 1.52927e-06 0)
(1.85322e-06 1.5808e-06 0)
(1.87691e-06 1.63262e-06 0)
(1.90084e-06 1.6848e-06 0)
(1.925e-06 1.73737e-06 0)
(1.94939e-06 1.79039e-06 0)
(1.97398e-06 1.84389e-06 0)
(1.99878e-06 1.89789e-06 0)
(2.02374e-06 1.9524e-06 0)
(2.04885e-06 2.00743e-06 0)
(2.07404e-06 2.06298e-06 0)
(2.09858e-06 2.11899e-06 2.73786e-21)
(1.53084e-06 1.06265e-06 0)
(1.55818e-06 1.11949e-06 0)
(1.58508e-06 1.17514e-06 0)
(1.61154e-06 1.22982e-06 0)
(1.63768e-06 1.28381e-06 0)
(1.66356e-06 1.33733e-06 0)
(1.68927e-06 1.39056e-06 0)
(1.71486e-06 1.44367e-06 0)
(1.74038e-06 1.4968e-06 0)
(1.76588e-06 1.55006e-06 0)
(1.7914e-06 1.60355e-06 0)
(1.81696e-06 1.65734e-06 0)
(1.84259e-06 1.7115e-06 0)
(1.86831e-06 1.76609e-06 0)
(1.89414e-06 1.82114e-06 0)
(1.92007e-06 1.87671e-06 0)
(1.9461e-06 1.93282e-06 0)
(1.97222e-06 1.98953e-06 0)
(1.9984e-06 2.04685e-06 0)
(2.02384e-06 2.10475e-06 2.79354e-21)
(1.40791e-06 1.00452e-06 0)
(1.44099e-06 1.0645e-06 0)
(1.47303e-06 1.12319e-06 0)
(1.50406e-06 1.18074e-06 0)
(1.53427e-06 1.23745e-06 0)
(1.56377e-06 1.29354e-06 0)
(1.59269e-06 1.34921e-06 0)
(1.62113e-06 1.40465e-06 0)
(1.64918e-06 1.45999e-06 0)
(1.67693e-06 1.51537e-06 0)
(1.70445e-06 1.5709e-06 0)
(1.7318e-06 1.62666e-06 0)
(1.75904e-06 1.68275e-06 0)
(1.78621e-06 1.73923e-06 0)
(1.81335e-06 1.79616e-06 0)
(1.8405e-06 1.8536e-06 0)
(1.86766e-06 1.91161e-06 0)
(1.89485e-06 1.97025e-06 0)
(1.92207e-06 2.02959e-06 0)
(1.94852e-06 2.08961e-06 2.86008e-21)
(1.28317e-06 9.38736e-07 0)
(1.32201e-06 1.00233e-06 0)
(1.35926e-06 1.06452e-06 0)
(1.39495e-06 1.1254e-06 0)
(1.42935e-06 1.18528e-06 0)
(1.46259e-06 1.24438e-06 0)
(1.49485e-06 1.30292e-06 0)
(1.52627e-06 1.36108e-06 0)
(1.55698e-06 1.41902e-06 0)
(1.58709e-06 1.4769e-06 0)
(1.61671e-06 1.53482e-06 0)
(1.64594e-06 1.59291e-06 0)
(1.67486e-06 1.65126e-06 0)
(1.70354e-06 1.70994e-06 0)
(1.73204e-06 1.76904e-06 0)
(1.76042e-06 1.82863e-06 0)
(1.78873e-06 1.88879e-06 0)
(1.81701e-06 1.9496e-06 0)
(1.84526e-06 2.01115e-06 0)
(1.87281e-06 2.07346e-06 2.9379e-21)
(1.15839e-06 8.66155e-07 0)
(1.20283e-06 9.3369e-07 0)
(1.2452e-06 9.99742e-07 0)
(1.28551e-06 1.06433e-06 0)
(1.32408e-06 1.12776e-06 0)
(1.36108e-06 1.19025e-06 0)
(1.39672e-06 1.25202e-06 0)
(1.43116e-06 1.31327e-06 0)
(1.46456e-06 1.37418e-06 0)
(1.49708e-06 1.4349e-06 0)
(1.52884e-06 1.49556e-06 0)
(1.55997e-06 1.55629e-06 0)
(1.59058e-06 1.6172e-06 0)
(1.62077e-06 1.67838e-06 0)
(1.65063e-06 1.73992e-06 0)
(1.68023e-06 1.80191e-06 0)
(1.70966e-06 1.86444e-06 0)
(1.73898e-06 1.92761e-06 0)
(1.76824e-06 1.99153e-06 0)
(1.79693e-06 2.05625e-06 3.02745e-21)
(1.03522e-06 7.87898e-07 0)
(1.08486e-06 8.5952e-07 0)
(1.13204e-06 9.29612e-07 0)
(1.17682e-06 9.98186e-07 0)
(1.21946e-06 1.06546e-06 0)
(1.26016e-06 1.13166e-06 0)
(1.29913e-06 1.19698e-06 0)
(1.33657e-06 1.26165e-06 0)
(1.37266e-06 1.32583e-06 0)
(1.40756e-06 1.3897e-06 0)
(1.44145e-06 1.4534e-06 0)
(1.47446e-06 1.51707e-06 0)
(1.50673e-06 1.58082e-06 0)
(1.53839e-06 1.64477e-06 0)
(1.56955e-06 1.709e-06 0)
(1.60031e-06 1.77361e-06 0)
(1.63079e-06 1.83872e-06 0)
(1.66107e-06 1.90442e-06 0)
(1.69127e-06 1.97083e-06 0)
(1.72111e-06 2.03804e-06 3.12917e-21)
(9.23921e-07 7.20387e-07 0)
(9.77359e-07 7.95073e-07 0)
(1.02811e-06 8.6814e-07 0)
(1.0763e-06 9.39779e-07 0)
(1.12214e-06 1.01012e-06 0)
(1.1658e-06 1.07936e-06 0)
(1.20749e-06 1.14766e-06 0)
(1.24739e-06 1.21522e-06 0)
(1.2857e-06 1.28221e-06 0)
(1.32259e-06 1.3488e-06 0)
(1.35824e-06 1.41513e-06 0)
(1.3928e-06 1.48133e-06 0)
(1.42645e-06 1.54752e-06 0)
(1.4593e-06 1.61381e-06 0)
(1.49151e-06 1.6803e-06 0)
(1.5232e-06 1.74709e-06 0)
(1.5545e-06 1.81428e-06 0)
(1.58552e-06 1.88197e-06 0)
(1.61641e-06 1.95027e-06 0)
(1.6472e-06 2.01934e-06 3.2105e-21)
(7.6655e-07 6.039e-07 0)
(8.36641e-07 6.8204e-07 0)
(8.91182e-07 7.5734e-07 0)
(9.4314e-07 8.31162e-07 0)
(9.92639e-07 9.038e-07 0)
(1.03981e-06 9.75324e-07 0)
(1.08481e-06 1.04586e-06 0)
(1.12779e-06 1.11554e-06 0)
(1.16893e-06 1.18452e-06 0)
(1.20838e-06 1.25293e-06 0)
(1.24633e-06 1.3209e-06 0)
(1.28294e-06 1.38858e-06 0)
(1.31837e-06 1.45606e-06 0)
(1.35277e-06 1.52346e-06 0)
(1.38628e-06 1.59087e-06 0)
(1.41906e-06 1.65839e-06 0)
(1.45124e-06 1.72609e-06 0)
(1.48295e-06 1.79408e-06 0)
(1.51434e-06 1.86245e-06 0)
(1.54557e-06 1.93127e-06 0)
(1.57679e-06 2.00073e-06 3.23119e-21)
(6.98369e-07 5.82744e-07 0)
(7.65165e-07 6.59137e-07 0)
(8.18921e-07 7.33603e-07 0)
(8.70475e-07 8.07036e-07 0)
(9.19827e-07 8.79615e-07 0)
(9.67057e-07 9.51335e-07 0)
(1.01225e-06 1.02226e-06 0)
(1.05554e-06 1.09246e-06 0)
(1.09703e-06 1.16204e-06 0)
(1.13689e-06 1.23109e-06 0)
(1.17524e-06 1.29973e-06 0)
(1.21225e-06 1.36805e-06 0)
(1.24805e-06 1.43613e-06 0)
(1.28278e-06 1.50407e-06 0)
(1.3166e-06 1.57195e-06 0)
(1.34964e-06 1.63984e-06 0)
(1.38204e-06 1.70781e-06 0)
(1.41394e-06 1.77593e-06 0)
(1.44549e-06 1.84428e-06 0)
(1.47686e-06 1.91292e-06 0)
(1.50822e-06 1.98196e-06 3.21954e-21)
(6.3696e-07 5.63042e-07 0)
(7.00224e-07 6.37691e-07 0)
(7.5246e-07 7.11119e-07 0)
(8.02919e-07 7.83972e-07 0)
(8.51489e-07 8.56313e-07 0)
(8.98195e-07 9.28063e-07 0)
(9.4307e-07 9.99221e-07 0)
(9.86186e-07 1.06981e-06 0)
(1.02764e-06 1.13988e-06 0)
(1.06753e-06 1.20949e-06 0)
(1.10597e-06 1.27871e-06 0)
(1.14311e-06 1.3476e-06 0)
(1.17906e-06 1.41623e-06 0)
(1.21395e-06 1.48466e-06 0)
(1.24792e-06 1.55296e-06 0)
(1.2811e-06 1.62119e-06 0)
(1.31363e-06 1.68939e-06 0)
(1.34564e-06 1.75761e-06 0)
(1.37729e-06 1.8259e-06 0)
(1.40876e-06 1.8943e-06 0)
(1.4402e-06 1.96287e-06 3.21131e-21)
(5.81333e-07 5.44743e-07 0)
(6.40885e-07 6.1767e-07 0)
(6.91115e-07 6.89945e-07 0)
(7.39967e-07 7.62078e-07 0)
(7.87259e-07 8.34033e-07 0)
(8.32971e-07 9.0567e-07 0)
(8.77086e-07 9.76927e-07 0)
(9.19637e-07 1.04778e-06 0)
(9.60676e-07 1.11822e-06 0)
(1.00028e-06 1.18828e-06 0)
(1.03854e-06 1.25799e-06 0)
(1.07556e-06 1.32738e-06 0)
(1.11145e-06 1.39649e-06 0)
(1.14633e-06 1.46537e-06 0)
(1.1803e-06 1.53405e-06 0)
(1.21351e-06 1.60257e-06 0)
(1.24607e-06 1.67096e-06 0)
(1.27812e-06 1.73924e-06 0)
(1.30981e-06 1.80744e-06 0)
(1.34132e-06 1.87556e-06 0)
(1.37279e-06 1.94362e-06 3.20686e-21)
(5.3056e-07 5.27742e-07 0)
(5.86345e-07 5.99004e-07 0)
(6.34236e-07 6.70075e-07 0)
(6.81109e-07 7.41396e-07 0)
(7.26743e-07 8.12853e-07 0)
(7.71085e-07 8.84255e-07 0)
(8.14081e-07 9.55491e-07 0)
(8.55726e-07 1.02649e-06 0)
(8.96044e-07 1.0972e-06 0)
(9.35081e-07 1.16761e-06 0)
(9.72902e-07 1.23772e-06 0)
(1.00959e-06 1.30753e-06 0)
(1.04523e-06 1.37706e-06 0)
(1.07992e-06 1.44632e-06 0)
(1.11377e-06 1.51532e-06 0)
(1.14689e-06 1.58409e-06 0)
(1.17939e-06 1.65264e-06 0)
(1.21141e-06 1.72095e-06 0)
(1.24308e-06 1.78903e-06 0)
(1.27457e-06 1.85686e-06 0)
(1.30601e-06 1.92441e-06 3.20634e-21)
(4.83777e-07 5.11901e-07 0)
(5.3582e-07 5.81583e-07 0)
(5.81156e-07 6.51449e-07 0)
(6.25791e-07 7.21911e-07 0)
(6.69488e-07 7.92794e-07 0)
(7.12171e-07 8.63871e-07 0)
(7.53759e-07 9.34987e-07 0)
(7.94223e-07 1.00603e-06 0)
(8.33557e-07 1.07691e-06 0)
(8.71785e-07 1.14758e-06 0)
(9.08947e-07 1.218e-06 0)
(9.45103e-07 1.28816e-06 0)
(9.80322e-07 1.35803e-06 0)
(1.01469e-06 1.42761e-06 0)