/*--------------------------------*- C++ -*----------------------------------*\
  =========                 |
  \\      /  F ield         | OpenFOAM: The Open Source CFD Toolbox
   \\    /   O peration     | Website:  https://openfoam.org
    \\  /    A nd           | Version:  9
     \\/     M anipulation  |
\*---------------------------------------------------------------------------*/
FoamFile
{
    format      ascii;
    class       volSymmTensorField;
    location    "1";
    object      sigma;
}
// * * * * * * * * * * * * * * * * * * * * * * * * * * * * * * * * * * * * * //

dimensions      [1 -1 -2 0 0 0 0];

internalField   nonuniform List<symmTensor> 
1000
(
(122963 -84152.4 -7.81108e-11 71463 5.60717e-11 58327.9)
(144285 -64915.2 -1.33749e-10 39015.7 7.49083e-11 54990.1)
(155013 -49719.7 1.55915e-10 23707.6 -2.98992e-11 53616.2)
(159540 -38258.7 4.00522e-11 11732.1 -2.86075e-11 51381.6)
(161189 -29042.8 -1.69265e-10 4704.96 1.24192e-11 49768.2)
(160515 -21835.7 -1.83231e-11 -516.025 2.00909e-11 47999.6)
(158882 -15983.5 -1.53708e-10 -3889.05 -8.25097e-11 46498)
(156384 -11326.6 1.05495e-10 -6320.02 4.93178e-11 45019.3)
(153794 -7463.94 -5.43912e-11 -7923.76 -6.18947e-11 43761)
(150395 -4234.94 0 -9455.92 0 42281.7)
(155950 -93582.9 -1.27876e-10 72112.4 4.73793e-12 68418.6)
(170012 -67004.5 0 41127.6 0 63341.9)
(175774 -47804.4 1.24738e-10 27185.1 5.94397e-11 60887.8)
(176315 -34012.3 -2.14033e-10 15828.1 -1.14164e-10 57642.8)
(174887 -23498.8 -9.09677e-11 9343.03 -5.48611e-11 55269)
(171691 -15632.8 6.33043e-11 4343.64 6.45744e-11 52810.5)
(168005 -9496.33 7.08935e-11 1122.19 4.75178e-11 50738)
(163804 -4826.85 1.66681e-10 -1408.27 9.72984e-11 48718.8)
(159637 -1051.2 0 -2960.29 0 47003.1)
(155048 1984.14 0 -5041.13 0 45001.9)
(191483 -99547.9 0 69466.2 0 78284.8)
(196221 -66921.6 0 42287.9 0 71552.6)
(195893 -44489.5 1.1889e-10 30981.5 6.14346e-11 68062.3)
(191761 -28872.2 -3.57012e-11 20992.5 1.2626e-11 63825.9)
(186850 -17441.4 -1.74803e-12 15496.1 7.79324e-13 60703.8)
(180892 -9203.21 -5.90233e-11 10984.5 -6.10938e-11 57562.9)
(175036 -3020.06 8.06041e-11 8085.35 3.7276e-11 54936.4)
(169059 1500.13 -5.98427e-11 5583.77 -4.41989e-11 52392.7)
(163446 5007.09 -4.82525e-12 4090.02 8.33119e-12 50260.8)
(157620 7867.25 -1.26351e-11 1678.45 -5.44176e-12 47789.5)
(228409 -101192 -6.92081e-11 64038.7 9.89666e-13 87734.2)
(222319 -64401.9 6.8184e-11 42623.4 -7.05109e-12 79482.8)
(215056 -39828.4 -5.43359e-11 35053.3 -3.06642e-11 75032.8)
(205695 -23088.9 -3.4456e-11 27079.8 6.68637e-12 69832.6)
(196969 -11242.4 6.16264e-11 22932.5 5.95867e-11 65970.5)
(188080 -2983.67 -7.4194e-11 19088.7 -4.90652e-11 62150.7)
(179979 2983.17 -6.40985e-11 16561.7 -4.56167e-11 58962.1)
(172263 7186.8 -1.42859e-10 14117.5 -1.04519e-10 55914)
(165258 10282.2 -2.04827e-11 12581.9 -2.50104e-11 53352)
(158409 12807.7 3.49927e-11 9990.81 3.09483e-11 50519.9)
(265076 -97758.4 -3.54784e-11 56500.2 -5.98545e-12 96472.8)
(247545 -59105.1 3.56585e-15 42305.1 1.69378e-16 86955)
(232826 -33752.7 -1.75918e-10 39383.2 -8.61927e-11 81662.8)
(217873 -16790.3 1.59989e-11 33968.7 -6.07385e-13 75552.4)
(205124 -5179.02 -2.24164e-11 31466.9 2.37218e-12 70977.4)
(193234 2641.37 5.34207e-11 28425 4.93511e-11 66497.8)
(182916 8060.22 -5.98989e-12 26294.2 1.77083e-12 62763.1)
(173544 11720.2 5.63826e-11 23897.4 3.76785e-11 59232.3)
(165292 14239.8 -1.22006e-11 22221 -2.61023e-11 56253.9)
(157551 16294.8 -2.23011e-11 19450 -1.80107e-11 53100.4)
(300636 -89049.8 -1.17254e-10 48026.7 -1.662e-12 104599)
(271533 -50804.9 3.25196e-15 41910.9 6.86059e-16 94033.1)
(249081 -26177.1 -1.75838e-15 44316.5 -2.72104e-16 88019.3)
(228264 -10097.4 1.4139e-11 41757 1.73426e-12 81006.3)
(211375 484.246 -7.6123e-11 41004.3 -4.62838e-11 75713.9)
(196504 7319.42 8.68342e-13 38734.3 -7.83832e-15 70571.4)
(184068 11828.1 5.66568e-11 36904.2 3.83633e-11 66291.6)
(173188 14713.8 1.20471e-10 34467.3 8.8096e-11 62296.5)
(163853 16522.7 2.18233e-11 32525.4 1.60106e-11 58913.7)
(155382 17998.7 -3.81054e-11 29550.8 -3.00035e-11 55480)
(332890 -74521.9 1.80073e-10 39559.8 1.01442e-11 111735)
(293157 -38885.6 5.10164e-11 42080.1 2.04491e-11 100571)
(262803 -16874.2 5.3853e-11 50314 2.44583e-11 93935)
(236115 -3081.43 -1.16226e-11 50593 -3.46637e-12 86012.4)
(215266 5485.6 5.50282e-11 51376.5 3.68129e-11 79992.6)
(197701 10696.5 -5.06445e-11 49615.4 -3.48794e-11 74194.9)
(183461 13917.3 1.44192e-11 47833 8.87862e-13 69388.3)
(171362 15817.7 -4.52226e-11 45173.3 -2.96308e-11 64960.7)
(161204 16833.3 -3.13093e-12 42808.6 3.90707e-13 61203.8)
(152195 17675.4 -2.29165e-11 39571.1 -1.49531e-11 57529.7)
(363953 -54129.9 2.67209e-10 33640.1 1.48276e-11 119278)
(312635 -22747.2 -1.35845e-10 45142.3 -4.88821e-11 107333)
(273966 -5720.02 1.05291e-12 59180.9 5.78091e-13 99944.2)
(241591 3849.44 1.6997e-11 61397.8 8.61402e-12 90896.7)
(217152 9281.32 1.25837e-10 62810.8 6.25682e-11 83988.9)
(197384 12273.4 -7.44563e-12 60843.1 -2.33334e-12 77468.1)
(181775 13961.2 1.85378e-16 58573.1 3.69655e-17 72104.4)
(168832 14812.6 -4.42517e-11 55367.8 -2.33345e-11 67259.8)
(158145 15093.4 1.0751e-12 52382.7 4.72239e-14 63158.3)
(148813 15361.2 3.31286e-12 48810.1 1.63065e-12 59286.9)
(389826 -25306.5 1.26511e-10 33413.3 -1.05637e-12 126972)
(325817 -2297.89 -1.49688e-10 55161.3 -6.28187e-11 114293)
(278530 5812.92 1.56438e-11 73008.1 1.33324e-11 105461)
(241774 8851.02 1.47044e-11 74633.4 1.16189e-11 94922.1)
(215427 10372.3 -6.15191e-12 74641 -3.75596e-12 87020.4)
(194771 10901.5 4.90168e-11 71256.1 1.78039e-11 79808.3)
(178756 11161.6 2.68142e-12 67779.7 8.25517e-13 73960.8)
(165607 11165.1 7.90633e-11 63692.5 3.02399e-11 68789.7)
(154806 10975.8 1.74553e-11 59967.4 6.74596e-12 64432)
(145396 10879 9.78002e-12 56050.2 3.9176e-12 60433.9)
(423768 22616.4 7.75395e-11 58285.9 1.00462e-11 144616)
(331728 25284.1 -1.14886e-11 86647.1 -1.98598e-11 125512)
(278018 16689.1 5.19816e-11 95926.9 2.20545e-11 112184)
(240152 10829.8 2.67681e-12 91476.3 3.75125e-12 99488.6)
(213710 8541.57 9.14641e-17 86207.3 8.50835e-17 89975.1)
(193161 7277.58 4.97133e-11 79836.9 8.91998e-12 81899.4)
(177253 6824.17 7.7218e-13 74310.4 2.28076e-13 75469.1)
(164170 6563.49 3.80965e-11 69138.2 7.20715e-12 69992.3)
(153382 6358.21 -4.22126e-13 64704.4 -3.128e-14 65426.1)
(143935 6218.17 -6.40328e-13 60580.8 -1.34594e-13 61354.9)
(-570.52 193.984 -5.18635e-11 -325.591 5.67199e-11 -268.833)
(428.16 -703.581 -2.84799e-12 62.6029 3.78371e-11 147.229)
(4483.51 -2209.01 -3.63516e-11 -230.021 -1.90882e-11 1276.05)
(10992.4 -3415.74 0 -470.421 0 3156.58)
(18566.2 -4162.71 -4.81279e-12 -596.92 -2.94851e-11 5390.77)
(26519.6 -4587.39 -4.98638e-11 -657.956 -3.68135e-12 7758.5)
(34316 -4755.33 1.12208e-11 -668.674 2.56124e-11 10094.2)
(41766.3 -4768.73 -3.30854e-11 -641.484 8.10959e-12 12337.4)
(48600 -4644.32 2.67958e-11 -626.871 1.36366e-11 14391.9)
(54971.3 -4545.87 5.04251e-11 -520.983 6.2854e-12 16335.1)
(740.15 -752.352 -5.35692e-11 -62.2269 3.75336e-11 203.377)
(5992.83 -4088.65 4.02536e-11 2537.33 4.41749e-11 2559.05)
(13613.3 -7776.57 -3.76727e-11 2640.44 -3.78588e-11 4876.13)
(21713.9 -10597.6 3.81407e-13 1847.32 -3.13522e-11 7068.37)
(29855.9 -12338.9 0 1078.47 0 9280.32)
(37598.8 -13314.3 -5.71876e-11 385.531 -8.4819e-12 11395.3)
(44780.6 -13670.1 9.60724e-12 -148.419 4.92184e-11 13389.6)
(51425.4 -13648 7.17941e-13 -530.79 2.64768e-12 15268.4)
(57289.3 -13276 -3.07603e-11 -857.769 -8.94781e-11 16929.5)
(62847.3 -12973.8 2.25871e-11 -890.871 3.5084e-12 18586.9)
(2289.26 -3705.13 -2.56534e-11 2499.23 -6.27451e-12 1436.55)
(11489.6 -10216.2 4.11617e-11 5458.1 4.36364e-11 5084.32)
(22023.3 -14792.2 4.30777e-11 5051.59 9.01578e-12 8122.47)
(31718.5 -17859.1 2.23228e-12 3106.49 -3.02362e-11 10447.5)
(40633.4 -19556.2 0 1292.65 0 12577.8)
(48489.7 -20354.7 -6.40003e-11 -282.241 -1.67005e-11 14462.2)
(55388.2 -20457.6 -8.72981e-11 -1480.54 -2.44408e-11 16172.3)
(61532.1 -20133.2 5.77391e-11 -2345.24 3.53015e-11 17756.1)
(66676 -19426.9 3.49822e-13 -2997.21 1.12707e-12 19103.6)
(71645.7 -18826 -5.19309e-11 -3189.94 -3.28265e-11 20536.7)
(5495 -8345.96 6.70075e-11 8410.61 -2.4013e-11 4171.68)
(18929.7 -17571.8 1.01701e-11 9237.96 -3.66587e-11 8450.3)
(31874 -22388.5 4.73398e-11 7663.28 9.24595e-12 11861.2)
(42944.4 -25087.4 0 4500.09 0 14233.3)
(52510.4 -26212 -8.07221e-11 1701.62 3.00558e-11 16263.6)
(60478.9 -26422.7 9.16022e-13 -717.625 7.43801e-11 17928.4)
(67132.5 -25977.6 -3.98457e-12 -2580.96 -3.99526e-11 19365.5)
(72833.2 -25145.7 -1.15132e-11 -3958.72 -6.16642e-11 20662.3)
(77303.7 -23991.9 2.63553e-11 -4999.79 8.55166e-12 21691.2)
(81741.3 -23009.2 4.91922e-11 -5420.61 1.84509e-11 22896.2)
(10973.3 -14908.8 -9.04969e-11 17076.9 5.97895e-11 8415.06)
(28916.4 -25582.4 -8.31451e-11 13395.7 5.57128e-11 12693.6)
(43873.2 -29916.9 -5.0403e-11 9699.93 -1.48196e-11 16071.9)
(55891.6 -31716.4 -1.36418e-11 4984.62 5.45317e-11 18262.9)
(65729.1 -31842.1 -5.36163e-13 1157.71 3.36333e-12 20066)
(73538.5 -31140.7 7.77592e-11 -2045.25 -2.08546e-11 21448)
(79766.3 -29913.3 3.38608e-11 -4477.09 8.88545e-12 22586.8)
(84901.5 -28406.3 0 -6270.14 0 23589.4)
(88639.1 -26715.7 -3.61348e-11 -7608.47 -4.75388e-11 24309.2)
(92497.4 -25271.7 1.44198e-11 -8187.36 3.5008e-12 25293)
(19448.9 -23540.8 -6.81771e-11 27824.4 -8.79757e-11 14182)
(41779 -33708.6 3.39607e-11 18043.5 -6.60958e-11 17946.7)
(58336.7 -36692 -4.16081e-11 11632.8 -4.48907e-11 20990.9)
(70828.3 -37130.7 9.17077e-12 5203.8 -2.53905e-11 22809.6)
(80514.1 -35988.3 8.80666e-11 398.429 2.94542e-11 24273.8)
(87820.8 -34212 -8.49858e-11 -3479.96 9.45637e-12 25302.3)
(93364.6 -32103.2 -9.80363e-14 -6365.89 2.25383e-12 26099.6)
(97731.6 -29862.9 -6.61664e-11 -8473.24 -4.55643e-11 26777.5)
(100609 -27619.4 1.38749e-13 -10042.4 8.84336e-13 27169.8)
(103763 -25691.4 -7.22546e-11 -10724.7 -3.30259e-11 27911.5)
(31519 -34149.1 3.20988e-11 39399.6 -5.15415e-11 21275.6)
(57473.5 -41624.4 1.8798e-12 22859.7 -2.84312e-12 24100)
(75018.7 -42307.9 -1.37737e-15 13474.6 2.34708e-15 26548)
(87408.2 -40926.1 -8.99462e-11 5261.24 -6.30202e-11 27800.8)
(96475.2 -38304 -1.53037e-11 -454.879 4.08245e-11 28806.1)
(102896 -35366.7 -8.24398e-11 -4904.79 -3.35386e-11 29397.3)
(107472 -32353.2 1.48192e-10 -8123.84 6.60469e-11 29804.4)
(110835 -29392.5 -1.93537e-14 -10446.7 1.76978e-12 30116.5)
(112720 -26633.6 2.91707e-11 -12158.4 -1.17006e-13 30168.5)
(115004 -24239.5 -3.95217e-11 -12900.6 -1.88172e-11 30630.9)
(47725.8 -46339.7 1.81888e-10 50611.8 -6.04012e-11 29501.3)
(75875.1 -49019.5 4.8415e-11 27658.2 -5.776e-11 31060)
(93541.3 -46496.6 -1.86861e-11 15517.6 2.48562e-11 32717.7)
(105159 -42886.2 1.14268e-11 5668.31 -1.77748e-11 33248.1)
(113122 -38640.7 1.01905e-15 -808.625 -1.99601e-15 33694)
(118282 -34528.4 9.56944e-11 -5703.15 8.0996e-12 33773.5)
(121622 -30657.6 7.19827e-12 -9154.76 -3.1134e-11 33740.1)
(123767 -27058.1 -2.41236e-12 -11601.8 2.5619e-11 33649.6)
(124549 -23873.9 3.30439e-13 -13434.6 1.27919e-11 33334.3)
(125795 -21076.8 3.02003e-11 -14187.1 2.82133e-11 33482.4)
(68389.4 -59399.1 8.11859e-11 60265 7.13304e-11 38596.3)
(96725.8 -55587 -1.56846e-11 32111.3 1.05897e-10 38651.1)
(113399 -49134.5 -1.80592e-15 17853.1 1.89055e-15 39375.5)
(123480 -42989.4 1.23811e-10 6716.32 2.90543e-11 39058.9)
(129840 -37044.6 9.45437e-11 -282.031 4.71868e-11 38867.3)
(133372 -31801.2 8.52953e-11 -5476.21 4.25849e-11 38368.7)
(135237 -27160.8 -9.33472e-12 -9030.33 2.67586e-11 37862)
(135948 -23056.7 -1.02705e-10 -11570 -5.73817e-11 37313.3)
(135576 -19556.3 6.30659e-11 -13439.8 1.49465e-11 36640.7)
(135579 -16436 2.82825e-11 -14402.4 1.68059e-11 36352.9)
(93566.9 -72378.4 -7.66184e-12 67431.9 6.77015e-12 48299.6)
(119675 -61002.9 -3.1389e-11 35973 2.31464e-11 46694.5)
(134053 -50199.6 -6.0788e-11 20583.8 -2.83321e-11 46390.9)
(141764 -41370.6 2.63368e-10 8696.55 6.16793e-11 45138.3)
(145997 -33737 1.61299e-12 1491.49 -1.83151e-12 44246.5)
(147555 -27444.6 -8.38801e-11 -3809.11 -4.76159e-11 43123.7)
(147712 -22154.2 -8.98862e-11 -7365.39 -1.41649e-11 42103.9)
(146850 -17694.5 -3.38649e-11 -9852.34 -2.02522e-11 41099.3)
(145321 -14073.1 3.76298e-12 -11869.1 -2.80223e-11 40035.5)
(143911 -10945.3 1.69349e-11 -12592 3.54304e-11 39395.8)
(60665.4 -4217.9 3.90229e-11 -519.211 2.38886e-11 18043.9)
(65679.5 -3764.69 3.11324e-11 -405.091 4.53789e-12 19582.3)
(70274.1 -3369.76 -2.46933e-11 -322.661 -2.91941e-11 20985.4)
(74401.1 -3011.32 -1.41568e-11 -261.402 -1.04283e-11 22241.9)
(78126.3 -2679.23 -4.51301e-11 -201.397 -7.62899e-12 23377.5)
(81461 -2381.62 0 -157.018 0 24391.2)
(84451.4 -2108.95 0 -115.061 0 25300.9)
(87115.4 -1862.86 1.66847e-11 -82.4294 1.04064e-11 26109.9)
(89486.2 -1637.36 1.5007e-11 -53.7597 2.80315e-12 26829.7)
(91580.8 -1430.72 3.51675e-11 -31.2681 2.1068e-11 27464.9)
(93420.8 -1238.53 4.54934e-11 -13.0137 8.67368e-12 28022.3)
(95018.8 -1057.97 -1.52724e-11 0.396577 -2.92529e-12 28505.8)
(96386.1 -885.52 4.6185e-11 9.49712 8.85824e-12 28918.7)
(97529.7 -718.588 -5.64374e-11 14.1713 -3.28324e-11 29263.2)
(98452.6 -555.06 3.34489e-12 14.2986 8.07695e-12 29540.1)
(99160 -394.692 -3.32834e-19 10.5654 -1.94173e-19 29751.2)
(99649.4 -239.769 -1.92902e-11 2.85333 -1.13002e-11 29895.7)
(99941.4 -99.0772 1.93707e-11 -3.08389 1.14011e-11 29981.5)
(100037 8.78866 9.64509e-12 -2.44315 -1.40326e-11 30010.3)
(100028 34.5943 -4.53316e-11 51.9603 -4.02412e-11 30024)
(67320.6 -12082.2 5.52218e-11 -1146.53 6.78974e-11 19852.2)
(71013.9 -10877.7 3.58198e-11 -1119.12 9.81325e-12 20968.4)
(74570.8 -9814.64 2.69697e-12 -1025.2 -1.55102e-11 22063.7)
(77748.6 -8823.1 8.13397e-11 -975.85 7.33053e-11 23031.8)
(80693 -7894.51 -1.56349e-11 -886.398 -3.69326e-12 23942)
(83343.3 -7054.6 -6.63286e-11 -826.028 -6.71966e-11 24755.2)
(85763.5 -6277.82 3.38287e-11 -754.739 1.25138e-11 25502.6)
(87939.2 -5571.85 0 -699.978 0 26171.8)
(89903.9 -4920.81 1.61196e-11 -647.767 5.70801e-12 26776.8)
(91659.8 -4321.57 3.31417e-11 -607.132 1.277e-11 27315.8)
(93225.5 -3763.02 9.93991e-11 -573.434 5.13349e-11 27795.6)
(94608 -3238.46 4.48605e-13 -548.828 5.12626e-13 28217.8)
(95818.1 -2739.37 1.28998e-11 -531.034 -1.00134e-11 28586.1)
(96862.9 -2259.66 1.89741e-11 -518.525 2.1695e-11 28903.3)
(97748 -1794.62 1.94661e-11 -507.758 2.23153e-11 29172.1)
(98482.1 -1344.03 -1.92842e-11 -491.213 -2.22192e-11 29397.3)
(99064.6 -913.255 -1.9394e-11 -459.002 -2.24719e-11 29581.7)
(99513.1 -520.968 -3.8949e-11 -385.82 -4.53954e-11 29738.2)
(99809 -195.715 -2.94711e-13 -238.763 -3.22447e-13 29871.1)
(99999.5 -21.9162 -4.91267e-12 69.4252 2.82497e-11 30020.7)
(75030.4 -17490 1.51107e-11 -3527.78 2.06717e-11 21450.8)
(77386.7 -15847.5 2.06234e-11 -3444.24 7.35665e-12 22182.7)
(79913.8 -14372.1 -4.7905e-11 -3136.81 -6.03204e-11 23033.1)
(82105 -13002 -4.29905e-12 -2931.87 1.10091e-11 23751.9)
(84241.4 -11698.1 8.74079e-11 -2644.64 7.27426e-11 24479)
(86164.2 -10513 -6.94331e-11 -2420.55 -6.62619e-11 25123.1)
(87975.1 -9405.4 -1.84841e-11 -2186.01 -2.13981e-11 25736.7)
(89619.6 -8392.62 3.53291e-11 -1991.83 4.01646e-11 26288.3)
(91138 -7452.86 1.58135e-13 -1814.44 -2.60641e-11 26797.1)
(92515 -6584.89 -3.73854e-11 -1669.03 -4.20167e-11 27253.8)
(93768.2 -5774.95 3.58249e-11 -1547.99 4.01174e-11 27666.1)
(94896.6 -5015.71 5.53595e-11 -1454.09 6.20265e-11 28032.8)
(95909.4 -4296.92 4.23595e-13 -1382.84 4.66615e-13 28358)
(96810.8 -3611.22 -1.89562e-11 -1330.27 -2.13617e-11 28644.2)
(97605.2 -2952.22 1.87659e-11 -1288.18 2.12753e-11 28895.1)
(98299.9 -2317.45 2.76639e-18 -1241.41 3.07929e-18 29117.6)
(98889.9 -1708.43 -1.93353e-11 -1168.05 -2.21977e-11 29316.5)
(99387.1 -1134.74 2.62336e-12 -1023.71 1.60293e-11 29509)
(99747.8 -613.984 -6.35565e-11 -746.103 -8.20078e-12 29700.5)
(100014 -169.118 1.8047e-14 -224.279 3.69256e-14 29936.8)
(84039.1 -21298.6 0 -5875.78 0 23449)
(84970.6 -19416.5 2.20491e-11 -5823.56 8.03137e-12 23744.1)
(86430.1 -17679.7 1.72561e-11 -5352.97 1.97181e-11 24323.1)
(87557.9 -16094.4 1.89395e-11 -5061.75 2.19221e-11 24748.8)
(88823.8 -14553.8 0 -4614.65 0 25262.7)
(89943.1 -13153.1 2.56142e-12 -4260.67 -1.10599e-11 25704.7)
(91076.3 -11828.1 -5.66865e-11 -3882.6 -3.47979e-11 26158.1)
(92119.7 -10610.5 -3.61771e-11 -3561.87 -3.9295e-11 26567.4)
(93127.2 -9473.08 -2.03376e-11 -3264.86 -9.38576e-12 26958.7)
(94063.4 -8418.54 -1.14141e-13 -3014.8 2.51174e-11 27314.6)
(94945.6 -7432.04 -1.78873e-11 -2801.92 5.5099e-12 27643.1)
(95763.6 -6506.89 3.74221e-11 -2630.45 1.60509e-11 27940)
(96523.2 -5632.23 3.55231e-11 -2494.47 1.77874e-12 28208.6)
(97223.6 -4799.84 8.67714e-13 -2388.63 1.34308e-11 28450.5)
(97864.8 -4001.62 1.53629e-12 -2301.91 1.42392e-11 28668.9)
(98449.8 -3231.45 -1.91165e-11 -2215.21 -2.14993e-11 28870.4)
(98966 -2485.28 -4.08289e-18 -2101.91 -4.59449e-18 29059.2)
(99421.8 -1758.3 4.0771e-11 -1911.85 5.977e-11 29253)
(99755.3 -1056.4 -2.07691e-12 -1580.84 -1.57163e-11 29452.4)
(100020 -328.732 -4.57309e-11 -990.753 -7.9697e-11 29708.7)
(93705.3 -23269.4 1.67479e-12 -8665.28 2.75357e-11 25512)
(93155.1 -21378.7 -2.39584e-11 -8655 -1.04675e-11 25350)
(93566.2 -19535.4 -6.02468e-11 -7961.8 -4.90819e-11 25681.3)
(93606.9 -17909.6 3.96652e-11 -7572.19 2.69915e-11 25810.4)
(93999.9 -16280.3 1.03221e-10 -6934 6.77786e-11 26119.8)
(94294.9 -14804.5 -1.89615e-11 -6423.02 -1.98125e-11 26361.6)
(94731.1 -13387.6 0 -5871.7 0 26657.8)
(95147.6 -12078.3 1.84662e-11 -5393.52 1.92091e-11 26926.2)
(95615.4 -10845.2 -5.94274e-11 -4947.28 -2.53917e-11 27200.4)
(96078.9 -9695.79 -3.85526e-11 -4564.02 -2.84034e-11 27454.5)
(96554.7 -8616.13 2.15449e-12 -4233.72 -2.19081e-11 27696.3)
(97024 -7600.97 -1.94316e-11 -3962.28 -3.28309e-11 27918.5)
(97488.5 -6640.02 -1.96953e-12 -3743.66 3.44713e-11 28123.5)
(97941.7 -5724.3 3.79826e-11 -3572.2 5.35053e-11 28310.9)
(98379.5 -4844.02 1.84902e-11 -3435.96 7.8835e-12 28483.1)
(98800 -3988.22 -7.00043e-13 -3314.97 -1.33383e-11 28645.5)
(99185.9 -3146.9 3.58417e-11 -3182.03 1.47454e-11 28801.1)
(99541.8 -2299.4 1.76283e-11 -2988.71 7.07752e-12 28965.9)
(99801.8 -1444.19 7.23604e-11 -2678 5.71355e-11 29137.1)
(100022 -468.921 2.00835e-11 -2138.86 6.05826e-11 29364.9)
(103857 -23500.6 1.41227e-11 -11196.7 1.94026e-11 27798.1)
(101762 -21845 3.40104e-13 -11342.8 7.44817e-13 27125.9)
(101148 -20044.2 -4.35588e-11 -10456.1 -3.0182e-11 27207.5)
(100081 -18537.8 -1.04606e-10 -10021.7 -7.82634e-11 27017.7)
(99599.9 -16953.3 4.08655e-11 -9234.6 2.78332e-11 27109.6)
(99058.9 -15522.4 3.84647e-11 -8597.22 3.81712e-11 27138.5)
(98783.5 -14123.7 -1.88455e-11 -7901.83 -1.87296e-11 27264.5)
(98555.9 -12820.3 -3.02424e-12 -7284.1 8.39019e-12 27381.6)
(98461.3 -11581.3 8.26759e-11 -6701.72 4.92345e-11 27527.9)
(98427.3 -10417.2 -5.52653e-11 -6190.43 -5.63577e-11 27671.1)
(98468.2 -9317.22 -1.96584e-11 -5743.16 -2.02975e-11 27817.5)
(98557.7 -8277.47 5.34443e-11 -5368.19 7.91147e-11 27956.8)
(98692.8 -7289.27 -7.80613e-11 -5061.85 -2.32632e-11 28089.3)
(98862.2 -6343.46 -5.56433e-11 -4820.52 -5.94151e-11 28212.5)
(99057.5 -5429.25 1.34234e-13 -4634.45 -1.19942e-11 28326.9)
(99272.6 -4531.6 -7.49742e-11 -4486.93 -5.73457e-11 28435.7)
(99488.7 -3635.85 -5.45803e-13 -4355.07 -5.12912e-13 28540.1)
(99705.7 -2707.76 7.36938e-11 -4199.43 7.0411e-11 28651.9)
(99867.6 -1741.54 1.16425e-12 -3975.8 1.45251e-11 28767.5)
(100017 -577.8 1.71358e-11 -3592.2 1.26749e-11 28927.4)
(114014 -21994.8 -1.48014e-11 -13313.8 -1.89848e-11 30210.1)
(110382 -20837.8 2.04572e-11 -13752.8 1.86677e-11 28988.7)
(108815 -19234.3 2.52514e-11 -12748.1 1.31898e-11 28820.2)
(106674 -17999.4 -1.99585e-11 -12318.6 -1.87073e-11 28306.7)
(105349 -16601.2 -4.72773e-11 -11443.1 -2.36132e-11 28171.8)
(104001 -15329.7 2.30796e-11 -10698.8 1.14766e-11 27990.6)
(103024 -14056.5 6.53213e-11 -9880.01 4.20156e-11 27943.1)
(102163 -12847.5 -1.05094e-10 -9128.07 -7.05349e-11 27910.6)
(101506 -11682.5 -6.48233e-11 -8414.3 -4.26837e-11 27927.5)
(100972 -10573.3 1.01742e-10 -7776.33 6.88694e-11 27958.6)
(100567 -9515.95 -4.14918e-11 -7213.58 -1.98425e-11 28006.1)
(100263 -8508.67 5.49824e-11 -6736.49 5.62802e-11 28058)
(100050 -7545.63 5.91971e-11 -6344.89 3.85551e-11 28111.6)
(99913.4 -6618.24 -3.45574e-11 -6038.09 -4.80664e-11 28162.6)
(99841.7 -5715.56 -2.25418e-11 -5810.1 1.16643e-11 28209.5)
(99824.4 -4819.68 1.06846e-12 -5649.88 9.85096e-13 28252.4)
(99845.8 -3912.77 -9.13554e-11 -5541.33 -7.5988e-11 28291.3)
(99898.3 -2950.67 1.81421e-11 -5458.69 2.03677e-11 28331.9)
(99948 -1925.61 3.59613e-11 -5372.13 2.81279e-11 28372.8)
(100008 -647.509 8.65011e-12 -5220.4 6.62731e-12 28436.3)
(123766 -18864 1.77265e-13 -14628.4 6.04736e-13 32741.2)
(118703 -18462.2 -2.11507e-11 -15496.6 -1.85979e-11 30961.8)
(116276 -17223.1 4.53794e-12 -14554.5 -4.92166e-12 30516.4)
(113161 -16363.3 0 -14169.6 0 29697.5)
(111029 -15277.5 0 -13328.2 0 29310.2)
(108939 -14255.3 -6.33301e-11 -12551.7 -4.95619e-11 28916.2)
(107284 -13205.5 5.63463e-11 -11691.3 5.25093e-11 28677.9)
(105820 -12176.6 1.18792e-10 -10861.6 1.03534e-10 28487.6)
(104611 -11165.6 -8.9858e-11 -10057.2 -8.62396e-11 28366.2)
(103584 -10182.4 -7.87101e-11 -9315.88 -6.69831e-11 28280.6)
(102737 -9230.3 3.62999e-11 -8648.25 3.6073e-11 28226.5)
(102036 -8310.48 -3.54614e-12 -8070.55 7.14095e-12 28189.7)
(101470 -7421.09 6.21045e-11 -7589.93 3.06947e-11 28164)
(101019 -6555.73 9.67444e-11 -7212.15 6.68959e-11 28142)
(100670 -5704.96 1.32063e-12 -6938.01 1.20597e-12 28119.5)
(100408 -4850.24 4.40023e-11 -6765.44 -1.19896e-11 28092.8)
(100223 -3972.7 0 -6687.68 0 28060.7)
(100100 -3022.8 -3.70543e-11 -6696.38 -1.63716e-11 28021)
(100033 -1992.41 1.7827e-11 -6776.47 7.54842e-12 27976.9)
(99995 -676.137 2.60062e-11 -6906.29 2.06573e-11 27926.6)
(132778 -14408.5 -1.38875e-13 -14878.3 -5.28899e-13 35370.1)
(126436 -14903 2.62492e-11 -16244.9 1.56876e-11 33057.4)
(123217 -14282.7 -2.61075e-11 -15791.8 -1.58995e-11 32227.5)
(119319 -13873 -2.56963e-11 -15517.4 -1.54859e-11 31140.5)
(116418 -13228.5 7.05498e-11 -14807.6 4.81158e-11 30483.2)
(113689 -12517.6 5.02583e-11 -14019.9 3.00029e-11 29900.8)
(111411 -11742.6 -6.67547e-11 -13136.8 -4.46695e-11 29482.2)
(109401 -10933.2 8.86451e-12 -12250.1 -9.37148e-12 29145.4)
(107682 -10111.4 1.5157e-11 -11381.2 1.40473e-11 28890.3)
(106195 -9289.78 -8.22051e-12 -10567.7 1.10515e-11 28688.3)
(104925 -8478.89 -6.77698e-11 -9827.53 -3.71623e-11 28529.2)
(103841 -7683.35 6.06621e-13 -9180.58 5.84756e-13 28398.1)
(102926 -6904.54 -3.10142e-11 -8639.21 -4.21575e-11 28286)
(102160 -6138.46 -1.04745e-12 -8214.96 -9.57539e-13 28183.4)
(101529 -5377.35 3.95817e-11 -7915.45 1.92789e-11 28084.1)
(101016 -4603.56 -7.8971e-13 -7748.47 -6.89802e-13 27980.4)
(100619 -3798.55 4.82866e-11 -7717.7 6.46864e-11 27870.5)
(100312 -2911.75 -1.82221e-11 -7834.07 -8.15806e-12 27743.2)
(100125 -1934.84 -8.54087e-11 -8097.75 -8.44837e-11 27608.1)
(99982.3 -661.518 -2.55578e-11 -8533.3 -4.60907e-11 27434.7)
(140280 -8689.16 -3.34629e-12 -14337.1 -1.68768e-12 37782.9)
(133836 -9784.43 -2.814e-11 -15447.3 -1.65917e-11 35516.5)
(129728 -10045 2.28493e-11 -15936.1 1.79366e-11 34137.6)
(125384 -10151.9 -5.98134e-11 -16027.6 -5.44405e-11 32806.9)
(121723 -10101.9 -6.15328e-11 -15748.2 -5.11366e-11 31792.5)
(118391 -9873.84 3.6413e-11 -15199.9 3.75769e-11 30957.4)
(115483 -9520.08 3.16551e-11 -14455.8 3.77068e-11 30308.2)
(112918 -9062.17 5.51601e-11 -13612.1 4.96879e-11 29791.8)
(110685 -8531.88 -6.47115e-11 -12724.1 -4.83003e-11 29388.1)
(108738 -7953.18 1.5999e-13 -11849.6 1.32411e-12 29066.5)
(107052 -7345.31 -7.87037e-13 -11025.3 -3.94805e-12 28808.1)
(105596 -6722.04 -5.06145e-11 -10284.9 -4.94417e-11 28593.3)
(104345 -6091.59 0 -9652.62 0 28407.7)
(103276 -5456 -4.58399e-11 -9150.38 -1.49168e-11 28237.7)
(102374 -4812.1 -2.14821e-13 -8795.45 -9.12091e-13 28073.5)
(101617 -4146.25 -5.91862e-11 -8607.85 -2.88294e-11 27902.7)
(101010 -3442.73 1.62177e-11 -8602.99 1.70979e-11 27722.1)
(100518 -2654.84 3.73256e-11 -8812.93 1.70918e-11 27511.6)
(100211 -1775.12 4.63864e-13 -9254.22 -3.73867e-14 27286.9)
(99964.3 -609.923 -1.68496e-11 -9998.46 -1.46503e-11 26989.8)
(144524 -3977.71 2.89574e-11 -12746.2 2.54657e-11 39533.4)
(138579 -4571.29 -2.67797e-11 -13902.5 -1.68381e-11 37403)
(133897 -5652.28 -1.55185e-11 -15019.6 -1.28778e-11 35663.1)
(129409 -6170.76 2.57315e-11 -15504.1 1.57327e-11 34171.5)
(125435 -6533.23 -5.08528e-11 -15520.3 -2.31307e-11 32974.3)
(121798 -6697.6 -3.42956e-11 -15228.1 -1.62127e-11 31971)
(118563 -6704.72 -4.27657e-11 -14677.7 -3.10278e-11 31165.7)
(115663 -6582.23 5.14687e-12 -13979.4 -3.57171e-12 30505.2)
(113098 -6355.04 8.64399e-11 -13192 5.51025e-11 29972)
(110829 -6049.04 -2.97408e-12 -12381.7 -3.19494e-12 29534.2)
(108835 -5684.49 4.61979e-11 -11593.5 2.61729e-11 29172.5)
(107088 -5278.31 -2.28031e-12 -10869.4 -2.58089e-12 28865.5)
(105567 -4842.17 1.68872e-25 -10241.6 1.7137e-25 28597.5)
(104247 -4382.17 -2.03086e-11 -9740.93 -1.01242e-11 28351.8)
(103117 -3899.23 1.98523e-11 -9393.38 9.67272e-12 28117.2)
(102154 -3385.14 -8.91992e-13 -9229.88 -1.28668e-12 27877.3)
(101370 -2828.78 3.15021e-12 -9277.34 -8.3594e-12 27627.8)
(100721 -2193.97 1.80216e-13 -9585.42 5.96937e-13 27340.8)
(100306 -1475.35 -1.83281e-13 -10186.4 2.37564e-13 27035.8)
(99960 -508.6 -2.76826e-13 -11195.2 -1.32589e-13 26629.4)
(142309 637.917 2.68871e-11 -10979.3 2.12587e-11 39399)
(137648 -43.5248 0 -13375.8 0 37281.7)
(133351 -1366.02 -2.09757e-11 -14541.3 -1.8475e-11 35642.8)
(129277 -2237.53 2.74177e-25 -15196.1 2.21896e-25 34224.3)
(125599 -2922.04 6.28324e-26 -15330.3 4.55724e-26 33080.6)
(122184 -3407.72 2.97991e-25 -15146.3 2.21552e-25 32111.2)
(119097 -3721.98 4.5711e-25 -14694.7 3.69214e-25 31320.6)
(116282 -3892.76 -1.83812e-11 -14082.9 -1.72152e-11 30659.7)
(113751 -3942.5 0 -13369.1 0 30114.5)
(111474 -3895.7 1.75644e-11 -12619.3 1.70089e-11 29656.3)
(109442 -3771.97 -2.51582e-26 -11880.1 -4.21933e-26 29268.7)
(107635 -3588.59 -1.68958e-11 -11195.6 -1.69403e-11 28931.8)
(106039 -3358.2 1.66177e-11 -10601.1 1.69495e-11 28631.3)
(104635 -3089.27 2.38625e-25 -10131.3 1.73776e-25 28351.2)
(103418 -2785.1 -1.61734e-11 -9816.68 -1.70451e-11 28080.5)
(102368 -2443.18 -1.43372e-25 -9694.59 -1.3248e-25 27802.1)
(101505 -2055.81 1.58847e-11 -9798.44 1.72466e-11 27512)
(100785 -1600.48 1.58015e-11 -10187.9 1.73969e-11 27179)
(100326 -1076.85 -1.70554e-25 -10908 -1.48679e-25 26825.3)
(99942.2 -370.452 -8.52614e-26 -12090.8 -1.50975e-25 26355.4)
(140639 5263.36 4.97527e-12 -8881.21 8.59875e-12 39527.2)
(136354 4198.74 -1.71308e-11 -11664.5 -1.05345e-11 37406.7)
(132712 2640.93 -3.8217e-11 -13109.2 -2.90804e-11 35881)
(128964 1484.53 0 -14064.2 0 34469.9)
(125580 528.719 1.98688e-12 -14453.1 7.78272e-12 33338)
(122346 -232.135 -1.6519e-11 -14497.8 -2.29684e-12 32354.4)
(119390 -813.643 -3.6837e-11 -14238.4 -2.74582e-11 31545.6)
(116652 -1245.52 -5.44316e-11 -13788.7 -3.66419e-11 30859)
(114161 -1545.63 1.8006e-11 -13206.6 1.73472e-11 30286.3)
(111893 -1737.13 -3.59966e-11 -12562.6 -1.81882e-11 29799)
(109847 -1837.96 -1.79747e-11 -11906.4 -8.86376e-12 29382.2)
(108008 -1865.21 -3.58894e-11 -11286.9 -1.73045e-11 29016.3)
(106368 -1832.18 -3.58238e-11 -10744.1 -1.693e-11 28687.1)
(104912 -1749.23 -1.78788e-11 -10317.4 -8.30716e-12 28378.5)
(103639 -1622.49 -3.56945e-11 -10043.2 -1.63679e-11 28078.6)
(102532 -1454.87 -3.56364e-11 -9963.68 -1.62014e-11 27770.6)
(101615 -1242.72 -1.59221e-11 -10121.5 -1.72577e-11 27448.2)
(100847 -980.51 -1.77667e-11 -10576.1 -8.08423e-12 27081.3)
(100360 -665.176 -1.77413e-11 -11379 -8.17351e-12 26694.3)
(99938.5 -229.348 -8.85613e-12 -12692.7 -8.34377e-12 26173.7)
(137714 8851.16 9.79985e-11 -7123.17 8.26289e-11 39177.1)
(134007 7762.06 1.55138e-11 -10216.3 1.01657e-11 37137.1)
(130979 6132.55 -5.68476e-11 -11837.1 -4.73949e-11 35742.6)
(127653 4841.17 5.82023e-25 -12990.6 4.85229e-25 34398.8)
(124644 3708.1 2.25966e-11 -13555.6 2.63421e-11 33326.7)
(121690 2750.52 -3.09366e-26 -13763.7 -1.81996e-26 32377.9)
(118960 1959.25 1.70114e-11 -13651.4 9.71287e-12 31592.5)
(116389 1313.41 -3.6698e-11 -13332.9 -3.54141e-11 30916.9)
(114023 799.657 7.27812e-25 -12865.4 6.08022e-25 30347.3)
(111843 399.031 3.52012e-11 -12320.1 3.49641e-11 29856.8)
(109856 96.0312 -1.73598e-11 -11747.4 -8.84043e-12 29432.6)
(108052 -125.064 -2.0438e-25 -11198 -1.62777e-25 29056.2)
(106429 -277.32 -8.71634e-25 -10713.8 -8.02274e-25 28714.5)
(104977 -372.768 1.74258e-11 -10337.2 8.3143e-12 28392)
(103698 -419.164 -5.18724e-25 -10106.2 -4.42139e-25 28077.4)
(102580 -427.109 -3.21273e-11 -10068.5 -3.45006e-11 27753.6)
(101648 -391.19 2.29545e-25 -10264.6 1.7451e-25 27415)
(100871 -332.336 1.42716e-11 -10762.4 2.64637e-11 27032.6)
(100376 -223.166 -1.74169e-11 -11636.1 -8.21317e-12 26622)
(99936.3 -73.1108 -8.70058e-12 -13017.7 -8.39247e-12 26075.6)
(134041 11827.7 2.6938e-11 -5381.5 1.88828e-11 38597.8)
(130919 10725.2 3.4323e-11 -8601.15 2.84243e-11 36695.4)
(128502 9107.14 2.92907e-11 -10338.7 1.96593e-11 35449.1)
(125638 7757.68 4.72645e-26 -11668.7 5.93968e-26 34190.9)
(123045 6523.39 5.03082e-11 -12402.7 3.7887e-11 33192.7)
(120419 5436.82 -3.08219e-12 -12780.4 -8.49519e-12 32291.6)
(117966 4494.68 -2.44751e-12 -12823.4 -8.51102e-12 31542.7)
(115617 3685.26 3.26517e-11 -12647 1.86934e-11 30891.1)
(113432 3000.24 1.78385e-11 -12304.8 1.77923e-11 30338.2)
(111396 2425.68 3.41517e-11 -11868.8 2.66467e-11 29858)
(109523 1949.27 3.35228e-11 -11389.7 1.75304e-11 29439.8)
(107807 1557.61 -5.28242e-14 -10919.5 -8.93582e-12 29066.3)
(106252 1238.28 1.71986e-11 -10501.4 -6.10429e-13 28725.2)
(104852 979.475 1.69745e-11 -10179.4 8.28257e-12 28401.9)
(103608 769.793 5.0243e-11 -9994.11 3.36945e-11 28084)
(102523 599.192 1.70445e-11 -9993.04 8.10452e-12 27758.9)
(101586 459.133 0 -10225.4 0 27408.1)
(100866 327.766 5.00118e-11 -10752.9 3.34455e-11 27033.9)
(100230 244.663 5.05477e-11 -11611.7 2.90814e-11 26585.6)
(99982.8 64.9345 1.7101e-11 -12993.3 1.67836e-11 26096.9)
(129836 14115.3 -1.4587e-11 -3872.29 -1.04775e-11 37789)
(127277 13080.6 -1.28846e-11 -7132.19 -9.26889e-12 36043.6)
(125419 11558 -1.94227e-11 -8934 -1.84694e-11 34945.5)
(123025 10227.7 0 -10372.1 0 33795.9)
(120859 8960.14 1.88848e-11 -11223.2 1.83724e-11 32890.6)