/*--------------------------------*- C++ -*----------------------------------*\
  =========                 |
  \\      /  F ield         | OpenFOAM: The Open Source CFD Toolbox
   \\    /   O peration     | Website:  https://openfoam.org
    \\  /    A nd           | Version:  9
     \\/     M anipulation  |
\*---------------------------------------------------------------------------*/
FoamFile
{
    format      ascii;
    class       volSymmTensorField;
    location    "1";
    object      sigma;
}
// * * * * * * * * * * * * * * * * * * * * * * * * * * * * * * * * * * * * * //

dimensions      [1 -1 -2 0 0 0 0];

internalField   nonuniform List<symmTensor> 
1000
(
(137601 -94548.1 -9.16724e-11 76957.1 -7.61122e-11 22158.9)
(156828 -69248.5 -7.28607e-11 41493.8 -6.01432e-11 20628.1)
(163551 -51242 -6.01047e-11 21658.8 -4.91165e-11 19424)
(164985 -37949.2 -5.09694e-11 9487.29 -4.11365e-11 18449.7)
(163719 -27919.8 -4.42263e-11 1692.17 -3.52106e-11 17631.9)
(161096 -20211.6 -3.91343e-11 -3423.27 -3.0719e-11 16935)
(157814 -14205.3 -3.52224e-11 -6829.91 -2.72623e-11 16332.8)
(154261 -9468.33 -3.2179e-11 -9078.78 -2.45694e-11 15810.4)
(150653 -5732.69 -2.98067e-11 -10537.2 -2.24716e-11 15353.6)
(146925 -2371.24 -2.7669e-11 -11790.6 -2.05933e-11 14902.6)
(174734 -105810 -9.89334e-11 77870 -8.19024e-11 25685)
(183013 -71262.7 -7.5004e-11 44237.5 -6.10084e-11 23383.8)
(183106 -48966.2 -5.98146e-11 25097.4 -4.77128e-11 21658.8)
(180049 -33504 -4.94451e-11 13436.6 -3.86088e-11 20328.9)
(175514 -22419.2 -4.20809e-11 5921.99 -3.21534e-11 19237.9)
(170427 -14241.3 -3.66896e-11 942.371 -2.74413e-11 18324.3)
(165227 -8094.47 -3.26569e-11 -2446.75 -2.39347e-11 17542.4)
(160132 -3408.07 -2.95926e-11 -4781.42 -2.1289e-11 16863.7)
(155231 206.366 -2.7238e-11 -6365.98 -1.92717e-11 16269.8)
(150409 3410.13 -2.50975e-11 -8053.85 -1.74783e-11 15668.9)
(214014 -112944 -1.03376e-10 74856.3 -8.51828e-11 29055.9)
(209067 -71414.3 -7.6006e-11 46267.4 -6.08037e-11 26072.2)
(201414 -45834.7 -5.91094e-11 29137.6 -4.58757e-11 23844.1)
(193339 -28786.5 -4.78987e-11 18539.8 -3.60056e-11 22158.7)
(185297 -17016.5 -4.01435e-11 11515.8 -2.92403e-11 20789.6)
(177661 -8620.13 -3.45991e-11 6730.41 -2.44515e-11 19654.9)
(170539 -2507.15 -3.05413e-11 3352.12 -2.09924e-11 18690.5)
(163953 2012.41 -2.75178e-11 908.284 -1.84565e-11 17857.1)
(157856 5397.05 -2.5239e-11 -835.232 -1.65782e-11 17130.9)
(152084 8410.31 -2.31397e-11 -2806.95 -1.48924e-11 16408.8)
(253516 -114912 -1.04458e-10 68449.9 -8.54262e-11 32152)
(234219 -69657.7 -7.58098e-11 47494.6 -5.95113e-11 28611.1)
(218125 -42232.3 -5.81529e-11 33500 -4.38131e-11 25914.1)
(204708 -24361.6 -4.65838e-11 24425.1 -3.36282e-11 23882.1)
(193051 -12332.4 -3.86948e-11 18045.9 -2.6799e-11 22236.3)
(182873 -3962.8 -3.31367e-11 13474.4 -2.20715e-11 20880.9)
(173900 1978.87 -2.91259e-11 10067.5 -1.87338e-11 19735.4)
(165930 6266.3 -2.61731e-11 7456.95 -1.63402e-11 18751)
(158771 9384.87 -2.39826e-11 5483.75 -1.46159e-11 17897.6)
(152201 12159.1 -2.19642e-11 3289.25 -1.30653e-11 17074.5)
(291040 -111132 -1.01939e-10 59563.2 -8.23787e-11 34862)
(257592 -66038.7 -7.44068e-11 47826.3 -5.71651e-11 30907)
(232962 -38549.6 -5.70858e-11 37718.5 -4.17263e-11 27791.8)
(214189 -20760.9 -4.57064e-11 30476.7 -3.17459e-11 25434.6)
(198983 -8927.63 -3.79502e-11 24835.9 -2.51101e-11 23523.7)
(186381 -809.882 -3.25066e-11 20483.4 -2.05681e-11 21956.9)
(175695 4862.97 -2.85954e-11 17017 -1.74027e-11 20639.8)
(166489 8891.48 -2.5727e-11 14201.9 -1.51628e-11 19514.2)
(158421 11753.3 -2.36165e-11 11951.7 -1.35828e-11 18543.6)
(151182 14285.6 -2.16855e-11 9547.18 -1.2168e-11 17633.2)
(324189 -101581 -9.59195e-11 49336.7 -7.61134e-11 37073.2)
(278156 -60763.1 -7.18682e-11 47142.8 -5.38899e-11 32847.6)
(245657 -35144.3 -5.60017e-11 41124.3 -3.97899e-11 29380.1)
(221923 -18384.4 -4.53617e-11 35823.4 -3.05416e-11 26737.4)
(203456 -7177.25 -3.79901e-11 30959.6 -2.43371e-11 24588.7)
(188661 516.405 -3.2765e-11 26842.8 -2.00741e-11 22832.9)
(176461 5882.89 -2.89806e-11 23330.2 -1.70998e-11 21363.7)
(166185 9682.41 -2.61871e-11 20330.8 -1.49953e-11 20115.3)
(157352 12354.6 -2.41251e-11 17824.6 -1.3521e-11 19043.9)
(149556 14693.2 -2.22648e-11 15262.3 -1.22155e-11 18062.6)
(350518 -86878.1 -8.68549e-11 38938.9 -6.70621e-11 38665.6)
(295063 -54287.1 -6.83962e-11 45231.7 -4.99437e-11 34326.2)
(256285 -32355.8 -5.49653e-11 42868.5 -3.8155e-11 30596.7)
(228443 -17469.2 -4.55388e-11 39411.4 -3.00936e-11 27732)
(207211 -7229.9 -3.87562e-11 35341.3 -2.45047e-11 25391.3)
(190534 -55.1633 -3.38189e-11 31532.1 -2.05726e-11 23482.3)
(177024 5032.02 -3.01662e-11 28071.6 -1.77754e-11 21891)
(165819 8685.81 -2.74207e-11 25001.5 -1.57626e-11 20545.5)
(156321 11281.8 -2.53649e-11 22354.8 -1.43344e-11 19395.7)
(148032 13513.6 -2.35466e-11 19755.9 -1.30941e-11 18362.6)
(367408 -68394 -7.55904e-11 29360.1 -5.60723e-11 39477.1)
(307199 -47239.3 -6.42525e-11 41690.1 -4.56754e-11 35189.9)
(264574 -30226.3 -5.38452e-11 41948.8 -3.68048e-11 31313.6)
(233889 -17753.9 -4.59203e-11 40049.1 -3.02017e-11 28313.2)
(210591 -8682.54 -3.98569e-11 36798.3 -2.53309e-11 25847.8)
(192436 -2050.84 -3.52543e-11 33452.3 -2.17439e-11 23839.8)
(177862 2817.78 -3.17361e-11 30255.2 -1.90959e-11 22171.8)
(165874 6422.99 -2.90232e-11 27345.7 -1.71287e-11 20767.5)
(155796 9060.46 -2.6944e-11 24790.5 -1.56898e-11 19572.2)
(147061 11279 -2.51479e-11 22363.2 -1.44708e-11 18513.9)
(372595 -48072.9 -6.31949e-11 20897.4 -4.42759e-11 39303.6)
(315463 -41024.4 -6.0145e-11 35887.9 -4.18292e-11 35446.8)
(272132 -29440.9 -5.29586e-11 37680.8 -3.60685e-11 31607.8)
(239997 -19504.7 -4.65774e-11 36944.1 -3.0954e-11 28563.5)
(215288 -11574.7 -4.124e-11 34550.9 -2.67789e-11 26039.9)
(195937 -5376.61 -3.69496e-11 31880 -2.34812e-11 23982.4)
(180386 -588.979 -3.35358e-11 29243.3 -2.09173e-11 22277.4)
(167601 3106.84 -3.08247e-11 26815 -1.89322e-11 20846.9)
(156870 5919.38 -2.86933e-11 24667.5 -1.7423e-11 19632.4)
(147596 8222.09 -2.69025e-11 22680.7 -1.61843e-11 18568.3)
(363343 -23803 -4.85795e-11 14549.8 -3.05769e-11 38006)
(317222 -30559.5 -5.32242e-11 28036.2 -3.56137e-11 34915.8)
(276801 -24616 -4.9166e-11 29370.5 -3.29405e-11 31254.3)
(244868 -17472 -4.43659e-11 28820.8 -2.93906e-11 28221.9)
(219659 -10983.6 -3.9931e-11 27206 -2.60621e-11 25716.1)
(199642 -5489.27 -3.6156e-11 25490.1 -2.32091e-11 23685.4)
(183425 -1027.31 -3.30556e-11 23858.6 -2.0881e-11 22016)
(170027 2541.02 -3.05431e-11 22396.6 -1.90185e-11 20624.1)
(158747 5338.72 -2.85361e-11 21124.3 -1.75641e-11 19445.9)
(148990 7570.34 -2.6898e-11 19980.2 -1.64091e-11 18420.6)
(-788.06 216.388 -2.4415e-11 -378.726 -2.17966e-11 2005.57)
(-224.427 -671.767 -2.5046e-11 468.768 -2.23217e-11 2137)
(3502.31 -2252.57 -2.60113e-11 471.104 -2.31504e-11 2477.56)
(10013 -3630.51 -2.69036e-11 291.645 -2.38175e-11 3066.96)
(17943.8 -4548.93 -2.7574e-11 109.425 -2.42072e-11 3795.8)
(26389.5 -5060.63 -2.80367e-11 -35.523 -2.43638e-11 4581.34)
(34732.2 -5263.76 -2.8332e-11 -139.057 -2.43515e-11 5364.15)
(42652.3 -5253.94 -2.85045e-11 -207.868 -2.4228e-11 6112.23)
(49914.7 -5095.64 -2.85813e-11 -258.944 -2.40318e-11 6800.84)
(56587.6 -4920.18 -2.86445e-11 -245.989 -2.38374e-11 7439.91)
(523.044 -448.058 -2.47933e-11 -522.505 -2.21422e-11 2109.68)
(5748.05 -3897.78 -2.72943e-11 2620.37 -2.41311e-11 2894.45)
(13602.6 -7831.67 -2.96855e-11 2778.06 -2.6221e-11 3622.06)
(22310.7 -10926.8 -3.14889e-11 1969.01 -2.77874e-11 4340.77)
(31007.8 -12907.5 -3.26533e-11 1018.4 -2.87255e-11 5054.55)
(39251.4 -13959.1 -3.33093e-11 188.536 -2.91562e-11 5746.13)
(46834.6 -14312 -3.35899e-11 -455.394 -2.92148e-11 6400.27)
(53715.4 -14186.7 -3.36145e-11 -923.475 -2.90244e-11 7009.81)
(59805.8 -13710.4 -3.34465e-11 -1253.09 -2.86554e-11 7561.38)
(65377.2 -13230.5 -3.3294e-11 -1375.2 -2.8301e-11 8084.55)
(2114.08 -3022.25 -2.658e-11 1653.09 -2.36525e-11 2458.06)
(11944.6 -10182.6 -3.14469e-11 6142.65 -2.7706e-11 3783.59)
(23311.5 -15314.8 -3.45297e-11 5921.25 -3.03973e-11 4796.21)
(34041.9 -18707.6 -3.6381e-11 3992.54 -3.20513e-11 5591.14)
(43612.3 -20569.6 -3.73244e-11 1850.29 -3.2858e-11 6268.21)
(51902.7 -21325.1 -3.76647e-11 -10.3562 -3.30775e-11 6862.37)
(59019.4 -21303.6 -3.76071e-11 -1462.81 -3.28981e-11 7393.44)
(65135.4 -20770.1 -3.72992e-11 -2529.9 -3.24644e-11 7873.09)
(70293.1 -19871.1 -3.68142e-11 -3266.21 -3.1855e-11 8298.44)
(74955.4 -19022.4 -3.63976e-11 -3647.65 -3.12965e-11 8712.11)
(5341.28 -7599.01 -3.00122e-11 7190.53 -2.64051e-11 3284.98)
(20242.7 -18231 -3.6725e-11 10328.4 -3.22645e-11 4923.84)
(34490.3 -23676.8 -3.98399e-11 8682.16 -3.50264e-11 6063.39)
(46711.7 -26472.9 -4.11864e-11 5336.68 -3.62633e-11 6862.12)
(56810.6 -27480.8 -4.14915e-11 1997.68 -3.65323e-11 7476.08)
(64994.7 -27398.9 -4.12241e-11 -817.817 -3.62437e-11 7971.02)
(71614.1 -26638.2 -4.06375e-11 -2999.36 -3.56269e-11 8387.57)
(77005.3 -25472.2 -3.98816e-11 -4604.94 -3.48266e-11 8749.38)
(81303.4 -24038.4 -3.90245e-11 -5713.13 -3.39146e-11 9060.07)
(85137.8 -22760.8 -3.83149e-11 -6336.88 -3.31179e-11 9374.26)
(11107.4 -14457.6 -3.52506e-11 15979.9 -3.05385e-11 4662.75)
(31522.2 -27166.2 -4.26413e-11 15027.5 -3.72974e-11 6392.04)
(48051.5 -31971.9 -4.50884e-11 10895.5 -3.95593e-11 7502.59)
(61070.4 -33496.7 -4.5496e-11 5839.27 -3.99992e-11 8215.62)
(71130.1 -33180.3 -4.48934e-11 1333.15 -3.9478e-11 8719.77)
(78819.1 -31940.5 -4.38515e-11 -2300.11 -3.8514e-11 9095.37)
(84702.8 -30231 -4.26358e-11 -5059.43 -3.73525e-11 9392.07)
(89237.2 -28305.6 -4.13785e-11 -7072.13 -3.61226e-11 9638.02)
(92623.5 -26277.5 -4.013e-11 -8451.95 -3.48801e-11 9839.74)
(95605.8 -24535.7 -3.91178e-11 -9245.29 -3.38292e-11 10059.9)
(20274.6 -23866.1 -4.23545e-11 27279.4 -3.61569e-11 6595.63)
(46026.1 -36316.1 -4.87924e-11 19987.6 -4.24148e-11 8192.13)
(64086 -39376.5 -4.98233e-11 12575.8 -4.35355e-11 9131.9)
(77143.6 -39069.6 -4.89417e-11 5661.83 -4.28702e-11 9677.17)
(86560.1 -37159.2 -4.72824e-11 91.7975 -4.14213e-11 10027)
(93322.3 -34635.6 -4.54131e-11 -4179.12 -3.97258e-11 10261.5)
(98180.9 -31926.5 -4.35595e-11 -7334.74 -3.80034e-11 10429.7)
(101675 -29233.3 -4.18146e-11 -9599.43 -3.6349e-11 10558.1)
(104048 -26631.3 -4.02014e-11 -11132.9 -3.47937e-11 10653.2)
(106103 -24443.5 -3.89083e-11 -12003.9 -3.35037e-11 10781.3)
(33650.4 -35795.8 -5.1153e-11 39908.6 -4.31807e-11 9040.98)
(63640.7 -45134 -5.48366e-11 24971.4 -4.73029e-11 10294.3)
(82231.5 -45323.8 -5.3753e-11 13940.7 -4.66533e-11 10944.1)
(94537.2 -42732.5 -5.1319e-11 5212.33 -4.46433e-11 11254.9)
(102740 -39094.7 -4.85388e-11 -1269.54 -4.22073e-11 11412.8)
(108178 -35288.3 -4.58575e-11 -6005.57 -3.97941e-11 11486)
(111743 -31635.3 -4.34148e-11 -9401.7 -3.75528e-11 11515.2)
(114018 -28249.8 -4.12382e-11 -11790.8 -3.55237e-11 11521.4)
(115276 -25154.1 -3.93159e-11 -13386.1 -3.37063e-11 11508.5)
(116312 -22583.2 -3.77852e-11 -14262.7 -3.22172e-11 11542.5)
(51898.7 -49824.5 -6.12227e-11 52481.2 -5.13034e-11 11925.2)
(84031.5 -53164.4 -6.04801e-11 29756.5 -5.17018e-11 12648.3)
(101895 -49492.7 -5.67272e-11 15267 -4.87541e-11 12913.9)
(112645 -44294.8 -5.25789e-11 4968.1 -4.5242e-11 12941.5)
(119121 -38899.8 -4.86786e-11 -2220.36 -4.18185e-11 12879.5)
(122902 -33892.2 -4.52476e-11 -7259.13 -3.87453e-11 12775.3)
(124954 -29416.8 -4.22951e-11 -10772.3 -3.60614e-11 12656.4)
(125874 -25469.6 -3.97701e-11 -13195.9 -3.37369e-11 12535.1)
(125942 -22004.4 -3.76134e-11 -14801.3 -3.17303e-11 12411.3)
(125878 -19143.8 -3.59017e-11 -15638.7 -3.00967e-11 12347)
(75403.7 -65118.9 -7.19048e-11 63603.1 -5.99929e-11 15151.3)
(106731 -60034.8 -6.54812e-11 34175.2 -5.54033e-11 15196.1)
(122417 -51786.3 -5.87196e-11 16844.6 -4.98064e-11 15008.7)
(130814 -43818.6 -5.28072e-11 5383.62 -4.47302e-11 14720.1)
(135100 -36721.9 -4.78433e-11 -2267.72 -4.0368e-11 14418.4)
(136947 -30645 -4.37506e-11 -7457.7 -3.6719e-11 14124.7)
(137318 -25500.2 -4.03846e-11 -10993.4 -3.36848e-11 13849.4)
(136776 -21146.8 -3.76021e-11 -13398.4 -3.11557e-11 13594.6)
(135609 -17449.5 -3.52873e-11 -15001.3 -2.90372e-11 13355.4)
(134391 -14408.6 -3.34474e-11 -15848.1 -2.73194e-11 13182)
(104143 -80496 -8.23623e-11 72056.1 -6.85348e-11 18604.4)
(131192 -65462.4 -6.96537e-11 38114.8 -5.82526e-11 17876.8)
(143156 -52292.7 -5.97991e-11 18921.5 -4.98792e-11 17191.9)
(148430 -41565.3 -5.21874e-11 6818.12 -4.3279e-11 16566.3)
(150115 -32898.5 -4.62619e-11 -1032.74 -3.8069e-11 16011.3)
(149806 -25913.3 -4.16122e-11 -6237.49 -3.39434e-11 15519.1)
(148375 -20264 -3.79301e-11 -9725.79 -3.06557e-11 15081.6)
(146324 -15670.7 -3.49885e-11 -12068.8 -2.80171e-11 14691.5)
(143956 -11949.9 -3.26328e-11 -13668.1 -2.59031e-11 14338.4)
(141531 -9078.18 -3.08885e-11 -14305.9 -2.43066e-11 14069.6)
(62461.5 -4510.04 -2.85508e-11 -284.217 -2.35214e-11 7999.81)
(67592.9 -3996.74 -2.83919e-11 -255.122 -2.31613e-11 8496.73)
(72226.6 -3538.09 -2.82517e-11 -225.707 -2.28391e-11 8945.76)
(76348.2 -3118.74 -2.81211e-11 -197.355 -2.25463e-11 9345.48)
(80011 -2738.94 -2.80015e-11 -171.551 -2.22822e-11 9700.84)
(83250.6 -2398.17 -2.78926e-11 -149.251 -2.20457e-11 10015.2)
(86108.3 -2092.67 -2.77939e-11 -129.182 -2.18345e-11 10292.5)
(88618.8 -1819.11 -2.77043e-11 -112.191 -2.1646e-11 10536.1)
(90815 -1573.75 -2.76224e-11 -97.8559 -2.14776e-11 10749.2)
(92725.2 -1352.72 -2.75469e-11 -85.9627 -2.13269e-11 10934.6)
(94374.1 -1152.13 -2.74765e-11 -76.4057 -2.11914e-11 11094.7)
(95782 -968.71 -2.74093e-11 -68.9725 -2.10689e-11 11231.4)
(96966.1 -798.99 -2.7344e-11 -63.3445 -2.09571e-11 11346.4)
(97939.6 -640.563 -2.72798e-11 -59.4155 -2.08547e-11 11441.1)
(98713.4 -491.223 -2.72156e-11 -56.867 -2.07601e-11 11516.5)
(99297 -350.369 -2.71518e-11 -54.7432 -2.06731e-11 11573.7)
(99699.2 -219.471 -2.70893e-11 -51.7699 -2.05943e-11 11613.6)
(99936 -104.275 -2.70322e-11 -44.2305 -2.05269e-11 11638)
(100023 -18.5466 -2.69891e-11 -24.6917 -2.04785e-11 11649)
(100022 8.78234 -2.69824e-11 28.2965 -2.04656e-11 11654.7)
(69843.2 -12174 -3.27937e-11 -1516.11 -2.764e-11 8505.97)
(73509.1 -10863.6 -3.21632e-11 -1451.87 -2.68576e-11 8874.28)
(76934.7 -9698.46 -3.1615e-11 -1337.93 -2.61622e-11 9223.41)
(80019.2 -8610.98 -3.11032e-11 -1216.56 -2.55153e-11 9540.06)
(82816.3 -7613.78 -3.06349e-11 -1095.29 -2.49233e-11 9828.39)
(85331.4 -6708.51 -3.02091e-11 -981.772 -2.4386e-11 10088.2)
(87587.5 -5888.51 -2.98236e-11 -878.026 -2.38998e-11 10321.6)
(89601 -5147.43 -2.94736e-11 -785.641 -2.34608e-11 10529.9)
(91389.7 -4477.03 -2.91564e-11 -705.15 -2.3064e-11 10714.9)
(92969.5 -3868.85 -2.88667e-11 -636.446 -2.27043e-11 10878.2)
(94355.5 -3314.45 -2.86009e-11 -578.785 -2.23772e-11 11021.5)
(95561.1 -2805.69 -2.83544e-11 -531.638 -2.20777e-11 11146)
(96598.3 -2335.36 -2.81238e-11 -493.516 -2.18017e-11 11253.2)
(97478.1 -1897.22 -2.79062e-11 -462.402 -2.15454e-11 11344.3)
(98210.3 -1487.22 -2.77002e-11 -435.537 -2.1307e-11 11420.7)
(98805 -1103.95 -2.75057e-11 -407.715 -2.10855e-11 11483.8)
(99270.3 -750.547 -2.73264e-11 -371.08 -2.08831e-11 11535.3)
(99618.8 -437.902 -2.71703e-11 -310.34 -2.0706e-11 11577.6)
(99850 -184.925 -2.7052e-11 -199.585 -2.05664e-11 11613.3)
(99994.5 -35.3181 -2.70033e-11 10.1382 -2.04899e-11 11649.8)
(78135.3 -17489.3 -3.5591e-11 -3864.38 -3.03846e-11 9007.67)
(80362.5 -15717.6 -3.46799e-11 -3737.91 -2.93683e-11 9249.56)
(82584.8 -14120.8 -3.38864e-11 -3470.42 -2.8456e-11 9503.64)
(84605.8 -12630.1 -3.31505e-11 -3182.01 -2.76068e-11 9739.66)
(86499.6 -11246.4 -3.24721e-11 -2886.27 -2.68196e-11 9963.31)
(88242.1 -9978.16 -3.18513e-11 -2603.7 -2.60983e-11 10170.1)
(89846.2 -8816.92 -3.12849e-11 -2341.2 -2.54382e-11 10360.6)
(91311.3 -7757.77 -3.07671e-11 -2104.4 -2.48357e-11 10534.4)
(92642.9 -6791.3 -3.02939e-11 -1894.89 -2.42859e-11 10691.7)
(93845.5 -5908.89 -2.98599e-11 -1713.31 -2.37837e-11 10833.1)
(94925.1 -5100.79 -2.94599e-11 -1558.59 -2.33233e-11 10959.3)
(95887.4 -4357.43 -2.90899e-11 -1428.62 -2.29001e-11 11071.3)
(96738.8 -3670.2 -2.87449e-11 -1320.52 -2.25087e-11 11169.9)
(97485.3 -3031.94 -2.84224e-11 -1229.72 -2.21453e-11 11256.4)
(98133.5 -2436.79 -2.81195e-11 -1149.13 -2.1807e-11 11331.9)
(98688.6 -1882.12 -2.78368e-11 -1068.74 -2.14926e-11 11398.2)
(99154 -1368.02 -2.75773e-11 -971.897 -2.12032e-11 11457.3)
(99533.5 -899.954 -2.73472e-11 -832.683 -2.09424e-11 11512)
(99808.9 -488.216 -2.71582e-11 -610.43 -2.07181e-11 11564.8)
(100003 -136.682 -2.70214e-11 -249.175 -2.05349e-11 11623.3)
(87102.5 -20858 -3.72658e-11 -6610.53 -3.20147e-11 9551.71)
(87914.9 -18882.4 -3.62172e-11 -6422.47 -3.09079e-11 9666.9)
(88957.2 -17056.7 -3.52931e-11 -5996.12 -2.98919e-11 9826.82)
(89912.1 -15367.6 -3.44463e-11 -5540.36 -2.89548e-11 9980.07)
(90888.8 -13778.9 -3.36589e-11 -5061.87 -2.80744e-11 10136.8)
(91832.6 -12310.7 -3.29358e-11 -4597.72 -2.72612e-11 10287.8)
(92751.3 -10951.8 -3.22688e-11 -4159.37 -2.65082e-11 10432.7)
(93629.9 -9700.66 -3.16553e-11 -3757.66 -2.58144e-11 10569.1)
(94464.3 -8549.31 -3.10899e-11 -3397.25 -2.51751e-11 10696.1)
(95248.6 -7490.29 -3.05681e-11 -3079.85 -2.45862e-11 10813.1)
(95980.3 -6514.94 -3.00853e-11 -2804.72 -2.40431e-11 10920)
(96657.5 -5614.49 -2.96365e-11 -2569.83 -2.35406e-11 11016.9)
(97280 -4780.32 -2.92182e-11 -2370.62 -2.30745e-11 11104.4)
(97848.3 -4004.76 -2.88269e-11 -2200.82 -2.26406e-11 11183.1)
(98362.6 -3281.11 -2.84601e-11 -2050.67 -2.22356e-11 11254.2)
(98823.3 -2603.57 -2.81166e-11 -1906.47 -2.18569e-11 11319.2)
(99226.5 -1968.12 -2.77971e-11 -1748.03 -2.15031e-11 11379.7)
(99569.5 -1370.49 -2.75034e-11 -1546.06 -2.11733e-11 11438.6)
(99822.2 -810.483 -2.72417e-11 -1259.03 -2.08694e-11 11497.1)
(100013 -246.466 -2.69961e-11 -834.17 -2.05703e-11 11563.7)
(96397.9 -22365.1 -3.78903e-11 -9533.8 -3.25927e-11 10126.6)
(95815.4 -20431.1 -3.68382e-11 -9303.58 -3.15312e-11 10112.7)
(95724.5 -18552 -3.58805e-11 -8719.33 -3.05088e-11 10181.2)
(95634.5 -16846.4 -3.50223e-11 -8110.45 -2.95844e-11 10250.5)
(95710.9 -15214 -3.42153e-11 -7456.75 -2.87004e-11 10339.6)
(95857.5 -13693.7 -3.34711e-11 -6814.09 -2.78776e-11 10433.2)
(96084.2 -12269.5 -3.27777e-11 -6197.88 -2.7106e-11 10530.9)
(96361.7 -10944.5 -3.2134e-11 -5624.99 -2.63871e-11 10628.1)
(96678.3 -9713.02 -3.15355e-11 -5103.5 -2.57177e-11 10722.8)
(97019.3 -8570.62 -3.0979e-11 -4637.86 -2.50953e-11 10813.4)
(97374.5 -7510.81 -3.04601e-11 -4228.82 -2.45163e-11 10898.9)
(97735 -6526.83 -2.99756e-11 -3874.68 -2.39771e-11 10978.5)
(98093.8 -5611.22 -2.95213e-11 -3571.08 -2.34739e-11 11052.2)
(98445.7 -4756.4 -2.90938e-11 -3310.71 -2.30028e-11 11120.2)
(98785.8 -3954.31 -2.86908e-11 -3083.57 -2.256e-11 11183.2)
(99108.1 -3196.92 -2.83089e-11 -2874.7 -2.21415e-11 11242.4)
(99403.6 -2475.01 -2.7947e-11 -2663.8 -2.17433e-11 11298.7)
(99665.6 -1775.61 -2.76011e-11 -2423.92 -2.13595e-11 11354.7)
(99859.6 -1089.99 -2.72707e-11 -2118.21 -2.09873e-11 11410.8)
(100018 -341.281 -2.69203e-11 -1703.22 -2.0585e-11 11475.1)
(105762 -22121.4 -3.75721e-11 -12278.5 -3.21997e-11 10742.8)
(103810 -20476.3 -3.66434e-11 -12073.9 -3.13183e-11 10593)
(102652 -18704.3 -3.5739e-11 -11361 -3.0377e-11 10571.8)
(101554 -17144.9 -3.49548e-11 -10641 -2.95537e-11 10554.9)
(100765 -15610.3 -3.42022e-11 -9845.89 -2.87432e-11 10574.9)
(100135 -14166.8 -3.35041e-11 -9052.13 -2.79811e-11 10609.2)
(99680.9 -12793.7 -3.28463e-11 -8278.54 -2.72549e-11 10657.4)
(99359.2 -11499 -3.22288e-11 -7548.18 -2.65687e-11 10713.2)
(99152.4 -10280.8 -3.16479e-11 -6873.66 -2.5921e-11 10773.5)
(99038.2 -9138.31 -3.11019e-11 -6262.87 -2.53116e-11 10835.4)
(98999.3 -8068.48 -3.05878e-11 -5719.6 -2.47384e-11 10897)
(99021.3 -7067.13 -3.01036e-11 -5243.66 -2.42e-11 10956.9)
(99091.6 -6128.73 -2.96454e-11 -4832.39 -2.36929e-11 11014.2)
(99199 -5246.45 -2.92107e-11 -4479.64 -2.32141e-11 11068.6)
(99333.5 -4412.22 -2.87962e-11 -4176.36 -2.27595e-11 11120.2)
(99485.7 -3615.54 -2.83975e-11 -3909.4 -2.23243e-11 11169.3)
(99642.6 -2843.51 -2.80098e-11 -3661.56 -2.19018e-11 11216.7)
(99795 -2076.5 -2.7625e-11 -3410.74 -2.14822e-11 11264)
(99910.4 -1300.47 -2.72389e-11 -3129.12 -2.10595e-11 11310.9)
(100019 -412.978 -2.68007e-11 -2783.05 -2.05774e-11 11364.8)
(114905 -20237.8 -3.64123e-11 -14527.9 -3.0916e-11 11403.5)
(111641 -19129.2 -3.57282e-11 -14472.1 -3.03469e-11 11108.5)
(109510 -17616.2 -3.4952e-11 -13703.6 -2.95665e-11 10997.8)
(107464 -16347.7 -3.43126e-11 -12941.9 -2.89214e-11 10892.1)
(105861 -15039.2 -3.36789e-11 -12063.6 -2.82525e-11 10840.9)
(104496 -13785.9 -3.3084e-11 -11164.3 -2.76121e-11 10813.9)
(103388 -12565.4 -3.25135e-11 -10269.2 -2.69859e-11 10810.8)
(102486 -11391.9 -3.19685e-11 -9408.39 -2.63815e-11 10823.3)
(101765 -10268.3 -3.14477e-11 -8600.51 -2.58e-11 10847.2)
(101197 -9198.32 -3.09507e-11 -7858.46 -2.52436e-11 10878.6)
(100760 -8183.47 -3.0476e-11 -7190 -2.47124e-11 10914.4)
(100434 -7222.89 -3.00232e-11 -6598.42 -2.42068e-11 10952.4)
(100201 -6314.02 -2.95898e-11 -6083.94 -2.37252e-11 10991.2)
(100047 -5451.52 -2.91728e-11 -5642.83 -2.32652e-11 11029.4)
(99957.2 -4627.71 -2.8769e-11 -5269.15 -2.28228e-11 11066.6)
(99918.9 -3831.36 -2.8373e-11 -4953.66 -2.23924e-11 11102.5)
(99917.6 -3047.11 -2.79783e-11 -4684.05 -2.19665e-11 11137.2)
(99943.2 -2251.23 -2.75726e-11 -4445.34 -2.15321e-11 11171.3)
(99969 -1427.29 -2.715e-11 -4219.68 -2.10815e-11 11204.5)
(100018 -457.279 -2.66473e-11 -3986.07 -2.05493e-11 11242.1)
(123499 -16869.1 -3.45335e-11 -15980.3 -2.88459e-11 12107.1)
(119045 -16516.8 -3.41956e-11 -16228.3 -2.8703e-11 11660.6)
(116067 -15412.1 -3.36157e-11 -15531.1 -2.816e-11 11458)
(113175 -14547.9 -3.31737e-11 -14816.1 -2.7751e-11 11263.1)
(110830 -13577.8 -3.27092e-11 -13940.5 -2.72816e-11 11137.6)
(108790 -12609.7 -3.22621e-11 -13006.1 -2.68118e-11 11047.3)
(107074 -11630.7 -3.18198e-11 -12048.2 -2.63321e-11 10990.2)
(105624 -10658.5 -3.13859e-11 -11103.5 -2.58517e-11 10957.1)
(104411 -9701.8 -3.09607e-11 -10197.5 -2.53751e-11 10942.6)
(103404 -8769.67 -3.05447e-11 -9349.99 -2.49063e-11 10941.4)
(102575 -7868.09 -3.01399e-11 -8574.49 -2.44491e-11 10949.8)
(101903 -7000.65 -2.97457e-11 -7879.8 -2.40049e-11 10964.4)
(101364 -6168.08 -2.93611e-11 -7270.6 -2.35745e-11 10982.9)
(100942 -5367.79 -2.89842e-11 -6748.25 -2.31568e-11 11003.2)
(100619 -4593.7 -2.8612e-11 -6311.18 -2.27484e-11 11024.1)
(100380 -3835.17 -2.82382e-11 -5955.45 -2.23439e-11 11044.7)
(100211 -3076.71 -2.78549e-11 -5675.32 -2.1935e-11 11064.1)
(100101 -2292.46 -2.74488e-11 -5464.43 -2.1508e-11 11082.4)
(100031 -1465.78 -2.70107e-11 -5316.3 -2.1054e-11 11098.7)
(100014 -472.18 -2.64731e-11 -5222.21 -2.05033e-11 11116)
(131282 -12327.4 -3.21384e-11 -16395.1 -2.61782e-11 12849.7)
(125796 -12882.7 -3.22144e-11 -17083.7 -2.65378e-11 12251.5)
(122086 -12371.5 -3.18968e-11 -16718.7 -2.63221e-11 11939.8)
(118501 -11986.7 -3.16795e-11 -16170.6 -2.61836e-11 11657.4)
(115502 -11441 -3.14205e-11 -15393.2 -2.59565e-11 11455.6)
(112874 -10817.1 -3.11457e-11 -14487.7 -2.56861e-11 11302.9)
(110611 -10130.6 -3.08545e-11 -13517.8 -2.53782e-11 11192.3)
(108664 -9404.65 -3.05516e-11 -12531.1 -2.50445e-11 11113.8)
(106998 -8657.62 -3.0241e-11 -11563.6 -2.46942e-11 11060.3)
(105580 -7904.24 -2.99259e-11 -10641.9 -2.43347e-11 11025.8)
(104380 -7155.87 -2.96086e-11 -9785.89 -2.39717e-11 11005.5)
(103373 -6419.79 -2.92914e-11 -9010.08 -2.36094e-11 10995.3)
(102537 -5700.35 -2.89739e-11 -8324.2 -2.32501e-11 10992)
(101849 -4997.89 -2.86549e-11 -7734.96 -2.28936e-11 10992.9)
(101293 -4308.45 -2.83318e-11 -7246.39 -2.25382e-11 10996)
(100851 -3622.95 -2.79978e-11 -6860.92 -2.21787e-11 10999.5)
(100511 -2927.1 -2.76452e-11 -6580.69 -2.18073e-11 11002.2)
(100261 -2195.77 -2.72592e-11 -6408.24 -2.141e-11 11002.8)
(100096 -1412.99 -2.68303e-11 -6348.77 -2.09781e-11 11000.4)
(100010 -457.079 -2.62893e-11 -6408.24 -2.04428e-11 10995.2)
(137632 -6485.07 -2.91283e-11 -15860 -2.28466e-11 13564.5)
(132038 -7628.88 -2.95311e-11 -16528.1 -2.35373e-11 12952.6)
(127650 -7955.62 -2.95697e-11 -16789.6 -2.37721e-11 12504.7)
(123574 -8160.42 -2.96081e-11 -16643.5 -2.39522e-11 12129)
(119984 -8207.26 -2.96151e-11 -16195.2 -2.40502e-11 11831.9)
(116811 -8094.2 -2.95787e-11 -15506.5 -2.40633e-11 11600.5)
(114028 -7849.91 -2.95021e-11 -14660.2 -2.40045e-11 11423.5)
(111603 -7499.11 -2.93886e-11 -13724.5 -2.38852e-11 11290.6)
(109499 -7068.13 -2.9243e-11 -12754.9 -2.37178e-11 11192.7)
(107685 -6580.09 -2.9071e-11 -11795.1 -2.35137e-11 11121.8)
(106129 -6054.63 -2.88783e-11 -10878.7 -2.32833e-11 11071.6)
(104803 -5506.78 -2.8668e-11 -10030.9 -2.30339e-11 11036.4)
(103680 -4947.1 -2.8443e-11 -9270.88 -2.27711e-11 11011.9)
(102737 -4381.68 -2.82048e-11 -8613.57 -2.24978e-11 10994.2)
(101955 -3811.05 -2.795e-11 -8070.09 -2.22144e-11 10980.2)
(101316 -3230.13 -2.76743e-11 -7651.07 -2.19178e-11 10967.3)
(100807 -2628.09 -2.73706e-11 -7366.91 -2.16015e-11 10953.4)
(100419 -1983.49 -2.70238e-11 -7230.03 -2.12531e-11 10936.3)
(100157 -1283.43 -2.66253e-11 -7257.32 -2.08646e-11 10915.2)
(100003 -415.651 -2.61089e-11 -7470.45 -2.03729e-11 10887)
(140943 -2248.02 -2.70039e-11 -14870.2 -2.04758e-11 14020.7)
(135542 -2738.67 -2.70365e-11 -15621.8 -2.07953e-11 13424.8)
(130880 -3785.86 -2.74117e-11 -16263.5 -2.14195e-11 12905.4)
(126672 -4413.82 -2.764e-11 -16399.8 -2.18255e-11 12484.5)
(122874 -4857.77 -2.78289e-11 -16177.7 -2.21382e-11 12140.8)
(119468 -5120.36 -2.79678e-11 -15677.7 -2.23565e-11 11864.5)
(116432 -5226.47 -2.80576e-11 -14978.7 -2.24906e-11 11645)
(113743 -5200.15 -2.81014e-11 -14152.4 -2.25513e-11 11472.9)
(111376 -5064.97 -2.81022e-11 -13258.2 -2.25496e-11 11339.4)
(109304 -4844.07 -2.80655e-11 -12345.2 -2.24964e-11 11236.7)
(107502 -4557.88 -2.79958e-11 -11453 -2.24022e-11 11158.3)
(105944 -4223.46 -2.78975e-11 -10612.6 -2.2275e-11 11098.3)
(104606 -3854.35 -2.7774e-11 -9849.93 -2.21219e-11 11051.7)
(103466 -3459.11 -2.76261e-11 -9185.71 -2.1947e-11 11014.2)
(102505 -3042.37 -2.74527e-11 -8637.89 -2.17521e-11 10982.2)
(101707 -2602.5 -2.7251e-11 -8223.64 -2.15364e-11 10952.3)
(101062 -2133.63 -2.70145e-11 -7961.57 -2.12955e-11 10921.9)
(100561 -1620.46 -2.67308e-11 -7872.26 -2.102e-11 10888)
(100218 -1054.57 -2.63932e-11 -7983.02 -2.07042e-11 10849.5)
(100001 -341.148 -2.59412e-11 -8327.92 -2.02936e-11 10800.5)
(138294 2059.05 -2.48659e-11 -12748.5 -1.82023e-11 14024.4)
(134082 1407.7 -2.48621e-11 -14541.6 -1.85483e-11 13434.5)
(130051 90.3681 -2.5373e-11 -15381.7 -1.93058e-11 12952.5)
(126289 -849.572 -2.57533e-11 -15733.1 -1.98699e-11 12549.3)
(122835 -1596.14 -2.60915e-11 -15690.5 -2.03389e-11 12217.3)
(119671 -2155.81 -2.63766e-11 -15350.6 -2.07123e-11 11945)
(116799 -2548.44 -2.66085e-11 -14793.6 -2.09978e-11 11724)
(114208 -2796.61 -2.6789e-11 -14088.9 -2.12051e-11 11546.3)
(111886 -2921.69 -2.69203e-11 -13296.7 -2.13436e-11 11404.3)
(109821 -2945.21 -2.70064e-11 -12466.4 -2.14231e-11 11291.6)
(107995 -2886.34 -2.70531e-11 -11640 -2.14532e-11 11202)
(106391 -2762.46 -2.7063e-11 -10851.2 -2.14421e-11 11130.5)
(104993 -2587.33 -2.70392e-11 -10129 -2.13963e-11 11072.2)
(103785 -2371.1 -2.69839e-11 -9497.91 -2.13209e-11 11023.2)
(102753 -2120.27 -2.68967e-11 -8980.45 -2.12186e-11 10979.7)
(101885 -1837.29 -2.67758e-11 -8598.17 -2.10899e-11 10938.5)
(101175 -1520.03 -2.6616e-11 -8374.64 -2.0933e-11 10896.5)
(100618 -1160.95 -2.64093e-11 -8335.57 -2.07423e-11 10850.7)
(100236 -757.429 -2.61498e-11 -8516.09 -2.05144e-11 10799.9)
(99991.9 -242.857 -2.57938e-11 -8955.39 -2.02112e-11 10736.8)
(135994 6168.41 -2.27911e-11 -10998.1 -1.60178e-11 14021.7)
(132318 5302.3 -2.28754e-11 -13087.6 -1.6463e-11 13450.9)
(128903 3794.87 -2.34722e-11 -14158.2 -1.73072e-11 13002.4)
(125547 2614.72 -2.39628e-11 -14728.5 -1.799e-11 12613.3)
(122417 1611.9 -2.44208e-11 -14888.1 -1.85886e-11 12289.3)
(119490 790.696 -2.483e-11 -14731.4 -1.90966e-11 12018.5)
(116790 136.607 -2.5187e-11 -14336.9 -1.95185e-11 11795)
(114318 -367.809 -2.54913e-11 -13773.9 -1.9861e-11 11611.7)
(112072 -740.39 -2.57438e-11 -13101.9 -2.01311e-11 11462.4)
(110048 -999.447 -2.59473e-11 -12371.7 -2.03374e-11 11341.2)
(108236 -1162.82 -2.61047e-11 -11626.8 -2.04877e-11 11242.6)
(106626 -1246.54 -2.622e-11 -10903.6 -2.05898e-11 11161.8)
(105208 -1264.72 -2.62954e-11 -10234.3 -2.065e-11 11094.4)
(103969 -1228.77 -2.63326e-11 -9646.79 -2.06736e-11 11036.4)
(102900 -1147.25 -2.63334e-11 -9166.81 -2.06649e-11 10984)
(101993 -1026.11 -2.62958e-11 -8820.11 -2.06257e-11 10933.9)
(101246 -867.68 -2.62177e-11 -8633.53 -2.05563e-11 10883.2)
(100657 -673.237 -2.60953e-11 -8635.87 -2.04559e-11 10828.6)
(100253 -443.448 -2.59245e-11 -8865.87 -2.03234e-11 10768.9)
(99988.4 -139.689 -2.56754e-11 -9370.48 -2.01354e-11 10695.3)
(132816 9436.58 -2.11454e-11 -9359.86 -1.43108e-11 13916)
(129750 8496.78 -2.1267e-11 -11573.4 -1.4783e-11 13390)
(126937 6937.03 -2.18845e-11 -12796.1 -1.56411e-11 12982.9)
(124043 5635.93 -2.24274e-11 -13540.5 -1.6377e-11 12619.2)
(121299 4474.15 -2.2957e-11 -13874.2 -1.7051e-11 12312.7)
(118675 3471.47 -2.34492e-11 -13884.6 -1.76486e-11 12052.1)
(116216 2621.93 -2.38973e-11 -13645.6 -1.81692e-11 11833.9)
(113929 1915.72 -2.4297e-11 -13223.5 -1.86155e-11 11652.1)
(111823 1340.28 -2.4647e-11 -12676.5 -1.89915e-11 11501.6)
(109902 881.169 -2.4948e-11 -12054.7 -1.93032e-11 11377.2)
(108162 523.956 -2.52012e-11 -11402.5 -1.95567e-11 11274.3)
(106601 254.208 -2.54091e-11 -10757.5 -1.97584e-11 11188.5)
(105211 58.8965 -2.55733e-11 -10153.6 -1.99143e-11 11115.5)
(103987 -74.073 -2.56966e-11 -9620.56 -2.00297e-11 11051.7)
(102923 -155.057 -2.57807e-11 -9186.56 -2.01095e-11 10993.5)
(102015 -192.944 -2.58255e-11 -8879.25 -2.01574e-11 10937.8)
(101261 -193.478 -2.58301e-11 -8727.93 -2.01753e-11 10881.3)
(100667 -167.285 -2.57967e-11 -8761.6 -2.01679e-11 10821.6)
(100260 -114.097 -2.57171e-11 -9032.91 -2.0132e-11 10755.7)
(99988.2 -31.9103 -2.55863e-11 -9566.72 -2.00667e-11 10676.3)
(129088 12045.1 -1.98335e-11 -7850.28 -1.29747e-11 13738.6)
(126599 11088.5 -1.9976e-11 -10077 -1.3447e-11 13266.2)
(124352 9563.81 -2.0575e-11 -11385.5 -1.42738e-11 12904.6)
(121934 8223.22 -2.11325e-11 -12254 -1.50193e-11 12573.2)
(119600 6977.65 -2.16977e-11 -12727.8 -1.5728e-11 12290.9)
(117320 5859.37 -2.22409e-11 -12882.5 -1.63789e-11 12047.3)
(115147 4871.19 -2.27516e-11 -12784.8 -1.69665e-11 11840.8)