/*--------------------------------*- C++ -*----------------------------------*\
  =========                 |
  \\      /  F ield         | OpenFOAM: The Open Source CFD Toolbox
   \\    /   O peration     | Website:  https://openfoam.org
    \\  /    A nd           | Version:  9
     \\/     M anipulation  |
\*---------------------------------------------------------------------------*/
FoamFile
{
    format      ascii;
    class       volScalarField;
    location    "1";
    object      sigmaEq;
}
// * * * * * * * * * * * * * * * * * * * * * * * * * * * * * * * * * * * * * //

dimensions      [1 -1 -2 0 0 0 0];

internalField   nonuniform List<scalar> 
1000
(
191890
174729
168323
164883
162057
159239
156320
153307
150259
147253
225273
194480
180873
173281
167894
163369
159245
155339
151553
148152
257109
213306
192150
180059
171881
165524
160129
155304
150805
146957
286179
230879
202225
185420
174262
165962
159255
153523
148366
144067
311384
246821
211222
189724
175489
165171
157124
150492
144726
139974
331695
260673
219269
193444
176208
163863
154460
146922
140560
135330
346136
272214
226841
197465
177497
163176
152387
143886
136872
131085
353542
280995
234059
202317
180147
164039
151888
142367
134609
128164
352831
288677
242957
210104
186222
168402
154746
143963
135180
127817
340184
290668
250154
218454
194137
175319
160506
148590
138778
130457
2639.87
2402.86
4728.03
10713
18110.4
25969.8
33726.9
41095.9
47863.5
54082.7
2423.18
7387.72
17110
27006.4
35978.1
43866.5
50731.1
56733.3
61899.9
66626.1
5281.24
19078
32045
43673.8
53370.5
61234.8
67545.6
72643.5
76672.1
80282.3
13589.9
34324.7
49216.7
61266.2
70709
77988.6
83522.4
87722.5
90764.2
93442.2
26902.4
51991.2
67710.8
79315.6
87826
94055.2
98542.6
101730
103795
105585
45174.8
71280
86568.4
97046.6
104206
109114
112395
114495
115584
116490
68138.3
91594.3
105071
113815
119352
122811
124827
125828
125971
126001
95231
112456
122729
129172
132887
134839
135598
135537
134803
133975
125618
133469
139241
142860
144574
144980
144498
143418
141881
140271
158242
154313
154453
154762
154295
153109
151397
149340
147117
144622
59555.7
64296.7
68604
72450
75879
78920.2
81608.3
83974.2
86047
87852.2
89412.3
90745.6
91868
92791.5
93526.1
94080
94460.8
94681.4
94751.3
94717.4
70157.3
72840.7
75456.4
77869
80110.9
82170.8
84052.5
85758.4
87294.2
88666.4
89882
90948.7
91873
92661.7
93320.1
93853.3
94262.9
94550.4
94697.9
94702.6
82169
83008.6
83997.2
84958
85940.8
86915.9
87875.6
88803.8
89689.9
90524.7
91302.1
92017.3
92667.4
93250.1
93762.9
94201.4
94555.9
94811.4
94922.9
94875.5
93988.9
93328.5
92934.7
92623.3
92459.6
92410.1
92467.9
92610.2
92820.1
93079.2
93372.3
93685.9
94008.5
94329.3
94637
94918.5
95153.8
95318.7
95355.7
95256
105005
103142
101608
100233
99089.2
98136
97375.8
96784.3
96344.2
96034.1
95834.7
95727.3
95694.1
95718.6
95783.4
95868.4
95947.7
95994.4
95950.1
95815.9
114953
112134
109677
107428
105470
103748
102277
101030
99994.8
99150
98475.3
97950.6
97555.9
97270.6
97073.9
96943.6
96852.4
96773.9
96658.3
96512.1
123683
120127
116958
114007
111393
109034
106959
105144
103579
102248
101131
100210
99462.9
98870.7
98411.1
98062.5
97799.5
97600.4
97428.3
97291.2
131071
126974
123319
119828
116707
113843
111276
108985
106965
105204
103688
102399
101321
100435
99720.7
99159.9
98732.1
98421.4
98207.4
98096.6
137116
132596
128721
124877
121378
118120
115149
112459
110051
107917
106048
104430
103050
101893
100941
100182
99601.7
99190.6
98948
98874.8
141546
136879
132965
129051
125362
121871
118614
115613
112879
110419
108232
106312
104650
103236
102059
101108
100380
99872.8
99604.5
99574.2
143618
139017
135104
131262
127556
124014
120669
117549
114673
112055
109701
107609
105779
104205
102882
101807
100983
100415
100139
100146
139641
136819
133540
130214
126924
123711
120622
117693
114954
112425
110121
108050
106217
104625
103276
102175
101332
100760
100505
100559
136635
134434
131764
128879
125967
123054
120211
117476
114886
112467
110240
108220
106416
104837
103492
102391
101549
100984
100750
100835
133093
131469
129352
126924
124410
121831
119269
116767
114368
112103
109998
108071
106338
104812
103506
102434
101614
101071
100865
100967
129217
128077
126459
124475
122360
120130
117872
115631
113456
111379
109431
107635
106008
104568
103330
102312
101529
101030
100753
100947
125121
124390
123216
121649
119919
118038
116093
114131
112201
110339
108577
106941
105450
104125
102982
102039
101320
100851
100671
100759
120890
120505
119721
118535
117169
115628
113998
112324
110653
109025
107471
106018
104689
103502
102475
101626
100976
100544
100373
100451
116581
116485
116042
115203
114175
112962
111642
110258
108857
107476
106147
104897
103748
102718
101826
101086
100516
100133
99973.2
100022
112226
112374
112229
111703
110990
110089
109072
107978
106852
105727
104636
103604
102651
101796
101053
100436
99957.9
99631
99480.6
99495.9
107837
108195
108311
108072
107652
107051
106330
105525
104677
103816
102972
102168
101425
100757
100177
99694.3
99318.2
99055.1
98917.3
98896.2
103411
103953
104306
104333
104193
103882
103452
102936
102368
101776
101187
100621
100096
99625.3
99218.4
98881.5
98617
98425.8
98305.7
98251.3
98931.3
99648.2
100223
100506
100639
100613
100474
100248
99963.4
99645.8
99317.1
98995.4
98696
98430
98203.7
98020.1
97875.6
97765
97671
97589.3
94376.3
95270.6
96065.9
96605.6
97011.8
97274.8
97430.4
97498.8
97503.9
97465.6
97402.3
97329.8
97260.4
97203
97161.8
97136.5
97118.6
97096.5
97038.9
96940
89723.3
90813.7
91841.3
92649.5
93341.3
93903.3
94363.1
94734.8
95036.1
95283
95490
95669.5
95831.5
95983.3
96127.4
96261.1
96372.5
96444.9
96434.6
96331.9
84956.5
86277.8
87564.1
88665.1
89662.9
90541.9
91321.2
92008.3
92615.9
93154.5
93635.2
94067.4
94459.4
94816.6
95140.8
95429
95667.5
95836.4
95883.5
95792.2
80076.5
81680.4
83265.3
84694.7
86028.8
87249.8
88368
89385.6
90310
91146.8
91903.8
92587.3
93203.8
93758.2
94251.8
94682.6
95038
95298.1
95408.9
95345
75114.8
77067.9
79004
80806.3
82512.9
84104.7
85583.9
86948.1
88198.9
89339.2
90372.5
91302.8
92135.1
92872.9
93519.2
94072.7
94525.6
94861.6
95033.6
95008.8
70154.8
72533.9
74881.1
77105
79222.3
81213.5
83073.4
84796.7
86381.1
87825.5
89131.3
90300.1
91334.9
92238.7
93014.4
93663.4
94182.7
94564.6
94778.4
94795.3
65354.8
68234.9
71052.2
73741.4
76301.1
78711.7
80964.9
83051.8
84968.2
86711
88279.3
89673.1
90893.6
91942.3
92820.7
93531.4
94075.4
94455.9
94666.3
94706.4
60995.9
64435.9
67765.6
70942.8
73956.3
76788.3
79428.4
81867.6
84100.3
86123.3
87934.7
89533.2
90918.4
92088.8
93043.7
93782.2
94304.6
94619.3
94739.6
94725.4
123337
121544
122436
125540
129844
134520
138727
141874
143554
143256
116971
115855
117081
120191
124441
129200
133779
137625
140284
140955
111211
110659
112166
115230
119294
123855
128365
132398
135576
137438
105852
105784
107543
110586
114512
118921
123365
127493
130897
133434
100790
101145
103133
106166
109959
114191
118503
122629
126130
129127
95932
96665.6
98873.3
101918
105605
109675
113833
117889
121385
124646
91206
92285.8
94706.9
97782.7
101389
105313
109314
113266
116707
120092
86551.4
87956.2
90590.5
93715.7
97265.4
101064
104918
108747
112108
115522
81916.9
83634.8
86485.1
89676
93190.7
96883.7
100602
104305
107577
110960
77256.2
79285.6
82357.8
85627.7
89124
92728.4
96326.2
99904.4
103089
106408
72528.2
74877
78179
81536.2
85024.3
88552.6
92043
95504.9
98608.4
101848
67696.4
70382.8
73921.8
77367.8
80850
84308.7
87703.2
91059.3
94093
97252.9
62728.2
65782.4
69559.8
73085.1
76553.9
79944.3
83252.4
86516.2
89496
92586.3
57600.5
61063
65065.8
68644.6
72081.1
75399.5
78631
81821.2
84769.7
87811.6
52307.5
56222.4
60404.9
63987.8
67362.1
70605.3
73776.1
76919.9
79870.1
82895.8
46883.3
51269
55523.1
59032.3
62310.5
65484.3
68624.6
71765.6
74764.4
77822.4
41447.5
46212.3
50322.1
53655.8
56818.7
59957.8
63125.6
66331.6
69447.5
72604
36305.2
40993.8
44611
47687.7
50774.7
53970.1
57268.9
60640.3
63966.2
67308.4
31950.6
35318.8
38051.2
40910.4
44100.7
47539.2
51130.1
54804.2
58454.2
62087.5
29151.7
27811.4
30020.4
33182.2
36891.4
40853.9
44938.2
49073.3
53171.9
57223.5
)
;

boundaryField
{
    left
    {
        type            calculated;
        value           nonuniform List<scalar> 
30
(
123955
117256
111237
105666
100424
95411
90547.8
85768
81015.5
76240.3
71397.9
66446.5
61349.3
56075.9
50613.7
45000.6
39420.3
34491.8
31752.6
34609.2
333116
291446
253834
222596
197926
178523
163091
150599
140279
131501
)
;
    }
    right
    {
        type            calculated;
        value           nonuniform List<scalar> 
30
(
94696.2
94709.5
94878.8
95255.7
95815
96513
97295.3
98105.2
98887.3
99591.7
100162
100579
100853
100980
100944
100761
100448
100013
99480.4
98874.8
98224.4
97559.2
96908.5
96301.7
95766
95325.2
94998
94793.9
94708.9
94704.6
)
;
    }
    down
    {
        type            calculated;
        value           nonuniform List<scalar> 
30
(
2425.72
2347.32
2813.24
8439.87
15898.1
23939.1
31914.5
39501.5
46471.3
52857
58521.8
63462.3
67922.3
71889.9
75416.2
78535.9
81288.2
83706.8
85823.5
87665.7
89256.8
90617.2
91762.6
92706.5
93459.3
94029.6
94425.7
94659.7
94743.2
94725.1
)
;
    }
    up
    {
        type            calculated;
        value           nonuniform List<scalar> 
30
(
29185.6
27931.9
30080.5
33224
36934.6
40904.6
44997.1
49140.6
53245.3
57307.1
61082
64525.3
67857.6
71035.9
74049
76879.1
79516.1
81951.3
84179.2
86196.2
88000.7
89592
90968.7
92130.6
93076.1
93804.6
94316.9
94622.6
94737.7
94728.7
)
;
    }
    hole
    {
        type            calculated;
        value           nonuniform List<scalar> 
20
(
196866
232439
265725
295348
320228
339495
352399
357948
355153
341522
2274.37
2345.85
2402.79
9079.32
21754.7
40128.8
63969.4
92700.7
125356
160608
)
;
    }
    frontAndBack
    {
        type            empty;
    }
}


// ************************************************************************* //
