/*--------------------------------*- C++ -*----------------------------------*\
  =========                 |
  \\      /  F ield         | OpenFOAM: The Open Source CFD Toolbox
   \\    /   O peration     | Website:  https://openfoam.org
    \\  /    A nd           | Version:  9
     \\/     M anipulation  |
\*---------------------------------------------------------------------------*/
FoamFile
{
    format      ascii;
    class       volVectorField;
    location    "1";
    object      D;
}
// * * * * * * * * * * * * * * * * * * * * * * * * * * * * * * * * * * * * * //

dimensions      [0 1 0 0 0 0 0];

internalField   nonuniform List<vector> 
1000
(
(6.76983e-07 2.27592e-07 0)
(6.31798e-07 2.51335e-07 0)
(5.98933e-07 2.71318e-07 0)
(5.75194e-07 2.86934e-07 0)
(5.58263e-07 3.00413e-07 0)
(5.4633e-07 3.12007e-07 0)
(5.38265e-07 3.22452e-07 0)
(5.33162e-07 3.31963e-07 0)
(5.30304e-07 3.40835e-07 0)
(5.29327e-07 3.49243e-07 0)
(6.10084e-07 2.05209e-07 0)
(5.63152e-07 2.22458e-07 0)
(5.29241e-07 2.37589e-07 0)
(5.04851e-07 2.49268e-07 0)
(4.87479e-07 2.59526e-07 0)
(4.75191e-07 2.68344e-07 0)
(4.66783e-07 2.7634e-07 0)
(4.61295e-07 2.8365e-07 0)
(4.57992e-07 2.90431e-07 0)
(4.56381e-07 2.97044e-07 0)
(5.41757e-07 1.8278e-07 0)
(4.94381e-07 1.93111e-07 0)
(4.60352e-07 2.03186e-07 0)
(4.36006e-07 2.1088e-07 0)
(4.18722e-07 2.17971e-07 0)
(4.06494e-07 2.24128e-07 0)
(3.9807e-07 2.29834e-07 0)
(3.92469e-07 2.35116e-07 0)
(3.8895e-07 2.40004e-07 0)
(3.86994e-07 2.44902e-07 0)
(4.72348e-07 1.60665e-07 0)
(4.25893e-07 1.63924e-07 0)
(3.92737e-07 1.68927e-07 0)
(3.69183e-07 1.72719e-07 0)
(3.52563e-07 1.76796e-07 0)
(3.40843e-07 1.80482e-07 0)
(3.32765e-07 1.84112e-07 0)
(3.27339e-07 1.87579e-07 0)
(3.23867e-07 1.90813e-07 0)
(3.21782e-07 1.94178e-07 0)
(4.02028e-07 1.39194e-07 0)
(3.57902e-07 1.35515e-07 0)
(3.2666e-07 1.35647e-07 0)
(3.04705e-07 1.3579e-07 0)
(2.89361e-07 1.37146e-07 0)
(2.78622e-07 1.38663e-07 0)
(2.7125e-07 1.40526e-07 0)
(2.66281e-07 1.42468e-07 0)
(2.63077e-07 1.44338e-07 0)
(2.61053e-07 1.46409e-07 0)
(3.31098e-07 1.18516e-07 0)
(2.90603e-07 1.08319e-07 0)
(2.62343e-07 1.04051e-07 0)
(2.42826e-07 1.01007e-07 0)
(2.2939e-07 1.00102e-07 0)
(2.20101e-07 9.98838e-08 0)
(2.13782e-07 1.00382e-07 0)
(2.09527e-07 1.01165e-07 0)
(2.0678e-07 1.02021e-07 0)
(2.04971e-07 1.03106e-07 0)
(2.5929e-07 9.86175e-08 0)
(2.23838e-07 8.26255e-08 0)
(1.99715e-07 7.47677e-08 0)
(1.83533e-07 6.92916e-08 0)
(1.72657e-07 6.6797e-08 0)
(1.65268e-07 6.54174e-08 0)
(1.6031e-07 6.50392e-08 0)
(1.56981e-07 6.50844e-08 0)
(1.54834e-07 6.5305e-08 0)
(1.53359e-07 6.57401e-08 0)
(1.87108e-07 7.89306e-08 0)
(1.57884e-07 5.83353e-08 0)
(1.3914e-07 4.82863e-08 0)
(1.27157e-07 4.1545e-08 0)
(1.19382e-07 3.83832e-08 0)
(1.1421e-07 3.65657e-08 0)
(1.10798e-07 3.58685e-08 0)
(1.08509e-07 3.56263e-08 0)
(1.0703e-07 3.55939e-08 0)
(1.05961e-07 3.57227e-08 0)
(1.12935e-07 5.75151e-08 0)
(9.22872e-08 3.47483e-08 0)
(8.04303e-08 2.48775e-08 0)
(7.33989e-08 1.87319e-08 0)
(6.91373e-08 1.6095e-08 0)
(6.63497e-08 1.46377e-08 0)
(6.45512e-08 1.41299e-08 0)
(6.33216e-08 1.39588e-08 0)
(6.2514e-08 1.39452e-08 0)
(6.18786e-08 1.40133e-08 0)
(3.89171e-08 3.00883e-08 0)
(2.93439e-08 1.27859e-08 0)
(2.56964e-08 6.70898e-09 0)
(2.37697e-08 3.65275e-09 0)
(2.26518e-08 2.59982e-09 0)
(2.18713e-08 2.12342e-09 0)
(2.13615e-08 2.05632e-09 0)
(2.09879e-08 2.09531e-09 0)
(2.07328e-08 2.17228e-09 0)
(2.05076e-08 2.2574e-09 0)
(1.19375e-06 3.68924e-07 0)
(1.19185e-06 4.14763e-07 0)
(1.19056e-06 4.57471e-07 0)
(1.19069e-06 4.96567e-07 0)
(1.19256e-06 5.32453e-07 0)
(1.19631e-06 5.65576e-07 0)
(1.20196e-06 5.96452e-07 0)
(1.20939e-06 6.25531e-07 0)
(1.21855e-06 6.53166e-07 0)
(1.22919e-06 6.79751e-07 0)
(1.15633e-06 3.65864e-07 0)
(1.1511e-06 4.11567e-07 0)
(1.14756e-06 4.53751e-07 0)
(1.14604e-06 4.92056e-07 0)
(1.14671e-06 5.26976e-07 0)
(1.14946e-06 5.58988e-07 0)
(1.15421e-06 5.88657e-07 0)
(1.16073e-06 6.16458e-07 0)
(1.16894e-06 6.42759e-07 0)
(1.17852e-06 6.6801e-07 0)
(1.11663e-06 3.5969e-07 0)
(1.10745e-06 4.05272e-07 0)
(1.10085e-06 4.46593e-07 0)
(1.09691e-06 4.83659e-07 0)
(1.09567e-06 5.17219e-07 0)
(1.09682e-06 5.47815e-07 0)
(1.10015e-06 5.76054e-07 0)
(1.10535e-06 6.02417e-07 0)
(1.11229e-06 6.27288e-07 0)
(1.12054e-06 6.51125e-07 0)
(1.07373e-06 3.50728e-07 0)
(1.06012e-06 3.96088e-07 0)
(1.04996e-06 4.36353e-07 0)
(1.04315e-06 4.71904e-07 0)
(1.03956e-06 5.03829e-07 0)
(1.03871e-06 5.32749e-07 0)
(1.04031e-06 5.59328e-07 0)
(1.0439e-06 5.8405e-07 0)
(1.04935e-06 6.07315e-07 0)
(1.0561e-06 6.29577e-07 0)
(1.02712e-06 3.39064e-07 0)
(1.00866e-06 3.83841e-07 0)
(9.94683e-07 4.22717e-07 0)
(9.84852e-07 4.56406e-07 0)
(9.78785e-07 4.86375e-07 0)
(9.75826e-07 5.13332e-07 0)
(9.75576e-07 5.38005e-07 0)
(9.77491e-07 5.60874e-07 0)
(9.81391e-07 5.8236e-07 0)
(9.86604e-07 6.02885e-07 0)
(9.76755e-07 3.24968e-07 0)
(9.53155e-07 3.68543e-07 0)
(9.35289e-07 4.05629e-07 0)
(9.22436e-07 4.37138e-07 0)
(9.13911e-07 4.6489e-07 0)
(9.08871e-07 4.8965e-07 0)
(9.06805e-07 5.12212e-07 0)
(9.07071e-07 5.33043e-07 0)
(9.09452e-07 5.52592e-07 0)
(9.13175e-07 5.71227e-07 0)
(9.22752e-07 3.08653e-07 0)
(8.93943e-07 3.50196e-07 0)
(8.72268e-07 3.84982e-07 0)
(8.56532e-07 4.13963e-07 0)
(8.45701e-07 4.39243e-07 0)
(8.38727e-07 4.61601e-07 0)
(8.34978e-07 4.81884e-07 0)
(8.33723e-07 5.00533e-07 0)
(8.34695e-07 5.18017e-07 0)
(8.37054e-07 5.34643e-07 0)
(8.65395e-07 2.90423e-07 0)
(8.31555e-07 3.28971e-07 0)
(8.06314e-07 3.60894e-07 0)
(7.87943e-07 3.87002e-07 0)
(7.75044e-07 4.09586e-07 0)
(7.6636e-07 4.29382e-07 0)
(7.61126e-07 4.47265e-07 0)
(7.58538e-07 4.63627e-07 0)
(7.58259e-07 4.78961e-07 0)
(7.59434e-07 4.93474e-07 0)
(8.05044e-07 2.7059e-07 0)
(7.66624e-07 3.05134e-07 0)
(7.38227e-07 3.33608e-07 0)
(7.17578e-07 3.56503e-07 0)
(7.02932e-07 3.76192e-07 0)
(6.9282e-07 3.93307e-07 0)
(6.86347e-07 4.0871e-07 0)
(6.82651e-07 4.22745e-07 0)
(6.81302e-07 4.35867e-07 0)
(6.81511e-07 4.48241e-07 0)
(7.42103e-07 2.49518e-07 0)
(6.99819e-07 2.79087e-07 0)
(6.68831e-07 3.03556e-07 0)
(6.46359e-07 3.22935e-07 0)
(6.30345e-07 3.39572e-07 0)
(6.19129e-07 3.53934e-07 0)
(6.11697e-07 3.66844e-07 0)
(6.07145e-07 3.78548e-07 0)
(6.0494e-07 3.89496e-07 0)
(6.04462e-07 3.99594e-07 0)
(1.24189e-06 7.05324e-07 0)
(1.25647e-06 7.30706e-07 0)
(1.27215e-06 7.55681e-07 0)
(1.28883e-06 7.80368e-07 0)
(1.3064e-06 8.04892e-07 0)
(1.32477e-06 8.29325e-07 0)
(1.34387e-06 8.53751e-07 0)
(1.36361e-06 8.78225e-07 0)
(1.38393e-06 9.02802e-07 0)
(1.40476e-06 9.27523e-07 0)
(1.42603e-06 9.52427e-07 0)
(1.4477e-06 9.77545e-07 0)
(1.46971e-06 1.0029e-06 0)
(1.492e-06 1.02852e-06 0)
(1.51454e-06 1.05441e-06 0)
(1.53726e-06 1.08059e-06 0)
(1.56012e-06 1.10704e-06 0)
(1.58306e-06 1.13374e-06 0)
(1.60606e-06 1.16066e-06 0)
(1.62905e-06 1.18771e-06 0)
(1.19176e-06 6.92616e-07 0)
(1.20811e-06 7.17576e-07 0)
(1.22535e-06 7.42154e-07 0)
(1.24331e-06 7.66491e-07 0)
(1.26198e-06 7.90717e-07 0)
(1.28128e-06 8.14896e-07 0)
(1.30115e-06 8.39116e-07 0)
(1.32154e-06 8.63426e-07 0)
(1.3424e-06 8.87881e-07 0)
(1.36369e-06 9.12519e-07 0)
(1.38534e-06 9.37377e-07 0)
(1.40734e-06 9.62483e-07 0)
(1.42963e-06 9.87864e-07 0)
(1.45218e-06 1.01354e-06 0)
(1.47494e-06 1.03952e-06 0)
(1.4979e-06 1.06582e-06 0)
(1.521e-06 1.09242e-06 0)
(1.54422e-06 1.11932e-06 0)
(1.56751e-06 1.14646e-06 0)
(1.59083e-06 1.17378e-06 0)
(1.1345e-06 6.75002e-07 0)
(1.15317e-06 7.00008e-07 0)
(1.17246e-06 7.24643e-07 0)
(1.1922e-06 7.49028e-07 0)
(1.21244e-06 7.73321e-07 0)
(1.2331e-06 7.97573e-07 0)
(1.25417e-06 8.21883e-07 0)
(1.2756e-06 8.46298e-07 0)
(1.29738e-06 8.70875e-07 0)
(1.31948e-06 8.95652e-07 0)
(1.34186e-06 9.20669e-07 0)
(1.36451e-06 9.45954e-07 0)
(1.3874e-06 9.71534e-07 0)
(1.4105e-06 9.97429e-07 0)
(1.43379e-06 1.02366e-06 0)
(1.45724e-06 1.05022e-06 0)
(1.48085e-06 1.07714e-06 0)
(1.50456e-06 1.10438e-06 0)
(1.52836e-06 1.13194e-06 0)
(1.55219e-06 1.15977e-06 0)
(1.07098e-06 6.52868e-07 0)
(1.09238e-06 6.78279e-07 0)
(1.11417e-06 7.03336e-07 0)
(1.13611e-06 7.28094e-07 0)
(1.15832e-06 7.52759e-07 0)
(1.18073e-06 7.77362e-07 0)
(1.20336e-06 8.0202e-07 0)
(1.22619e-06 8.26776e-07 0)
(1.24923e-06 8.51695e-07 0)
(1.27246e-06 8.76818e-07 0)
(1.29587e-06 9.02186e-07 0)
(1.31945e-06 9.2783e-07 0)
(1.3432e-06 9.5378e-07 0)
(1.36711e-06 9.80059e-07 0)
(1.39116e-06 1.00669e-06 0)
(1.41534e-06 1.03369e-06 0)
(1.43965e-06 1.06106e-06 0)
(1.46405e-06 1.08882e-06 0)
(1.48853e-06 1.11697e-06 0)
(1.51301e-06 1.14549e-06 0)
(1.00257e-06 6.25789e-07 0)
(1.02703e-06 6.52016e-07 0)
(1.05165e-06 6.77911e-07 0)
(1.07609e-06 7.0341e-07 0)
(1.10059e-06 7.28793e-07 0)
(1.12504e-06 7.54062e-07 0)
(1.14952e-06 7.79357e-07 0)
(1.17402e-06 8.0472e-07 0)
(1.19857e-06 8.30227e-07 0)
(1.22317e-06 8.5592e-07 0)
(1.24783e-06 8.81848e-07 0)
(1.27257e-06 9.08046e-07 0)
(1.29739e-06 9.34548e-07 0)
(1.32229e-06 9.61383e-07 0)
(1.34728e-06 9.88578e-07 0)
(1.37236e-06 1.01616e-06 0)
(1.39751e-06 1.04415e-06 0)
(1.42274e-06 1.07257e-06 0)
(1.44802e-06 1.10146e-06 0)
(1.4733e-06 1.13083e-06 0)
(9.30374e-07 5.93927e-07 0)
(9.58127e-07 6.21351e-07 0)
(9.8584e-07 6.48469e-07 0)
(1.01302e-06 6.75058e-07 0)
(1.04003e-06 7.01481e-07 0)
(1.06674e-06 7.27717e-07 0)
(1.09329e-06 7.53926e-07 0)
(1.11966e-06 7.80156e-07 0)
(1.14593e-06 8.06488e-07 0)
(1.17209e-06 8.32975e-07 0)
(1.1982e-06 8.59669e-07 0)
(1.22426e-06 8.86612e-07 0)
(1.2503e-06 9.13846e-07 0)
(1.27635e-06 9.41404e-07 0)
(1.30241e-06 9.69322e-07 0)
(1.3285e-06 9.97634e-07 0)
(1.35462e-06 1.02638e-06 0)
(1.38078e-06 1.05559e-06 0)
(1.40697e-06 1.08535e-06 0)
(1.43315e-06 1.11567e-06 0)
(8.55601e-07 5.57338e-07 0)
(8.86766e-07 5.86343e-07 0)
(9.17716e-07 6.15063e-07 0)
(9.4778e-07 6.43095e-07 0)
(9.77464e-07 6.70875e-07 0)
(1.00659e-06 6.98377e-07 0)
(1.03536e-06 7.25771e-07 0)
(1.06376e-06 7.5312e-07 0)
(1.09188e-06 7.80512e-07 0)
(1.11975e-06 8.08012e-07 0)
(1.14742e-06 8.35677e-07 0)
(1.17493e-06 8.6356e-07 0)
(1.20232e-06 8.91704e-07 0)
(1.22961e-06 9.20154e-07 0)
(1.25684e-06 9.4895e-07 0)
(1.28403e-06 9.78137e-07 0)
(1.31121e-06 1.00777e-06 0)
(1.33837e-06 1.03789e-06 0)
(1.36555e-06 1.0686e-06 0)
(1.39271e-06 1.09994e-06 0)
(7.79371e-07 5.16351e-07 0)
(8.13958e-07 5.47299e-07 0)
(8.48184e-07 5.77921e-07 0)
(8.81205e-07 6.07723e-07 0)
(9.13625e-07 6.37145e-07 0)
(9.45273e-07 6.66198e-07 0)
(9.76355e-07 6.95041e-07 0)
(1.00689e-06 7.23757e-07 0)
(1.03696e-06 7.5244e-07 0)
(1.06663e-06 7.81165e-07 0)
(1.09597e-06 8.1e-07 0)
(1.12501e-06 8.39003e-07 0)
(1.15382e-06 8.68227e-07 0)
(1.18243e-06 8.97724e-07 0)
(1.2109e-06 9.27542e-07 0)
(1.23925e-06 9.57732e-07 0)
(1.26753e-06 9.88356e-07 0)
(1.29575e-06 1.01948e-06 0)
(1.32396e-06 1.05121e-06 0)
(1.35216e-06 1.08361e-06 0)
(7.02829e-07 4.71351e-07 0)
(7.40751e-07 5.04622e-07 0)
(7.78165e-07 5.3738e-07 0)
(8.14161e-07 5.69254e-07 0)
(8.4931e-07 6.00553e-07 0)
(8.83504e-07 6.31385e-07 0)
(9.16925e-07 6.61889e-07 0)
(9.49624e-07 6.9218e-07 0)
(9.81699e-07 7.22356e-07 0)
(1.01322e-06 7.52503e-07 0)
(1.04426e-06 7.82696e-07 0)
(1.07489e-06 8.13001e-07 0)
(1.10516e-06 8.43477e-07 0)
(1.13514e-06 8.7418e-07 0)
(1.16487e-06 9.05164e-07 0)
(1.19442e-06 9.36485e-07 0)
(1.22383e-06 9.68213e-07 0)
(1.25314e-06 1.00042e-06 0)
(1.2824e-06 1.03322e-06 0)
(1.31167e-06 1.06669e-06 0)
(6.26874e-07 4.23027e-07 0)
(6.67955e-07 4.58857e-07 0)
(7.08223e-07 4.93821e-07 0)
(7.47123e-07 5.27987e-07 0)
(7.8495e-07 5.61416e-07 0)
(8.21704e-07 5.94269e-07 0)
(8.575e-07 6.26668e-07 0)
(8.9241e-07 6.58739e-07 0)
(9.2653e-07 6.90596e-07 0)
(9.59939e-07 7.22335e-07 0)
(9.92723e-07 7.54044e-07 0)
(1.02496e-06 7.85797e-07 0)
(1.05672e-06 8.17661e-07 0)
(1.08808e-06 8.49697e-07 0)
(1.1191e-06 8.81963e-07 0)
(1.14985e-06 9.1452e-07 0)
(1.18039e-06 9.47438e-07 0)
(1.21079e-06 9.8079e-07 0)
(1.24109e-06 1.0147e-06 0)
(1.27142e-06 1.04924e-06 0)
(5.68307e-07 3.86792e-07 0)
(6.1114e-07 4.24481e-07 0)
(6.52907e-07 4.60691e-07 0)
(6.93381e-07 4.96162e-07 0)
(7.32728e-07 5.30893e-07 0)
(7.70953e-07 5.65034e-07 0)
(8.08158e-07 5.98698e-07 0)
(8.44401e-07 6.31997e-07 0)
(8.79773e-07 6.65035e-07 0)
(9.1435e-07 6.97902e-07 0)
(9.48216e-07 7.30682e-07 0)
(9.81449e-07 7.63447e-07 0)
(1.01413e-06 7.9626e-07 0)
(1.04632e-06 8.29182e-07 0)
(1.07811e-06 8.62268e-07 0)
(1.10957e-06 8.95574e-07 0)
(1.14076e-06 9.29165e-07 0)
(1.17177e-06 9.63109e-07 0)
(1.20267e-06 9.97511e-07 0)
(1.23359e-06 1.03244e-06 0)
(5.29255e-07 3.65106e-07 0)
(5.72093e-07 4.02788e-07 0)
(6.13871e-07 4.39292e-07 0)
(6.54477e-07 4.75162e-07 0)
(6.94023e-07 5.10386e-07 0)
(7.32499e-07 5.45068e-07 0)
(7.69988e-07 5.79298e-07 0)
(8.06533e-07 6.13166e-07 0)
(8.4221e-07 6.46757e-07 0)
(8.77084e-07 6.80148e-07 0)
(9.11231e-07 7.13412e-07 0)
(9.44722e-07 7.46611e-07 0)
(9.77631e-07 7.79803e-07 0)
(1.01003e-06 8.1304e-07 0)
(1.042e-06 8.46372e-07 0)
(1.0736e-06 8.79848e-07 0)
(1.10492e-06 9.13521e-07 0)
(1.13604e-06 9.47448e-07 0)
(1.16703e-06 9.81712e-07 0)
(1.19806e-06 1.01636e-06 0)
(4.94788e-07 3.44284e-07 0)
(5.36854e-07 3.81853e-07 0)
(5.78206e-07 4.18459e-07 0)
(6.18499e-07 4.54571e-07 0)
(6.57884e-07 4.90148e-07 0)
(6.96286e-07 5.25258e-07 0)
(7.33778e-07 5.59965e-07 0)
(7.70376e-07 5.94333e-07 0)
(8.06143e-07 6.28428e-07 0)
(8.41127e-07 6.6231e-07 0)
(8.75395e-07 6.96036e-07 0)
(9.09009e-07 7.29658e-07 0)
(9.42037e-07 7.63224e-07 0)
(9.74549e-07 7.96775e-07 0)
(1.00661e-06 8.30353e-07 0)
(1.0383e-06 8.63996e-07 0)
(1.0697e-06 8.97744e-07 0)
(1.10089e-06 9.31641e-07 0)
(1.13194e-06 9.65736e-07 0)
(1.16305e-06 1.00007e-06 0)
(4.63899e-07 3.24231e-07 0)
(5.04958e-07 3.61493e-07 0)
(5.45567e-07 3.98064e-07 0)
(5.8526e-07 4.34316e-07 0)
(6.24201e-07 4.70162e-07 0)
(6.62268e-07 5.05632e-07 0)
(6.99522e-07 5.4076e-07 0)
(7.35954e-07 5.75581e-07 0)
(7.71614e-07 6.10142e-07 0)
(8.06536e-07 6.44483e-07 0)
(8.40774e-07 6.78648e-07 0)
(8.74382e-07 7.12675e-07 0)
(9.07419e-07 7.46599e-07 0)
(9.39949e-07 7.80454e-07 0)
(9.72036e-07 8.14268e-07 0)
(1.00375e-06 8.4807e-07 0)
(1.03517e-06 8.81881e-07 0)
(1.06639e-06 9.15736e-07 0)
(1.09748e-06 9.49651e-07 0)
(1.12863e-06 9.83634e-07 0)
(4.36234e-07 3.05157e-07 0)
(4.7606e-07 3.42e-07 0)
(5.15673e-07 3.78416e-07 0)
(5.54522e-07 4.14686e-07 0)
(5.92783e-07 4.50689e-07 0)
(6.30294e-07 4.8642e-07 0)
(6.67105e-07 5.21881e-07 0)
(7.03184e-07 5.57084e-07 0)
(7.38568e-07 5.92049e-07 0)
(7.73275e-07 6.26801e-07 0)
(8.07349e-07 6.61365e-07 0)
(8.40833e-07 6.95764e-07 0)
(8.73778e-07 7.30023e-07 0)
(9.0624e-07 7.64162e-07 0)
(9.3828e-07 7.98198e-07 0)
(9.69962e-07 8.32145e-07 0)
(1.00136e-06 8.66012e-07 0)
(1.03255e-06 8.99812e-07 0)
(1.06366e-06 9.33518e-07 0)
(1.09483e-06 9.67146e-07 0)
(4.11258e-07 2.87049e-07 0)
(4.49728e-07 3.23368e-07 0)
(4.8818e-07 3.59526e-07 0)
(5.26018e-07 3.95717e-07 0)
(5.63421e-07 4.31785e-07 0)
(6.00202e-07 4.67694e-07 0)
(6.364e-07 5.03413e-07 0)
(6.71968e-07 5.3893e-07 0)
(7.06927e-07 5.74242e-07 0)
(7.41286e-07 6.09353e-07 0)
(7.75075e-07 6.44272e-07 0)
(8.0833e-07 6.79007e-07 0)
(8.41092e-07 7.13569e-07 0)
(8.7341e-07 7.47966e-07 0)
(9.05337e-07 7.82202e-07 0)
(9.36938e-07 8.16277e-07 0)
(9.68271e-07 8.50188e-07 0)
(9.99432e-07 8.83913e-07 0)
(1.03048e-06 9.17423e-07 0)
(1.06159e-06 9.50715e-07 0)
(3.88541e-07 2.69921e-07 0)
(4.25578e-07 3.05657e-07 0)
(4.6275e-07 3.41481e-07 0)
(4.99454e-07 3.77509e-07 0)
(5.35864e-07 4.13556e-07 0)
(5.71779e-07 4.49561e-07 0)
(6.0723e-07 4.85462e-07 0)
(6.42155e-07 5.21223e-07 0)
(6.76568e-07 5.56817e-07 0)
(7.10465e-07 5.9223e-07 0)
(7.43868e-07 6.27453e-07 0)
(7.76802e-07 6.6248e-07 0)
(8.09301e-07 6.97308e-07 0)
(8.41406e-07 7.31932e-07 0)
(8.73163e-07 7.66343e-07 0)
(9.0463e-07 8.00529e-07 0)
(9.35858e-07 8.34468e-07 0)
(9.66936e-07 8.6813e-07 0)
(9.97907e-07 9.01452e-07 0)
(1.02894e-06 9.34407e-07 0)
(3.67656e-07 2.53731e-07 0)
(4.03222e-07 2.88843e-07 0)
(4.39045e-07 3.24279e-07 0)
(4.74533e-07 3.60078e-07 0)
(5.09852e-07 3.96039e-07 0)
(5.448e-07 4.3207e-07 0)
(5.79398e-07 4.68085e-07 0)
(6.13578e-07 5.04023e-07 0)
(6.47345e-07 5.39839e-07 0)
(6.80687e-07 5.75497e-07 0)
(7.13617e-07 6.10973e-07 0)
(7.46152e-07 6.46247e-07 0)
(7.78319e-07 6.813e-07 0)
(8.10152e-07 7.16116e-07 0)
(8.41688e-07 7.50676e-07 0)
(8.72978e-07 7.84952e-07 0)
(9.04065e-07 8.1891e-07 0)
(9.35027e-07 8.52504e-07 0)
(9.65901e-07 8.85651e-07 0)
(9.96838e-07 9.18307e-07 0)
(3.48225e-07 2.38429e-07 0)
(3.82307e-07 2.72907e-07 0)
(4.16739e-07 3.07922e-07 0)
(4.50956e-07 3.43447e-07 0)
(4.85116e-07 3.79266e-07 0)
(5.19021e-07 4.15265e-07 0)
(5.52687e-07 4.51332e-07 0)
(5.86042e-07 4.87388e-07 0)
(6.19085e-07 5.23365e-07 0)
(6.51797e-07 5.59213e-07 0)
(6.84185e-07 5.94889e-07 0)
(7.16258e-07 6.30361e-07 0)
(7.48036e-07 6.65597e-07 0)
(7.79546e-07 7.00569e-07 0)
(8.10819e-07 7.35247e-07 0)
(8.41895e-07 7.69594e-07 0)
(8.7281e-07 8.03561e-07 0)
(9.0363e-07 8.37093e-07 0)
(9.34383e-07 8.70087e-07 0)
(9.65193e-07 9.02484e-07 0)
(3.29898e-07 2.23959e-07 0)
(3.62495e-07 2.57809e-07 0)
(3.95514e-07 2.92387e-07 0)
(4.28427e-07 3.27609e-07 0)
(4.61382e-07 3.63246e-07 0)
(4.94192e-07 3.99164e-07 0)
(5.26868e-07 4.35232e-07 0)
(5.59339e-07 4.7135e-07 0)
(5.91598e-07 5.07434e-07 0)
(6.23623e-07 5.43417e-07 0)
(6.55414e-07 5.79242e-07 0)
(6.86975e-07 6.14864e-07 0)
(7.1832e-07 6.5024e-07 0)
(7.49468e-07 6.85331e-07 0)
(7.80442e-07 7.20097e-07 0)
(8.11274e-07 7.54493e-07 0)
(8.41994e-07 7.8846e-07 0)
(8.72649e-07 8.21936e-07 0)
(9.03262e-07 8.54802e-07 0)
(9.33924e-07 8.86994e-07 0)
(3.12352e-07 2.10262e-07 0)
(3.4347e-07 2.4351e-07 0)
(3.75065e-07 2.7765e-07 0)
(4.06654e-07 3.12552e-07 0)
(4.38375e-07 3.47979e-07 0)
(4.70055e-07 3.83778e-07 0)
(5.01701e-07 4.19801e-07 0)
(5.33247e-07 4.55933e-07 0)
(5.6468e-07 4.92072e-07 0)
(5.95977e-07 5.2814e-07 0)
(6.27133e-07 5.64065e-07 0)
(6.58146e-07 5.99789e-07 0)
(6.89024e-07 6.35262e-07 0)
(7.19779e-07 6.70434e-07 0)
(7.50428e-07 7.05257e-07 0)
(7.80995e-07 7.3968e-07 0)
(8.11499e-07 7.7364e-07 0)
(8.41974e-07 8.07066e-07 0)
(8.72432e-07 8.39836e-07 0)
(9.02931e-07 8.7188e-07 0)
(2.95286e-07 1.9729e-07 0)
(3.24929e-07 2.2997e-07 0)
(3.55096e-07 2.63683e-07 0)
(3.85349e-07 2.9826e-07 0)
(4.15819e-07 3.33457e-07 0)
(4.46346e-07 3.69108e-07 0)
(4.76939e-07 4.05048e-07 0)
(5.07533e-07 4.41149e-07 0)
(5.38115e-07 4.77297e-07 0)
(5.68658e-07 5.134e-07 0)
(5.99154e-07 5.49377e-07 0)
(6.29596e-07 5.85159e-07 0)
(6.59986e-07 6.20685e-07 0)
(6.9033e-07 6.559e-07 0)
(7.20638e-07 6.9075e-07 0)
(7.50923e-07 7.25179e-07 0)
(7.81199e-07 7.59122e-07 0)
(8.11482e-07 7.92506e-07 0)
(8.41777e-07 8.25212e-07 0)
(8.72107e-07 8.57169e-07 0)
(2.78406e-07 1.85e-07 0)
(3.06576e-07 2.17154e-07 0)
(3.3531e-07 2.50457e-07 0)
(3.64222e-07 2.84711e-07 0)
(3.93431e-07 3.19665e-07 0)
(4.22796e-07 3.55142e-07 0)
(4.52325e-07 3.90966e-07 0)
(4.81957e-07 4.26998e-07 0)
(5.11677e-07 4.63113e-07 0)
(5.41456e-07 4.99206e-07 0)
(5.71282e-07 5.35189e-07 0)
(6.01144e-07 5.70984e-07 0)
(6.31038e-07 6.06522e-07 0)
(6.60963e-07 6.41744e-07 0)
(6.90922e-07 6.7659e-07 0)
(7.2092e-07 7.11003e-07 0)
(7.50961e-07 7.44918e-07 0)
(7.81049e-07 7.78268e-07 0)
(8.11178e-07 8.1094e-07 0)
(8.41337e-07 8.42871e-07 0)
(2.61428e-07 1.73374e-07 0)
(2.88116e-07 2.05044e-07 0)
(3.15412e-07 2.37956e-07 0)
(3.42979e-07 2.71891e-07 0)
(3.70926e-07 3.06592e-07 0)
(3.9913e-07 3.41874e-07 0)
(4.27596e-07 3.77551e-07 0)
(4.56269e-07 4.13476e-07 0)
(4.85131e-07 4.49515e-07 0)
(5.14151e-07 4.85556e-07 0)
(5.43314e-07 5.21501e-07 0)
(5.72602e-07 5.57266e-07 0)
(6.02006e-07 5.92777e-07 0)
(6.31516e-07 6.2797e-07 0)
(6.6113e-07 6.62782e-07 0)
(6.90844e-07 6.97157e-07 0)
(7.20653e-07 7.31033e-07 0)
(7.50548e-07 7.64351e-07 0)
(7.80512e-07 7.97015e-07 0)
(8.10508e-07 8.28975e-07 0)
(2.4405e-07 1.62378e-07 0)
(2.69242e-07 1.93607e-07 0)
(2.95091e-07 2.26149e-07 0)
(3.21313e-07 2.59769e-07 0)
(3.48003e-07 2.94208e-07 0)
(3.75057e-07 3.29274e-07 0)
(4.02477e-07 3.64776e-07 0)
(4.30209e-07 4.0056e-07 0)
(4.58234e-07 4.36484e-07 0)
(4.86518e-07 4.72432e-07 0)
(5.15041e-07 5.08298e-07 0)
(5.43778e-07 5.43994e-07 0)
(5.72712e-07 5.79441e-07 0)
(6.01829e-07 6.1457e-07 0)
(6.31115e-07 6.4932e-07 0)
(6.60559e-07 6.83635e-07 0)
(6.90146e-07 7.1746e-07 0)
(7.19858e-07 7.50746e-07 0)
(7.49668e-07 7.83421e-07 0)
(7.79516e-07 8.15455e-07 0)
(2.25967e-07 1.5205e-07 0)
(2.49638e-07 1.82868e-07 0)
(2.74031e-07 2.15049e-07 0)
(2.9891e-07 2.4835e-07 0)
(3.24358e-07 2.82511e-07 0)
(3.50284e-07 3.17336e-07 0)
(3.76686e-07 3.52629e-07 0)
(4.03513e-07 3.88233e-07 0)
(4.30739e-07 4.24002e-07 0)
(4.58329e-07 4.59813e-07 0)
(4.86252e-07 4.95559e-07 0)
(5.1448e-07 5.31146e-07 0)
(5.42985e-07 5.66493e-07 0)
(5.71745e-07 6.01527e-07 0)
(6.00736e-07 6.36188e-07 0)
(6.29937e-07 6.70421e-07 0)
(6.59327e-07 7.0418e-07 0)
(6.88874e-07 7.37428e-07 0)
(7.18547e-07 7.70124e-07 0)
(7.48267e-07 8.02262e-07 0)
(2.06818e-07 1.42336e-07 0)
(2.28941e-07 1.72768e-07 0)
(2.51868e-07 2.04594e-07 0)
(2.75417e-07 2.3757e-07 0)
(2.99648e-07 2.71436e-07 0)
(3.24485e-07 3.05993e-07 0)
(3.49917e-07 3.41046e-07 0)
(3.75893e-07 3.76435e-07 0)
(4.02382e-07 4.1201e-07 0)
(4.29339e-07 4.47648e-07 0)
(4.56728e-07 4.83237e-07 0)
(4.84511e-07 5.1868e-07 0)
(5.1265e-07 5.53894e-07 0)
(5.41112e-07 5.88807e-07 0)
(5.69862e-07 6.23355e-07 0)
(5.98868e-07 6.57488e-07 0)
(6.28099e-07 6.91166e-07 0)
(6.57514e-07 7.24368e-07 0)
(6.87074e-07 7.57082e-07 0)
(7.16696e-07 7.89335e-07 0)
(1.86249e-07 1.33387e-07 0)
(2.06793e-07 1.63425e-07 0)
(2.28253e-07 1.94871e-07 0)
(2.50491e-07 2.27488e-07 0)
(2.73546e-07 2.61017e-07 0)
(2.97349e-07 2.95262e-07 0)
(3.21879e-07 3.30026e-07 0)
(3.47081e-07 3.65149e-07 0)
(3.72913e-07 4.00482e-07 0)
(3.99324e-07 4.35899e-07 0)
(4.26267e-07 4.71286e-07 0)
(4.53692e-07 5.06547e-07 0)
(4.81551e-07 5.41595e-07 0)
(5.09797e-07 5.76357e-07 0)
(5.38384e-07 6.10771e-07 0)
(5.67265e-07 6.44788e-07 0)
(5.96396e-07 6.78374e-07 0)
(6.25728e-07 7.11518e-07 0)
(6.55212e-07 7.44237e-07 0)
(6.84768e-07 7.76591e-07 0)
(1.6374e-07 1.24991e-07 0)
(1.82685e-07 1.54628e-07 0)
(2.02691e-07 1.85676e-07 0)
(2.23663e-07 2.1791e-07 0)
(2.45609e-07 2.51072e-07 0)
(2.68463e-07 2.8497e-07 0)
(2.92188e-07 3.19411e-07 0)
(3.16723e-07 3.54232e-07 0)
(3.42013e-07 3.89287e-07 0)
(3.67997e-07 4.24449e-07 0)
(3.94614e-07 4.59604e-07 0)
(4.21804e-07 4.94655e-07 0)
(4.49504e-07 5.29515e-07 0)
(4.77653e-07 5.64109e-07 0)
(5.06191e-07 5.98376e-07 0)
(5.35055e-07 6.32267e-07 0)
(5.64184e-07 6.65752e-07 0)
(5.93512e-07 6.98828e-07 0)
(6.22979e-07 7.31532e-07 0)
(6.52508e-07 7.63956e-07 0)
(1.38995e-07 1.17639e-07 0)
(1.5633e-07 1.46779e-07 0)
(1.74918e-07 1.77331e-07 0)
(1.94684e-07 2.09083e-07 0)
(2.15607e-07 2.41786e-07 0)
(2.37615e-07 2.75248e-07 0)
(2.60654e-07 3.09279e-07 0)
(2.84648e-07 3.4372e-07 0)
(3.09529e-07 3.78425e-07 0)
(3.35221e-07 4.13267e-07 0)
(3.61651e-07 4.48133e-07 0)
(3.88745e-07 4.82924e-07 0)
(4.16426e-07 5.17556e-07 0)
(4.44619e-07 5.51953e-07 0)
(4.73247e-07 5.86054e-07 0)
(5.02228e-07 6.19812e-07 0)
(5.31482e-07 6.53197e-07 0)
(5.60918e-07 6.86209e-07 0)
(5.9046e-07 7.18885e-07 0)
(6.20008e-07 7.51328e-07 0)
(1.98277e-08 2.15413e-09 0)
(5.9894e-08 1.32076e-08 0)
(1.02481e-07 3.37671e-08 0)
(1.48125e-07 6.24657e-08 0)
(1.97701e-07 9.85305e-08 0)
(2.51483e-07 1.40684e-07 0)
(3.09689e-07 1.8756e-07 0)
(3.72219e-07 2.37723e-07 0)
(4.38889e-07 2.89723e-07 0)
(5.09346e-07 3.42371e-07 0)
(1.86796e-08 1.92385e-09 0)
(5.64669e-08 1.18552e-08 0)
(9.65299e-08 3.05234e-08 0)
(1.39282e-07 5.68207e-08 0)
(1.85522e-07 9.01644e-08 0)
(2.35502e-07 1.29481e-07 0)
(2.89445e-07 1.73582e-07 0)
(3.47258e-07 2.21205e-07 0)
(4.0873e-07 2.70956e-07 0)
(4.73492e-07 3.21892e-07 0)
(1.76474e-08 1.65309e-09 0)
(5.33917e-08 1.04871e-08 0)
(9.12206e-08 2.73864e-08 0)
(1.31408e-07 5.14413e-08 0)
(1.74667e-07 8.22146e-08 0)
(2.2121e-07 1.18796e-07 0)
(2.71274e-07 1.60152e-07 0)
(3.24822e-07 2.05193e-07 0)
(3.81776e-07 2.52657e-07 0)
(4.41738e-07 3.01871e-07 0)
(1.67028e-08 1.33977e-09 0)
(5.05901e-08 9.11406e-09 0)
(8.64417e-08 2.44153e-08 0)
(1.24405e-07 4.64755e-08 0)
(1.65116e-07 7.49648e-08 0)
(2.0873e-07 1.09099e-07 0)
(2.55468e-07 1.47953e-07 0)
(3.05264e-07 1.90556e-07 0)
(3.58132e-07 2.3571e-07 0)
(4.13589e-07 2.82832e-07 0)
(1.58197e-08 9.80726e-10 0)
(4.79751e-08 7.68824e-09 0)
(8.20116e-08 2.14736e-08 0)
(1.1796e-07 4.16748e-08 0)
(1.56389e-07 6.80411e-08 0)
(1.97401e-07 9.98883e-08 0)
(2.41214e-07 1.36391e-07 0)
(2.87737e-07 1.76686e-07 0)
(3.37075e-07 2.19678e-07 0)
(3.88594e-07 2.64776e-07 0)
(1.49909e-08 5.81844e-10 0)
(4.55246e-08 6.21897e-09 0)
(7.78901e-08 1.85769e-08 0)
(1.12012e-07 3.70714e-08 0)
(1.48402e-07 6.15085e-08 0)
(1.87103e-07 9.12767e-08 0)
(2.28326e-07 1.25622e-07 0)
(2.71937e-07 1.63751e-07 0)
(3.18129e-07 2.04667e-07 0)
(3.66164e-07 2.47737e-07 0)
(1.41995e-08 1.41059e-10 0)
(4.31869e-08 4.68482e-09 0)
(7.39781e-08 1.56639e-08 0)
(1.06403e-07 3.25517e-08 0)
(1.40927e-07 5.51964e-08 0)
(1.7754e-07 8.30427e-08 0)
(2.16449e-07 1.15401e-07 0)
(2.57481e-07 1.51528e-07 0)
(3.00885e-07 1.90523e-07 0)
(3.45854e-07 2.31687e-07 0)
(1.34395e-08 -3.35921e-10 0)
(4.09424e-08 3.09222e-09 0)
(7.02378e-08 1.27364e-08 0)
(1.0107e-07 2.81124e-08 0)
(1.33864e-07 4.90977e-08 0)
(1.68565e-07 7.51761e-08 0)
(2.05369e-07 1.05706e-07 0)
(2.44075e-07 1.3998e-07 0)
(2.84971e-07 1.77184e-07 0)
(3.27227e-07 2.16564e-07 0)
(1.27011e-08 -8.49453e-10 0)
(3.87618e-08 1.43253e-09 0)
(6.66154e-08 9.76688e-09 0)
(9.59287e-08 2.37013e-08 0)
(1.27092e-07 4.31335e-08 0)
(1.60011e-07 6.75753e-08 0)
(1.94876e-07 9.64252e-08 0)
(2.31466e-07 1.28997e-07 0)
(2.70085e-07 1.64554e-07 0)
(3.09914e-07 2.02296e-07 0)
(1.19788e-08 -1.39606e-09 0)
(3.66289e-08 -2.91409e-10 0)
(6.30796e-08 6.75245e-09 0)
(9.09259e-08 1.93076e-08 0)
(1.20528e-07 3.72831e-08 0)
(1.51759e-07 6.0208e-08 0)
(1.84803e-07 8.75107e-08 0)
(2.19432e-07 1.1852e-07 0)
(2.5595e-07 1.52561e-07 0)
(2.9358e-07 1.88808e-07 0)
(1.12668e-08 -1.97557e-09 0)
(3.45264e-08 -2.08361e-09 0)
(5.95985e-08 3.67955e-09 0)
(8.60098e-08 1.4906e-08 0)
(1.14093e-07 3.15082e-08 0)
(1.43698e-07 5.30243e-08 0)
(1.75e-07 7.89029e-08 0)
(2.07778e-07 1.08483e-07 0)
(2.42326e-07 1.41138e-07 0)
(2.77924e-07 1.76032e-07 0)
(1.05612e-08 -2.58697e-09 0)
(3.24441e-08 -3.94457e-09 0)
(5.61511e-08 5.4415e-10 0)
(8.1142e-08 1.04891e-08 0)
(1.07724e-07 2.57961e-08 0)
(1.35731e-07 4.60037e-08 0)
(1.65334e-07 7.05719e-08 0)
(1.96328e-07 9.88471e-08 0)
(2.2899e-07 1.30237e-07 0)
(2.62672e-07 1.63911e-07 0)
(9.85996e-09 -3.23189e-09 0)
(3.03774e-08 -5.88036e-09 0)
(5.27238e-08 -2.66422e-09 0)
(7.6292e-08 6.04342e-09 0)
(1.01365e-07 2.01291e-08 0)
(1.27771e-07 3.91239e-08 0)
(1.55681e-07 6.24892e-08 0)
(1.84913e-07 8.9576e-08 0)
(2.15731e-07 1.19818e-07 0)
(2.47562e-07 1.52397e-07 0)
(9.16285e-09 -3.91591e-09 0)
(2.83295e-08 -7.89783e-09 0)
(4.93119e-08 -5.94914e-09 0)
(7.14376e-08 1.57247e-09 0)
(9.49664e-08 1.45155e-08 0)
(1.19735e-07 3.23935e-08 0)
(1.45919e-07 5.46602e-08 0)
(1.73372e-07 8.06693e-08 0)
(2.02342e-07 1.09873e-07 0)
(2.32338e-07 1.41473e-07 0)
(8.47627e-09 -4.64921e-09 0)
(2.63259e-08 -1.00149e-08 0)
(4.59344e-08 -9.3269e-09 0)
(6.65751e-08 -2.93475e-09 0)
(8.84898e-08 8.94893e-09 0)
(1.11544e-07 2.58068e-08 0)
(1.35925e-07 4.70771e-08 0)
(1.61534e-07 7.21135e-08 0)
(1.88604e-07 1.00382e-07 0)
(2.16733e-07 1.3111e-07 0)
(7.81373e-09 -5.46637e-09 0)
(2.44082e-08 -1.22575e-08 0)
(4.26227e-08 -1.27923e-08 0)
(6.17058e-08 -7.43848e-09 0)
(8.18966e-08 3.49143e-09 0)
(1.03113e-07 1.94369e-08 0)
(1.2557e-07 3.98139e-08 0)
(1.49221e-07 6.39777e-08 0)
(1.74295e-07 9.14063e-08 0)
(2.00474e-07 1.21357e-07 0)
(7.22488e-09 -6.40801e-09 0)
(2.27053e-08 -1.46767e-08 0)
(3.94834e-08 -1.63787e-08 0)
(5.68762e-08 -1.19619e-08 0)
(7.51613e-08 -1.87096e-09 0)
(9.43481e-08 1.32699e-08 0)
(1.14695e-07 3.28532e-08 0)
(1.36218e-07 5.62365e-08 0)
(1.5914e-07 8.29109e-08 0)
(1.83233e-07 1.12166e-07 0)
(6.81558e-09 -7.64977e-09 0)
(2.13662e-08 -1.73521e-08 0)
(3.66198e-08 -2.00162e-08 0)
(5.2109e-08 -1.63266e-08 0)
(6.82373e-08 -6.90984e-09 0)
(8.51372e-08 7.55271e-09 0)
(1.03132e-07 2.64391e-08 0)
(1.223e-07 4.91211e-08 0)
(1.42866e-07 7.51068e-08 0)
(1.64685e-07 1.03725e-07 0)
(7.09981e-09 -9.32003e-09 0)
(2.09449e-08 -2.03793e-08 0)
(3.43848e-08 -2.3772e-08 0)
(4.75284e-08 -2.06339e-08 0)
(6.10707e-08 -1.17479e-08 0)
(7.52975e-08 2.1378e-09 0)
(9.05996e-08 2.04044e-08 0)
(1.07108e-07 4.2446e-08 0)
(1.25047e-07 6.77951e-08 0)
(1.44341e-07 9.58219e-08 0)
(9.16791e-09 -1.23448e-08 0)
(2.1789e-08 -2.38335e-08 0)
(3.29448e-08 -2.71759e-08 0)
(4.31172e-08 -2.41511e-08 0)
(5.35777e-08 -1.56058e-08 0)
(6.46893e-08 -2.20232e-09 0)
(7.69217e-08 1.54838e-08 0)
(9.04282e-08 3.68997e-08 0)
(1.05439e-07 6.16088e-08 0)
(1.21918e-07 8.90293e-08 0)
)
;

boundaryField
{
    left
    {
        type            fixedDisplacement;
        value           uniform (0 0 0);
    }
    right
    {
        type            solidTraction;
        tractionSeries  
{
        file            "$FOAM_CASE/constant/timeVsTraction";
        outOfBounds     clamp;
}
        pressure        uniform 0;
        secondOrder     false;
        setEffectiveTraction false;
        relaxationFactor 1;
        value           nonuniform List<vector> 
30
(
(1.6405e-06 1.2012e-06 3.19128e-21)
(1.60235e-06 1.18741e-06 3.20632e-21)
(1.56386e-06 1.17372e-06 3.24815e-21)
(1.52493e-06 1.15987e-06 3.31681e-21)
(1.48555e-06 1.1457e-06 3.41087e-21)
(1.44582e-06 1.13109e-06 3.52913e-21)
(1.40588e-06 1.11592e-06 3.66957e-21)
(1.3659e-06 1.10017e-06 3.83011e-21)
(1.32604e-06 1.08383e-06 4.00848e-21)
(1.28648e-06 1.06694e-06 4.20188e-21)
(1.24907e-06 1.05033e-06 4.31953e-21)
(1.21359e-06 1.034e-06 4.33725e-21)
(1.17862e-06 1.01743e-06 4.34982e-21)
(1.14422e-06 1.00069e-06 4.35746e-21)
(1.11042e-06 9.83907e-07 4.35919e-21)
(1.07716e-06 9.67188e-07 4.35525e-21)
(1.04448e-06 9.50595e-07 4.34647e-21)
(1.01232e-06 9.34247e-07 4.33291e-21)
(9.80609e-07 9.18214e-07 4.31552e-21)
(9.49264e-07 9.02562e-07 4.29489e-21)
(9.18188e-07 8.87337e-07 4.27189e-21)
(8.87275e-07 8.72572e-07 4.24765e-21)
(8.56418e-07 8.58275e-07 4.2233e-21)
(8.25506e-07 8.44435e-07 4.19995e-21)
(7.94438e-07 8.3102e-07 4.17857e-21)
(7.63126e-07 8.17972e-07 4.16035e-21)
(7.31506e-07 8.05215e-07 4.14606e-21)