/*--------------------------------*- C++ -*----------------------------------*\
  =========                 |
  \\      /  F ield         | OpenFOAM: The Open Source CFD Toolbox
   \\    /   O peration     | Website:  https://openfoam.org
    \\  /    A nd           | Version:  9
     \\/     M anipulation  |
\*---------------------------------------------------------------------------*/
FoamFile
{
    format      ascii;
    class       volScalarField;
    location    "1";
    object      epsilonEq;
}
// * * * * * * * * * * * * * * * * * * * * * * * * * * * * * * * * * * * * * //

dimensions      [0 0 0 0 0 0 0];

internalField   nonuniform List<scalar> 
1000
(
6.8207e-07
6.48038e-07
6.38407e-07
6.43404e-07
6.44136e-07
6.42821e-07
6.3838e-07
6.31596e-07
6.24016e-07
6.1455e-07
7.95192e-07
7.22449e-07
6.87276e-07
6.76447e-07
6.66713e-07
6.58371e-07
6.48664e-07
6.38367e-07
6.26706e-07
6.16409e-07
9.05777e-07
7.94149e-07
7.31521e-07
7.02653e-07
6.80729e-07
6.64057e-07
6.48191e-07
6.33473e-07
6.17999e-07
6.05624e-07
1.01166e-06
8.62245e-07
7.71263e-07
7.22638e-07
6.87023e-07
6.6096e-07
6.38306e-07
6.18875e-07
5.99713e-07
5.85144e-07
1.10952e-06
9.2509e-07
8.05722e-07
7.36232e-07
6.85719e-07
6.49361e-07
6.19433e-07
5.95009e-07
5.72378e-07
5.55478e-07
1.1998e-06
9.82179e-07
8.34401e-07
7.43382e-07
6.77145e-07
6.29976e-07
5.92558e-07
5.63103e-07
5.3722e-07
5.17924e-07
1.27742e-06
1.02973e-06
8.53211e-07
7.41022e-07
6.59635e-07
6.02337e-07
5.58181e-07
5.24306e-07
4.9583e-07
4.74355e-07
1.35038e-06
1.0657e-06
8.58589e-07
7.27391e-07
6.3314e-07
5.67994e-07
5.19076e-07
4.82318e-07
4.52496e-07
4.29536e-07
1.40092e-06
1.06916e-06
8.31539e-07
6.89021e-07
5.91469e-07
5.25345e-07
4.76706e-07
4.40253e-07
4.11154e-07
3.87871e-07
1.44425e-06
1.0079e-06
7.67714e-07
6.33967e-07
5.49396e-07
4.90803e-07
4.47625e-07
4.1398e-07
3.86744e-07
3.63594e-07
1.92651e-09
5.82538e-09
2.56297e-08
5.23269e-08
8.15245e-08
1.11633e-07
1.40865e-07
1.68715e-07
1.94286e-07
2.17977e-07
7.03772e-09
3.46508e-08
7.37188e-08
1.12073e-07
1.46073e-07
1.76264e-07
2.026e-07
2.26151e-07
2.46364e-07
2.65347e-07
2.80396e-08
8.17332e-08
1.30983e-07
1.7549e-07
2.12573e-07
2.43378e-07
2.68409e-07
2.89406e-07
3.05851e-07
3.21403e-07
6.45071e-08
1.39433e-07
1.94908e-07
2.41845e-07
2.79192e-07
3.09134e-07
3.32395e-07
3.51021e-07
3.64368e-07
3.77201e-07
1.1657e-07
2.04505e-07
2.63583e-07
3.10884e-07
3.46495e-07
3.74061e-07
3.94579e-07
4.10281e-07
4.20451e-07
4.30518e-07
1.83914e-07
2.73782e-07
3.32919e-07
3.78867e-07
4.11483e-07
4.35733e-07
4.52865e-07
4.65217e-07
4.72141e-07
4.79295e-07
2.65131e-07
3.4609e-07
4.01022e-07
4.43758e-07
4.72378e-07
4.92671e-07
5.05994e-07
5.14718e-07
5.18374e-07
5.22447e-07
3.5825e-07
4.2043e-07
4.66244e-07
5.03496e-07
5.27087e-07
5.42902e-07
5.52222e-07
5.57201e-07
5.57867e-07
5.58683e-07
4.60666e-07
4.96099e-07
5.27837e-07
5.57057e-07
5.74434e-07
5.85238e-07
5.90287e-07
5.91512e-07
5.89333e-07
5.87333e-07
5.69624e-07
5.72277e-07
5.85272e-07
6.03682e-07
6.13424e-07
6.18438e-07
6.18896e-07
6.16004e-07
6.11923e-07
6.05453e-07
2.39315e-07
2.5766e-07
2.74669e-07
2.90051e-07
3.03957e-07
3.1647e-07
3.27703e-07
3.3774e-07
3.46684e-07
3.54601e-07
3.61564e-07
3.67622e-07
3.72814e-07
3.77166e-07
3.8069e-07
3.83403e-07
3.85295e-07
3.86428e-07
3.86785e-07
3.86561e-07
2.80041e-07
2.90751e-07
3.01557e-07
3.11596e-07
3.21012e-07
3.29763e-07
3.37849e-07
3.45268e-07
3.52044e-07
3.58183e-07
3.63712e-07
3.68644e-07
3.72997e-07
3.76782e-07
3.8e-07
3.82652e-07
3.84701e-07
3.86124e-07
3.86727e-07
3.86386e-07
3.30109e-07
3.33557e-07
3.37962e-07
3.42209e-07
3.46526e-07
3.50824e-07
3.55076e-07
3.59206e-07
3.63199e-07
3.67001e-07
3.70601e-07
3.7397e-07
3.77099e-07
3.79968e-07
3.82548e-07
3.84804e-07
3.86631e-07
3.87917e-07
3.88266e-07
3.87449e-07
3.80942e-07
3.78326e-07
3.77209e-07
3.76325e-07
3.75933e-07
3.75972e-07
3.76436e-07
3.77214e-07
3.78295e-07
3.7958e-07
3.81042e-07
3.82615e-07
3.84266e-07
3.85943e-07
3.87586e-07
3.89122e-07
3.90396e-07
3.91259e-07
3.91238e-07
3.90126e-07
4.29874e-07
4.22261e-07
4.16394e-07
4.11098e-07
4.06558e-07
4.02727e-07
3.99675e-07
3.97243e-07
3.95467e-07
3.94214e-07
3.93466e-07
3.93133e-07
3.93167e-07
3.93492e-07
3.94027e-07
3.94675e-07
3.95259e-07
3.95618e-07
3.95295e-07
3.94118e-07
4.74778e-07
4.63188e-07
4.53387e-07
4.44388e-07
4.36376e-07
4.29188e-07
4.23061e-07
4.17743e-07
4.13345e-07
4.09703e-07
4.06817e-07
4.04589e-07
4.02968e-07
4.01872e-07
4.01215e-07
4.00893e-07
4.00741e-07
4.00608e-07
4.00133e-07
3.99161e-07
5.14568e-07
4.99985e-07
4.87198e-07
4.75149e-07
4.64375e-07
4.5432e-07
4.45531e-07
4.37641e-07
4.30857e-07
4.25009e-07
4.20115e-07
4.16081e-07
4.12859e-07
4.10369e-07
4.08531e-07
4.07251e-07
4.06398e-07
4.05842e-07
4.05366e-07
4.04816e-07
5.48128e-07
5.31455e-07
5.16851e-07
5.0229e-07
4.89493e-07
4.77213e-07
4.66314e-07
4.5633e-07
4.47508e-07
4.39713e-07
4.32981e-07
4.27249e-07
4.22486e-07
4.18632e-07
4.15631e-07
4.13407e-07
4.11891e-07
4.10978e-07
4.10629e-07
4.10675e-07
5.75349e-07
5.56816e-07
5.42239e-07
5.25926e-07
5.11584e-07
4.97492e-07
4.84725e-07
4.7294e-07
4.62348e-07
4.52877e-07
4.44554e-07
4.3734e-07
4.31217e-07
4.26145e-07
4.22097e-07
4.19025e-07
4.1693e-07
4.1574e-07
4.1561e-07
4.16346e-07
5.95599e-07
5.75773e-07
5.62165e-07
5.46006e-07
5.31047e-07
5.1618e-07
5.02112e-07
4.8889e-07
4.76712e-07
4.65644e-07
4.55745e-07
4.4703e-07
4.39512e-07
4.33179e-07
4.28038e-07
4.24075e-07
4.21365e-07
4.19879e-07
4.19972e-07
4.21441e-07
6.03442e-07
5.84874e-07
5.71428e-07
5.56229e-07
5.41299e-07
5.2645e-07
5.12125e-07
4.98465e-07
4.85696e-07
4.73922e-07
4.63247e-07
4.53723e-07
4.454e-07
4.38301e-07
4.32478e-07
4.27951e-07
4.24868e-07
4.23234e-07
4.23566e-07
4.25654e-07
5.87954e-07
5.78436e-07
5.66122e-07
5.52927e-07
5.39447e-07
5.25831e-07
5.12494e-07
4.99589e-07
4.87364e-07
4.75947e-07
4.65476e-07
4.56033e-07
4.47702e-07
4.40539e-07
4.34634e-07
4.30045e-07
4.26971e-07
4.25453e-07
4.26128e-07
4.28755e-07
5.75488e-07
5.68273e-07
5.58853e-07
5.47556e-07
5.35825e-07
5.23525e-07
5.11273e-07
4.99195e-07
4.876e-07
4.76631e-07
4.66463e-07
4.57204e-07
4.48968e-07
4.41842e-07
4.35944e-07
4.31369e-07
4.28357e-07
4.26959e-07
4.27883e-07
4.30878e-07
5.60642e-07
5.56324e-07
5.49268e-07
5.39818e-07
5.29755e-07
5.18796e-07
5.07701e-07
4.96565e-07
4.85748e-07
4.75399e-07
4.6572e-07
4.56836e-07
4.48881e-07
4.41967e-07
4.36228e-07
4.31792e-07
4.28892e-07
4.27654e-07
4.28834e-07
4.3203e-07
5.43739e-07
5.41703e-07
5.36878e-07
5.29367e-07
5.21083e-07
5.11631e-07
5.01856e-07
4.91836e-07
4.81968e-07
4.72413e-07
4.63393e-07
4.5505e-07
4.47533e-07
4.40974e-07
4.35504e-07
4.3131e-07
4.28513e-07
4.276e-07
4.28195e-07
4.32136e-07
5.25754e-07
5.25753e-07
5.22934e-07
5.17244e-07
5.10636e-07
5.02673e-07
4.94234e-07
4.85392e-07
4.76561e-07
4.6791e-07
4.59674e-07
4.52005e-07
4.45065e-07
4.38985e-07
4.33929e-07
4.30027e-07
4.27552e-07
4.2664e-07
4.27872e-07
4.30961e-07
5.07007e-07
5.08682e-07
5.07614e-07
5.03624e-07
4.98608e-07
4.92123e-07
4.85039e-07
4.77428e-07
4.69708e-07
4.62053e-07
4.54705e-07
4.47818e-07
4.41562e-07
4.36069e-07
4.315e-07
4.27976e-07
4.25762e-07
4.24907e-07
4.26048e-07
4.28953e-07
4.87879e-07
4.90942e-07
4.91398e-07
4.88944e-07
4.85393e-07
4.80319e-07
4.74559e-07
4.68187e-07
4.61615e-07
4.55015e-07
4.48628e-07
4.4261e-07
4.37127e-07
4.32306e-07
4.28301e-07
4.25213e-07
4.23275e-07
4.22542e-07
4.23545e-07
4.26058e-07
4.68538e-07
4.72701e-07
4.74449e-07
4.73368e-07
4.71158e-07
4.67426e-07
4.62957e-07
4.57825e-07
4.52426e-07
4.46926e-07
4.41562e-07
4.36483e-07
4.31849e-07
4.27777e-07
4.24402e-07
4.2181e-07
4.20188e-07
4.19562e-07
4.20377e-07
4.22423e-07
4.49068e-07
4.54092e-07
4.56932e-07
4.57066e-07
4.56082e-07
4.53619e-07
4.50399e-07
4.46498e-07
4.42285e-07
4.37921e-07
4.33625e-07
4.29543e-07
4.2582e-07
4.22561e-07
4.19881e-07
4.17842e-07
4.16577e-07
4.16091e-07
4.16695e-07
4.18195e-07
4.29439e-07
4.35122e-07
4.38879e-07
4.40098e-07
4.40247e-07
4.38993e-07
4.36994e-07
4.34321e-07
4.31311e-07
4.28114e-07
4.24932e-07
4.21897e-07
4.19142e-07
4.16755e-07
4.14826e-07
4.13395e-07
4.12538e-07
4.12225e-07
4.12624e-07
4.13561e-07
4.09556e-07
4.15749e-07
4.20293e-07
4.225e-07
4.2372e-07
4.23642e-07
4.22854e-07
4.21418e-07
4.19635e-07
4.1764e-07
4.15614e-07
4.13673e-07
4.11932e-07
4.10467e-07
4.09342e-07
4.08573e-07
4.08179e-07
4.08094e-07
4.08329e-07
4.08721e-07
3.89225e-07
3.9584e-07
4.01095e-07
4.04249e-07
4.06521e-07
4.07623e-07
4.08068e-07
4.07903e-07
4.07392e-07
4.06646e-07
4.05824e-07
4.05023e-07
4.04342e-07
4.03841e-07
4.03562e-07
4.03501e-07
4.03626e-07
4.03832e-07
4.03977e-07
4.03889e-07
3.68259e-07
3.75277e-07
3.8123e-07
3.85348e-07
3.88708e-07
3.91038e-07
3.92773e-07
3.93944e-07
3.94766e-07
3.95329e-07
3.95764e-07
3.96149e-07
3.96564e-07
3.97058e-07
3.97654e-07
3.98334e-07
3.99025e-07
3.9959e-07
3.99742e-07
3.99282e-07
3.46328e-07
3.53828e-07
3.60559e-07
3.65742e-07
3.70298e-07
3.73972e-07
3.7711e-07
3.79721e-07
3.81973e-07
3.83927e-07
3.85685e-07
3.87306e-07
3.88852e-07
3.90359e-07
3.91841e-07
3.93273e-07
3.94557e-07
3.95534e-07
3.95806e-07
3.95124e-07
3.23306e-07
3.31472e-07
3.39149e-07
3.45579e-07
3.51507e-07
3.56688e-07
3.61378e-07
3.65561e-07
3.69353e-07
3.72788e-07
3.75935e-07
3.78834e-07
3.81528e-07
3.84047e-07
3.86398e-07
3.88558e-07
3.90426e-07
3.9184e-07
3.9234e-07
3.91611e-07
2.98738e-07
3.07928e-07
3.16874e-07
3.24871e-07
3.32457e-07
3.39401e-07
3.45865e-07
3.51804e-07
3.57286e-07
3.62316e-07
3.66933e-07
3.71157e-07
3.75017e-07
3.78531e-07
3.81706e-07
3.84527e-07
3.86914e-07
3.88726e-07
3.89527e-07
3.88942e-07
2.73111e-07
2.83802e-07
2.94424e-07
3.04352e-07
3.13906e-07
3.22866e-07
3.31302e-07
3.39149e-07
3.46427e-07
3.5312e-07
3.59242e-07
3.64798e-07
3.69799e-07
3.74257e-07
3.78176e-07
3.81552e-07
3.84335e-07
3.86431e-07
3.87512e-07
3.87203e-07
2.45911e-07
2.58904e-07
2.71868e-07
2.84282e-07
2.96251e-07
3.07572e-07
3.18244e-07
3.28189e-07
3.37398e-07
3.45843e-07
3.53523e-07
3.60431e-07
3.66567e-07
3.71929e-07
3.76509e-07
3.80301e-07
3.8327e-07
3.85395e-07
3.86526e-07
3.86505e-07
2.20307e-07
2.36256e-07
2.52014e-07
2.6717e-07
2.81712e-07
2.95437e-07
3.08326e-07
3.2029e-07
3.31319e-07
3.41386e-07
3.50489e-07
3.5862e-07
3.65771e-07
3.71929e-07
3.77062e-07
3.81146e-07
3.84121e-07
3.86011e-07
3.86762e-07
3.86646e-07
3.44037e-07
3.67354e-07
4.06985e-07
4.50573e-07
4.93935e-07
5.32111e-07
5.63039e-07
5.85244e-07
5.99042e-07
6.01956e-07
3.25904e-07
3.4765e-07
3.84236e-07
4.25438e-07
4.67851e-07
5.06779e-07
5.40122e-07
5.65742e-07
5.83551e-07
5.90587e-07
3.09663e-07
3.30406e-07
3.64455e-07
4.03052e-07
4.43459e-07
4.81355e-07
5.14979e-07
5.42537e-07
5.64065e-07
5.77368e-07
2.94806e-07
3.14878e-07
3.46828e-07
3.83115e-07
4.21653e-07
4.58438e-07
4.91747e-07
5.1988e-07
5.42427e-07
5.59537e-07
2.80867e-07
3.00481e-07
3.30649e-07
3.64762e-07
4.01309e-07
4.36712e-07
4.694e-07
4.98027e-07
5.2128e-07
5.40565e-07
2.67782e-07
2.87109e-07
3.1581e-07
3.47996e-07
3.82621e-07
4.16465e-07
4.4802e-07
4.76395e-07
4.99648e-07
5.20341e-07
2.5531e-07
2.74441e-07
3.01902e-07
3.32371e-07
3.65191e-07
3.97505e-07
4.27859e-07
4.55746e-07
4.78654e-07
4.99796e-07
2.43408e-07
2.62386e-07
2.88777e-07
3.177e-07
3.48804e-07
3.79549e-07
4.08552e-07
4.35655e-07
4.58049e-07
4.792e-07
2.31997e-07
2.5082e-07
2.76253e-07
3.03768e-07
3.3327e-07
3.62487e-07
3.90126e-07
4.16265e-07
4.37989e-07
4.58766e-07
2.21078e-07
2.39692e-07
2.64213e-07
2.90392e-07
3.1835e-07
3.46037e-07
3.72287e-07
3.97333e-07
4.18319e-07
4.38523e-07
2.10677e-07
2.28983e-07
2.5257e-07
2.77427e-07
3.03862e-07
3.30014e-07
3.54862e-07
3.78717e-07
3.98896e-07
4.18393e-07
2.0088e-07
2.1872e-07
2.41266e-07
2.64728e-07
2.89594e-07
3.14163e-07
3.37576e-07
3.60171e-07
3.79496e-07
3.9822e-07
1.91855e-07
2.0898e-07
2.30252e-07
2.52131e-07
2.75297e-07
2.98187e-07
3.20112e-07
3.41387e-07
3.59823e-07
3.77747e-07
1.83853e-07
1.99883e-07
2.19503e-07
2.39499e-07
2.60741e-07
2.81807e-07
3.02159e-07
3.22062e-07
3.39587e-07
3.56716e-07
1.77355e-07
1.91623e-07
2.08879e-07
2.26453e-07
2.45417e-07
2.64465e-07
2.83158e-07
3.01669e-07
3.18307e-07
3.34703e-07
1.7293e-07
1.84293e-07
1.98225e-07
2.12759e-07
2.29029e-07
2.45841e-07
2.62792e-07
2.79913e-07
2.95727e-07
3.11494e-07
1.71844e-07
1.78078e-07
1.86729e-07
1.97146e-07
2.10217e-07
2.24654e-07
2.3992e-07
2.55819e-07
2.7104e-07
2.86445e-07
1.74334e-07
1.71778e-07
1.73485e-07
1.79198e-07
1.88825e-07
2.00889e-07
2.14648e-07
2.29595e-07
2.44557e-07
2.59944e-07
1.83561e-07
1.63825e-07
1.54422e-07
1.54376e-07
1.60959e-07
1.71399e-07
1.84514e-07
1.99378e-07
2.1492e-07
2.3107e-07
1.87634e-07
1.43868e-07
1.28203e-07
1.23662e-07
1.28756e-07
1.38734e-07
1.52347e-07
1.68215e-07
1.85305e-07
2.0309e-07
)
;

boundaryField
{
    left
    {
        type            calculated;
        value           nonuniform List<scalar> 
30
(
3.40074e-07
3.22156e-07
3.06115e-07
2.91434e-07
2.77689e-07
2.64815e-07
2.52592e-07
2.40991e-07
2.29949e-07
2.19483e-07
2.0964e-07
2.00522e-07
1.92316e-07
1.85298e-07
1.79975e-07
1.77093e-07
1.78161e-07
1.85018e-07
2.0396e-07
2.33458e-07
1.53756e-06
9.86718e-07
7.42944e-07
6.17654e-07
5.39633e-07
4.84259e-07
4.42747e-07
4.09776e-07
3.82858e-07
3.5962e-07
)
;
    }
    right
    {
        type            calculated;
        value           nonuniform List<scalar> 
30
(
3.86495e-07
3.86386e-07
3.87413e-07
3.90069e-07
3.94048e-07
3.99093e-07
4.04762e-07
4.1065e-07
4.16352e-07
4.21494e-07
4.25725e-07
4.28878e-07
4.31014e-07
4.32176e-07
4.32174e-07
4.31087e-07
4.29088e-07
4.26173e-07
4.22511e-07
4.18253e-07
4.13591e-07
4.08723e-07
4.0387e-07
3.99247e-07
3.95084e-07
3.91575e-07
3.88921e-07
3.872e-07
3.8652e-07
3.86571e-07
)
;
    }
    down
    {
        type            calculated;
        value           nonuniform List<scalar> 
30
(
3.47956e-10
3.14093e-09
1.93344e-08
4.48839e-08
7.43108e-08
1.05072e-07
1.3512e-07
1.63767e-07
1.90047e-07
2.1439e-07
2.36306e-07
2.55404e-07
2.72944e-07
2.88717e-07
3.02945e-07
3.15695e-07
3.27124e-07
3.37311e-07
3.46376e-07
3.54388e-07
3.61426e-07
3.67541e-07
3.72775e-07
3.77155e-07
3.80695e-07
3.83412e-07
3.85297e-07
3.86422e-07
3.86781e-07
3.86655e-07
)
;
    }
    up
    {
        type            calculated;
        value           nonuniform List<scalar> 
30
(
1.84969e-07
1.42239e-07
1.27359e-07
1.22716e-07
1.27662e-07
1.37486e-07
1.51004e-07
1.66844e-07
1.83921e-07
2.01782e-07
2.19053e-07
2.35131e-07
2.51044e-07
2.66328e-07
2.81001e-07
2.94841e-07
3.07839e-07
3.19898e-07
3.31013e-07
3.41154e-07
3.50323e-07
3.58509e-07
3.65706e-07
3.71901e-07
3.77059e-07
3.81157e-07
3.84134e-07
3.86016e-07
3.86754e-07
3.86703e-07
)
;
    }
    hole
    {
        type            calculated;
        value           nonuniform List<scalar> 
20
(
6.86495e-07
8.05564e-07
9.21961e-07
1.03338e-06
1.13628e-06
1.23126e-06
1.31312e-06
1.39205e-06
1.45263e-06
1.5232e-06
1.87781e-09
1.87776e-09
1.23952e-08
4.50253e-08
9.59096e-08
1.64583e-07
2.48782e-07
3.46136e-07
4.53611e-07
5.68168e-07
)
;
    }
    frontAndBack
    {
        type            empty;
    }
}


// ************************************************************************* //
