/*--------------------------------*- C++ -*----------------------------------*\
  =========                 |
  \\      /  F ield         | OpenFOAM: The Open Source CFD Toolbox
   \\    /   O peration     | Website:  https://openfoam.org
    \\  /    A nd           | Version:  9
     \\/     M anipulation  |
\*---------------------------------------------------------------------------*/
FoamFile
{
    format      ascii;
    class       volSymmTensorField;
    location    "1";
    object      epsilon;
}
// * * * * * * * * * * * * * * * * * * * * * * * * * * * * * * * * * * * * * //

dimensions      [0 0 0 0 0 0 0];

internalField   nonuniform List<symmTensor> 
1000
(
(4.23097e-07 -5.46563e-07 7.05699e-20 8.3909e-08 7.72538e-20 2.10851e-34)
(5.8288e-07 -4.21571e-07 -8.67335e-22 -1.0469e-07 4.86613e-22 0)
(6.61223e-07 -3.22978e-07 1.01267e-21 -1.94899e-07 -1.94253e-22 0)
(7.05165e-07 -2.48604e-07 2.59654e-22 -2.58216e-07 -1.86005e-22 0)
(7.26343e-07 -1.88774e-07 -1.09961e-21 -2.93305e-07 8.06361e-23 0)
(7.33456e-07 -1.4199e-07 -1.18568e-22 -3.15761e-07 1.30657e-22 0)
(7.32632e-07 -1.03964e-07 -1.00059e-21 -3.27911e-07 -5.36881e-22 0)
(7.25991e-07 -7.37258e-08 6.86486e-22 -3.34107e-07 3.20932e-22 0)
(7.17373e-07 -4.85891e-08 -3.55109e-22 -3.36361e-07 -4.02644e-22 0)
(7.04834e-07 -2.76731e-08 0 -3.36692e-07 0 0)
(5.71945e-07 -6.07731e-07 6.98122e-20 2.255e-08 8.9642e-20 1.21172e-35)
(6.958e-07 -4.35182e-07 0 -1.45146e-07 0 0)
(7.48886e-07 -3.106e-07 8.11893e-22 -2.1948e-07 3.86831e-22 0)
(7.7349e-07 -2.21051e-07 -1.39333e-21 -2.72233e-07 -7.42899e-22 0)
(7.79613e-07 -1.52768e-07 -5.92328e-22 -2.9887e-07 -3.56968e-22 0)
(7.74824e-07 -1.01685e-07 4.12822e-22 -3.15428e-07 4.20104e-22 0)
(7.64343e-07 -6.17958e-08 4.61726e-22 -3.22882e-07 3.09169e-22 0)
(7.5017e-07 -3.14716e-08 1.08513e-21 -3.26247e-07 6.33123e-22 0)
(7.3423e-07 -6.89441e-09 0 -3.25162e-07 0 0)
(7.17389e-07 1.2777e-08 0 -3.25729e-07 0 0)
(7.3872e-07 -6.4639e-07 6.69373e-20 -5.86941e-08 1.00178e-19 0)
(8.12772e-07 -4.34679e-07 0 -1.9088e-07 0 0)
(8.33027e-07 -2.89108e-07 7.73991e-22 -2.4138e-07 3.9979e-22 0)
(8.33694e-07 -1.87659e-07 -2.31715e-22 -2.78811e-07 8.21015e-23 0)
(8.22027e-07 -1.13388e-07 -1.13416e-23 -2.94157e-07 5.07078e-24 0)
(8.03703e-07 -5.98625e-08 -3.84931e-22 -3.03117e-07 -3.97473e-22 0)
(7.82704e-07 -1.96555e-08 5.24482e-22 -3.04862e-07 2.42553e-22 0)
(7.60375e-07 9.70938e-09 -3.89834e-22 -3.0464e-07 -2.87559e-22 0)
(7.37724e-07 3.25335e-08 -3.10047e-23 -3.00447e-07 5.41661e-23 0)
(7.1589e-07 5.10896e-08 -8.21439e-23 -3.00121e-07 -3.54405e-23 0)
(9.17197e-07 -6.57024e-07 5.87309e-20 -1.55234e-07 1.05682e-19 -6.74979e-36)
(9.30876e-07 -4.18338e-07 4.42587e-22 -2.40168e-07 -4.5729e-23 0)
(9.1232e-07 -2.58841e-07 -3.53837e-22 -2.60195e-07 -1.99552e-22 0)
(8.85239e-07 -1.50056e-07 -2.2371e-22 -2.78267e-07 4.34734e-23 0)
(8.53553e-07 -7.30584e-08 4.01831e-22 -2.80029e-07 3.87745e-22 0)
(8.20568e-07 -1.93756e-08 -4.83199e-22 -2.80243e-07 -3.19264e-22 0)
(7.88601e-07 1.94351e-08 -4.17511e-22 -2.75906e-07 -2.96815e-22 0)
(7.5824e-07 4.67571e-08 -9.30555e-22 -2.7204e-07 -6.80063e-22 0)
(7.2932e-07 6.68988e-08 -1.33813e-22 -2.65314e-07 -1.62699e-22 0)
(7.03181e-07 8.32975e-08 2.2814e-22 -2.63815e-07 2.01335e-22 0)
(1.09853e-06 -6.34691e-07 4.85085e-20 -2.60816e-07 1.05686e-19 -1.23425e-34)
(1.04627e-06 -3.839e-07 2.31522e-26 -2.90736e-07 1.1055e-27 0)
(9.84752e-07 -2.19324e-07 -1.14537e-21 -2.75127e-07 -5.6096e-22 0)
(9.27201e-07 -1.09057e-07 1.03893e-22 -2.70652e-07 -3.94394e-24 0)
(8.73973e-07 -3.35765e-08 -1.45524e-22 -2.57073e-07 1.54632e-23 0)
(8.25745e-07 1.72695e-08 3.48352e-22 -2.47787e-07 3.21133e-22 0)
(7.82899e-07 5.25162e-08 -3.8806e-23 -2.37317e-07 1.15222e-23 0)
(7.44899e-07 7.63115e-08 3.67121e-22 -2.30008e-07 2.45202e-22 0)
(7.10574e-07 9.26961e-08 -8.02982e-23 -2.21491e-07 -1.69789e-22 0)
(6.80728e-07 1.06049e-07 -1.45327e-22 -2.19071e-07 -1.17193e-22 0)
(1.27669e-06 -5.78152e-07 3.58988e-20 -3.68467e-07 9.93666e-20 -1.29598e-34)
(1.15617e-06 -3.299e-07 2.11196e-26 -3.39228e-07 4.46199e-27 0)
(1.04911e-06 -1.69996e-07 -1.14235e-26 -2.84356e-07 -1.76804e-27 0)
(9.59276e-07 -6.5451e-08 9.18159e-23 -2.55467e-07 1.12856e-23 0)
(8.83768e-07 3.33483e-09 -4.95776e-22 -2.25848e-07 -3.01248e-22 0)
(8.20447e-07 4.77762e-08 5.63247e-24 -2.07237e-07 -5.02499e-26 0)
(7.67365e-07 7.71e-08 3.69038e-22 -1.91263e-07 2.49689e-22 0)
(7.22575e-07 9.58633e-08 7.84941e-22 -1.81193e-07 5.73359e-22 0)
(6.83843e-07 1.07615e-07 1.42179e-22 -1.71778e-07 1.04202e-22 0)
(6.5107e-07 1.17209e-07 -2.48396e-22 -1.68852e-07 -1.95258e-22 0)
(1.43972e-06 -4.83777e-07 2.59223e-20 -4.69613e-07 8.7828e-20 -2.7888e-34)
(1.25412e-06 -2.52311e-07 3.31364e-22 -3.80495e-07 1.32917e-22 0)
(1.09975e-06 -1.094e-07 3.50648e-22 -2.83758e-07 1.5925e-22 0)
(9.77655e-07 -1.97219e-08 -7.54617e-23 -2.30535e-07 -2.25494e-23 0)
(8.81129e-07 3.59573e-08 3.58754e-22 -1.86211e-07 2.39722e-22 0)
(8.04562e-07 6.98284e-08 -3.3015e-22 -1.6004e-07 -2.27073e-22 0)
(7.43184e-07 9.07682e-08 9.33854e-23 -1.40332e-07 5.7748e-24 0)
(6.93284e-07 1.03121e-07 -2.94627e-22 -1.28894e-07 -1.92913e-22 0)
(6.51638e-07 1.09702e-07 -2.01789e-23 -1.19803e-07 2.5207e-24 0)
(6.16932e-07 1.15174e-07 -1.49223e-22 -1.1701e-07 -9.73808e-23 0)
(1.59248e-06 -3.51252e-07 1.5842e-20 -5.56841e-07 7.09978e-20 -1.13966e-35)
(1.33657e-06 -1.47183e-07 -8.84289e-22 -4.04354e-07 -3.18643e-22 0)
(1.13311e-06 -3.66544e-08 6.83931e-24 -2.65109e-07 3.75548e-24 0)
(9.81408e-07 2.55277e-08 1.10314e-22 -1.92042e-07 5.60367e-23 0)
(8.67337e-07 6.08023e-08 8.19788e-22 -1.37867e-07 4.07733e-22 0)
(7.81162e-07 8.02252e-08 -4.82593e-23 -1.08337e-07 -1.521e-23 0)
(7.14509e-07 9.11827e-08 1.19998e-27 -8.81716e-08 2.40858e-28 0)
(6.61833e-07 9.67029e-08 -2.88199e-22 -7.75527e-08 -1.52077e-22 0)
(6.19002e-07 9.84953e-08 6.92678e-24 -7.0257e-08 3.1876e-25 0)
(5.83478e-07 1.00228e-07 2.1517e-23 -6.83384e-08 1.06437e-23 0)
(1.71041e-06 -1.64096e-07 6.73904e-21 -6.07968e-07 4.99746e-20 1.1703e-34)
(1.3766e-06 -1.42061e-08 -9.73909e-22 -3.84121e-07 -4.09004e-22 0)
(1.12659e-06 3.84669e-08 1.01618e-22 -2.10938e-07 8.6566e-23 0)
(9.56183e-07 5.81636e-08 9.5393e-23 -1.32093e-07 7.55819e-23 0)
(8.36249e-07 6.80335e-08 -3.98791e-23 -8.06349e-08 -2.4427e-23 0)
(7.48837e-07 7.14081e-08 3.19426e-22 -5.58216e-08 1.16179e-22 0)
(6.82723e-07 7.30683e-08 1.73344e-23 -4.03577e-08 5.39709e-24 0)
(6.30837e-07 7.30523e-08 5.15138e-22 -3.33305e-08 1.97359e-22 0)
(5.88949e-07 7.17793e-08 1.13747e-22 -2.91843e-08 4.40243e-23 0)
(5.53742e-07 7.11286e-08 6.38805e-23 -2.86584e-08 2.55241e-23 0)
(1.81535e-06 1.47428e-07 1.60863e-21 -5.60773e-07 2.81891e-20 1.21822e-34)
(1.34193e-06 1.65254e-07 -7.45241e-23 -2.52708e-07 -1.291e-22 0)
(1.07929e-06 1.09362e-07 3.38272e-22 -1.05785e-07 1.43897e-22 0)
(9.15735e-07 7.11504e-08 1.73455e-23 -5.22209e-08 2.44293e-23 0)
(8.05745e-07 5.62463e-08 5.92166e-28 -2.45848e-08 5.54188e-28 0)
(7.24665e-07 4.7921e-08 3.23839e-22 -1.35038e-08 5.85137e-23 0)
(6.63081e-07 4.49282e-08 4.98537e-24 -7.59971e-09 1.49527e-24 0)
(6.1362e-07 4.31756e-08 2.48219e-22 -5.62288e-09 4.72625e-23 0)
(5.73193e-07 4.17942e-08 -2.71479e-24 -4.74701e-09 -2.14255e-25 0)
(5.38222e-07 4.08495e-08 -4.15726e-24 -5.08445e-09 -8.85347e-25 0)
(-2.27328e-10 1.55181e-09 3.56165e-20 -1.1566e-09 2.07265e-20 1.69542e-34)
(3.65489e-09 -4.31647e-09 -1.9763e-23 -1.40358e-09 1.90813e-20 1.61792e-36)
(2.2808e-08 -1.41507e-08 -2.39083e-22 -1.06664e-08 1.83362e-20 2.01543e-35)
(5.30051e-08 -2.2026e-08 -2.24016e-24 -2.44695e-08 1.85735e-20 0)
(8.77831e-08 -2.6888e-08 -3.46932e-23 -3.98089e-08 1.81733e-20 -1.6146e-36)
(1.24138e-07 -2.96596e-08 -3.2639e-22 -5.55865e-08 1.849e-20 3.37324e-35)
(1.5965e-07 -3.07527e-08 7.19018e-23 -7.08187e-08 1.88518e-20 1.61111e-36)
(1.93506e-07 -3.0847e-08 -2.16744e-22 -8.52017e-08 1.86033e-20 3.06191e-35)
(2.24564e-07 -3.00339e-08 1.72573e-22 -9.84387e-08 1.86563e-20 -1.32833e-35)
(2.53333e-07 -2.94067e-08 5.22184e-22 -1.10355e-07 1.85559e-20 -4.00506e-35)
(5.21218e-09 -4.66218e-09 3.66163e-20 -2.47902e-09 4.61872e-21 4.57063e-35)
(2.41796e-08 -2.64002e-08 2.62319e-22 -1.02983e-09 2.87573e-22 0)
(5.87898e-08 -5.04191e-08 -2.45499e-22 -1.54282e-08 -2.46419e-22 0)
(9.72798e-08 -6.87791e-08 1.90623e-24 -3.48548e-08 -2.03836e-22 0)
(1.35887e-07 -8.00767e-08 0 -5.42165e-08 0 0)
(1.72497e-07 -8.64141e-08 -3.71795e-22 -7.2453e-08 -5.55461e-23 0)
(2.06222e-07 -8.87073e-08 6.36515e-23 -8.88584e-08 3.20021e-22 0)
(2.37207e-07 -8.85652e-08 4.73554e-24 -1.03529e-07 1.72162e-23 0)
(2.64506e-07 -8.6124e-08 -2.02363e-22 -1.16423e-07 -5.81902e-22 0)
(2.89854e-07 -8.41783e-08 1.46808e-22 -1.2738e-07 2.29711e-23 0)
(7.30138e-09 -2.39618e-08 3.74472e-20 6.19996e-09 7.44096e-21 -2.03657e-36)
(4.36239e-08 -6.63082e-08 2.6828e-22 1.48669e-09 2.84051e-22 0)
(9.24824e-08 -9.60553e-08 2.80199e-22 -2.08963e-08 5.88852e-23 0)
(1.40443e-07 -1.15993e-07 1.39203e-23 -4.86725e-08 -1.96559e-22 0)
(1.84575e-07 -1.26989e-07 0 -7.42724e-08 0 0)
(2.23391e-07 -1.3217e-07 -4.1624e-22 -9.67257e-08 -1.08976e-22 0)
(2.57098e-07 -1.32818e-07 -5.67768e-22 -1.15584e-07 -1.59437e-22 0)
(2.86731e-07 -1.30714e-07 3.76046e-22 -1.31464e-07 2.29847e-22 0)
(3.11365e-07 -1.26101e-07 2.30531e-24 -1.44418e-07 7.32945e-24 0)
(3.34351e-07 -1.22221e-07 -3.38285e-22 -1.54953e-07 -2.13722e-22 0)
(1.04434e-08 -5.42014e-08 3.93511e-20 2.68424e-08 1.08197e-20 -3.60668e-35)
(7.02459e-08 -1.14136e-07 6.55627e-23 4.11164e-09 -2.38343e-22 0)
(1.32314e-07 -1.4541e-07 3.07912e-22 -2.82535e-08 6.03933e-23 0)
(1.88875e-07 -1.62958e-07 0 -6.42397e-08 0 0)
(2.37856e-07 -1.70243e-07 -5.23871e-22 -9.55578e-08 1.94937e-22 0)
(2.78806e-07 -1.71618e-07 7.80084e-24 -1.22055e-07 4.83546e-22 0)
(3.12676e-07 -1.6872e-07 -2.69523e-23 -1.43444e-07 -2.59759e-22 0)
(3.4129e-07 -1.63328e-07 -7.65548e-23 -1.60789e-07 -4.00941e-22 0)
(3.63601e-07 -1.55817e-07 1.71434e-22 -1.74189e-07 5.57343e-23 0)
(3.84624e-07 -1.49467e-07 3.20065e-22 -1.84728e-07 1.20207e-22 0)
(1.85926e-08 -9.69134e-08 3.94652e-20 5.55371e-08 1.51648e-20 7.77465e-35)
(1.07716e-07 -1.66194e-07 -5.39662e-22 3.4949e-09 3.61813e-22 0)
(1.83023e-07 -1.94306e-07 -3.27915e-22 -4.24041e-08 -9.66369e-23 0)
(2.469e-07 -2.06016e-07 -8.74845e-23 -8.72928e-08 3.54465e-22 0)
(2.9909e-07 -2.06822e-07 -3.40438e-24 -1.23795e-07 2.18643e-23 0)
(3.40828e-07 -2.02285e-07 5.04666e-22 -1.53536e-07 -1.35183e-22 0)
(3.73854e-07 -1.9432e-07 2.20209e-22 -1.76671e-07 5.79325e-23 0)
(4.00704e-07 -1.84549e-07 0 -1.948e-07 0 0)
(4.20247e-07 -1.73565e-07 -2.36122e-22 -2.08115e-07 -3.09262e-22 0)
(4.3896e-07 -1.64221e-07 9.37593e-23 -2.18251e-07 2.28252e-23 0)
(3.63591e-08 -1.53041e-07 4.29749e-20 8.78153e-08 1.94442e-20 -8.98111e-35)
(1.57294e-07 -2.18964e-07 2.19628e-22 -4.77904e-10 -4.29587e-22 0)
(2.45104e-07 -2.38286e-07 -2.71319e-22 -6.1787e-08 -2.92123e-22 0)
(3.14453e-07 -2.41172e-07 5.90326e-23 -1.15378e-07 -1.65042e-22 0)
(3.67837e-07 -2.33762e-07 5.72925e-22 -1.56013e-07 1.91912e-22 0)
(4.08599e-07 -2.22262e-07 -5.51885e-22 -1.87844e-07 6.11155e-23 0)
(4.39397e-07 -2.0859e-07 -5.74893e-25 -2.11709e-07 1.46542e-23 0)
(4.63371e-07 -1.94063e-07 -4.31114e-22 -2.29775e-07 -2.9652e-22 0)
(4.79444e-07 -1.79501e-07 9.27723e-25 -2.42463e-07 5.75101e-24 0)
(4.95178e-07 -1.67012e-07 -4.70305e-22 -2.51708e-07 -2.15009e-22 0)
(6.88984e-08 -2.21975e-07 4.95105e-20 1.16809e-07 2.72758e-20 -7.45974e-35)
(2.19395e-07 -2.7035e-07 1.21668e-23 -9.18469e-09 -1.84761e-23 0)
(3.17415e-07 -2.74743e-07 -8.9047e-27 -8.58851e-08 1.52578e-26 0)
(3.89767e-07 -2.65824e-07 -5.85884e-22 -1.47383e-07 -4.10166e-22 0)
(4.42101e-07 -2.48823e-07 -9.84446e-23 -1.90943e-07 2.65416e-22 0)
(4.79949e-07 -2.29795e-07 -5.36449e-22 -2.23652e-07 -2.18386e-22 0)
(5.07e-07 -2.1026e-07 9.64467e-22 -2.47152e-07 4.29975e-22 0)
(5.26836e-07 -1.91051e-07 -7.32463e-26 -2.64251e-07 1.15077e-23 0)
(5.38677e-07 -1.73156e-07 1.89457e-22 -2.75658e-07 -6.73844e-25 0)
(5.50588e-07 -1.57625e-07 -2.57261e-22 -2.83493e-07 -1.22488e-22 0)
(1.20978e-07 -3.01154e-07 5.75688e-20 1.36073e-07 3.72847e-20 -1.24289e-34)
(2.93806e-07 -3.18346e-07 3.13554e-22 -2.32116e-08 -3.75311e-22 0)
(3.97668e-07 -3.01942e-07 -1.20936e-22 -1.12617e-07 1.61589e-22 0)
(4.69694e-07 -2.78567e-07 7.38492e-23 -1.80047e-07 -1.15544e-22 0)
(5.18492e-07 -2.51039e-07 6.57337e-27 -2.24913e-07 -1.29779e-26 0)
(5.51482e-07 -2.24386e-07 6.21893e-22 -2.57199e-07 5.29493e-23 0)
(5.7338e-07 -1.99288e-07 4.59153e-23 -2.79363e-07 -2.02448e-22 0)
(5.87924e-07 -1.75924e-07 -1.49117e-23 -2.9466e-07 1.66588e-22 0)
(5.94996e-07 -1.55276e-07 2.52753e-24 -3.04487e-07 8.31859e-23 0)
(6.02221e-07 -1.37106e-07 1.97036e-22 -3.10353e-07 1.83545e-22 0)
(1.96367e-07 -3.8594e-07 6.34799e-20 1.39553e-07 5.00901e-20 1.47286e-34)
(3.80001e-07 -3.60975e-07 -9.97924e-23 -4.35545e-08 6.88449e-22 0)
(4.83406e-07 -3.19089e-07 -1.1698e-26 -1.40608e-07 1.22911e-26 0)
(5.50962e-07 -2.79263e-07 8.05131e-22 -2.10906e-07 1.89312e-22 0)
(5.93491e-07 -2.40707e-07 6.15391e-22 -2.55023e-07 3.07116e-22 0)
(6.19676e-07 -2.06706e-07 5.55207e-22 -2.8552e-07 2.77149e-22 0)
(6.35085e-07 -1.76604e-07 -5.99231e-23 -3.0529e-07 1.74004e-22 0)
(6.43283e-07 -1.49953e-07 -6.68711e-22 -3.18225e-07 -3.73404e-22 0)
(6.45202e-07 -1.27253e-07 4.10019e-22 -3.25983e-07 9.73503e-23 0)
(6.47183e-07 -1.06948e-07 1.84179e-22 -3.30405e-07 1.09364e-22 0)
(2.97106e-07 -4.70178e-07 6.78958e-20 1.22953e-07 6.28522e-20 1.95686e-35)
(4.76869e-07 -3.96145e-07 -2.03474e-22 -7.06466e-08 1.50375e-22 0)
(5.71991e-07 -3.26046e-07 -3.95605e-22 -1.68343e-07 -1.84423e-22 0)
(6.30239e-07 -2.68788e-07 1.71268e-21 -2.37447e-07 4.01749e-22 0)
(6.63505e-07 -2.19258e-07 1.04395e-23 -2.78371e-07 -1.19108e-23 0)
(6.80922e-07 -1.78433e-07 -5.46119e-22 -3.05519e-07 -3.09836e-22 0)
(6.8858e-07 -1.44097e-07 -5.84273e-22 -3.21988e-07 -9.22878e-23 0)
(6.89504e-07 -1.15124e-07 -2.20512e-22 -3.31608e-07 -1.31771e-22 0)
(6.86494e-07 -9.16321e-08 2.35593e-23 -3.37831e-07 -1.82176e-22 0)
(6.81521e-07 -7.12531e-08 1.11197e-22 -3.38361e-07 2.30392e-22 0)
(2.79235e-07 -2.72778e-08 8.34878e-22 -1.21437e-07 1.87961e-20 -1.19186e-35)
(3.01806e-07 -2.43287e-08 9.47166e-22 -1.30671e-07 1.85378e-20 -2.61874e-35)
(3.22536e-07 -2.17666e-08 5.4031e-22 -1.39239e-07 1.8075e-20 -1.52753e-35)
(3.41176e-07 -1.94407e-08 5.80943e-22 -1.46991e-07 1.82996e-20 -6.7036e-37)
(3.57992e-07 -1.72838e-08 3.46645e-22 -1.53965e-07 1.83166e-20 3.98154e-35)
(3.7306e-07 -1.53536e-08 6.07506e-22 -1.60251e-07 1.83986e-20 0)
(3.86567e-07 -1.35841e-08 5.72793e-22 -1.65877e-07 1.83821e-20 0)
(3.98607e-07 -1.19871e-08 6.48784e-22 -1.7091e-07 1.85025e-20 5.17362e-37)
(4.0932e-07 -1.05244e-08 6.00552e-22 -1.75388e-07 1.83893e-20 -1.35246e-35)
(4.18788e-07 -9.18356e-09 6.99975e-22 -1.79358e-07 1.86143e-20 8.77532e-37)
(4.27106e-07 -7.93666e-09 7.2803e-22 -1.8285e-07 1.84411e-20 -4.0971e-35)
(4.34333e-07 -6.76426e-09 2.94652e-22 -1.85893e-07 1.82789e-20 1.37246e-35)
(4.40519e-07 -5.6449e-09 6.59277e-22 -1.88507e-07 1.8423e-20 -4.13793e-35)
(4.45696e-07 -4.56098e-09 -5.15668e-23 -1.90705e-07 1.78713e-20 -8.3094e-37)
(4.49879e-07 -3.49961e-09 3.06248e-22 -1.92495e-07 1.83966e-20 1.41685e-35)
(4.5309e-07 -2.45874e-09 2.45428e-22 -1.93883e-07 1.82853e-20 -3.35426e-45)
(4.55318e-07 -1.45354e-09 8.0493e-23 -1.94864e-07 1.81331e-20 -1.51345e-37)
(4.56648e-07 -5.40576e-10 2.95793e-22 -1.95455e-07 1.84247e-20 1.08603e-37)
(4.57072e-07 1.58102e-10 1.90887e-22 -1.95634e-07 1.80913e-20 -4.28027e-35)
(4.56922e-07 3.22765e-10 3.12975e-20 -1.95369e-07 1.78423e-20 -7.71734e-35)
(3.10702e-07 -7.83798e-08 3.60774e-22 -1.37257e-07 4.4176e-22 0)
(3.27425e-07 -7.05373e-08 2.32921e-22 -1.44305e-07 6.4059e-23 0)
(3.43417e-07 -6.36308e-08 1.69941e-23 -1.50795e-07 -1.00809e-22 0)
(3.57762e-07 -5.7188e-08 5.30603e-22 -1.56753e-07 4.77163e-22 0)
(3.70972e-07 -5.11511e-08 -1.01636e-22 -1.62069e-07 -2.41252e-23 0)
(3.82898e-07 -4.56965e-08 -4.32934e-22 -1.66951e-07 -4.3735e-22 0)
(3.93759e-07 -4.06478e-08 2.20052e-22 -1.71331e-07 8.16013e-23 0)
(4.03536e-07 -3.60631e-08 0 -1.75313e-07 0 0)
(4.12361e-07 -3.18332e-08 1.04844e-22 -1.78894e-07 3.7224e-23 0)
(4.20256e-07 -2.79421e-08 2.1559e-22 -1.82122e-07 8.32542e-23 0)
(4.27301e-07 -2.43138e-08 6.47025e-22 -1.85011e-07 3.34441e-22 0)
(4.3353e-07 -2.09067e-08 2.92923e-24 -1.87585e-07 3.33604e-24 0)
(4.38989e-07 -1.76652e-08 8.34308e-23 -1.89854e-07 -6.5025e-23 0)
(4.43706e-07 -1.45502e-08 1.23874e-22 -1.91826e-07 1.41181e-22 0)
(4.47698e-07 -1.1531e-08 1.27078e-22 -1.93494e-07 1.45214e-22 0)
(4.50993e-07 -8.60694e-09 -1.25883e-22 -1.94841e-07 -1.44584e-22 0)
(4.53567e-07 -5.81197e-09 -1.26593e-22 -1.95822e-07 -1.46223e-22 0)
(4.55452e-07 -3.26852e-09 -2.54225e-22 -1.96356e-07 -2.95372e-22 0)
(4.565e-07 -1.16072e-09 -1.92289e-24 -1.96257e-07 -2.0981e-24 0)
(4.56758e-07 -4.21178e-11 3.17325e-20 -1.95225e-07 4.6514e-22 7.04927e-35)
(3.50399e-07 -1.1353e-07 9.88e-23 -1.63084e-07 1.34477e-22 0)
(3.60914e-07 -1.02841e-07 1.34157e-22 -1.67267e-07 4.79571e-23 0)
(3.7181e-07 -9.32511e-08 -3.13087e-22 -1.70777e-07 -3.92482e-22 0)
(3.81358e-07 -8.43495e-08 -2.75346e-23 -1.74109e-07 7.15543e-23 0)
(3.90511e-07 -7.58697e-08 5.69993e-22 -1.76951e-07 4.73523e-22 0)
(3.98805e-07 -6.81723e-08 -4.53065e-22 -1.79673e-07 -4.31282e-22 0)
(4.0658e-07 -6.0971e-08 -1.2074e-22 -1.82125e-07 -1.39254e-22 0)
(4.13671e-07 -5.43924e-08 2.30739e-22 -1.8444e-07 2.61388e-22 0)
(4.20225e-07 -4.82849e-08 1.3664e-25 -1.86585e-07 -1.69486e-22 0)
(4.26196e-07 -4.26468e-08 -2.44127e-22 -1.88601e-07 -2.73447e-22 0)
(4.31653e-07 -3.73846e-08 2.33917e-22 -1.90486e-07 2.61086e-22 0)
(4.36594e-07 -3.24526e-08 3.61443e-22 -1.92252e-07 4.03668e-22 0)
(4.41054e-07 -2.77831e-08 2.76519e-24 -1.93895e-07 3.03674e-24 0)
(4.45043e-07 -2.33302e-08 -1.2375e-22 -1.95407e-07 -1.39017e-22 0)
(4.48566e-07 -1.90509e-08 1.22502e-22 -1.96757e-07 1.38451e-22 0)
(4.51625e-07 -1.49309e-08 1.80554e-29 -1.9789e-07 2.00385e-29 0)
(4.54154e-07 -1.09782e-08 -1.26205e-22 -1.98698e-07 -1.44443e-22 0)
(4.56123e-07 -7.2563e-09 1.7501e-23 -1.99003e-07 1.04236e-22 0)
(4.57211e-07 -3.87952e-09 -4.12933e-22 -1.98434e-07 -5.36811e-23 0)
(4.57392e-07 -1.00104e-09 3.18332e-20 -1.96574e-07 4.53614e-22 5.25539e-38)
(3.95952e-07 -1.38338e-07 0 -1.91277e-07 0 0)
(4.00032e-07 -1.26093e-07 1.43444e-22 -1.92827e-07 5.23337e-23 0)
(4.05761e-07 -1.14799e-07 1.12718e-22 -1.93513e-07 1.28301e-22 0)
(4.10296e-07 -1.04499e-07 1.23723e-22 -1.94388e-07 1.42647e-22 0)
(4.15183e-07 -9.44727e-08 0 -1.94807e-07 0 0)
(4.19567e-07 -8.53718e-08 1.62478e-23 -1.95377e-07 -7.1908e-23 0)
(4.23982e-07 -7.67511e-08 -3.69234e-22 -1.95859e-07 -2.26591e-22 0)
(4.28092e-07 -6.88384e-08 -2.36224e-22 -1.96431e-07 -2.55733e-22 0)
(4.32091e-07 -6.14416e-08 -1.32359e-22 -1.97039e-07 -6.11456e-23 0)
(4.35855e-07 -5.45876e-08 1.0435e-25 -1.97724e-07 1.63346e-22 0)
(4.39447e-07 -4.81746e-08 -1.1595e-22 -1.9847e-07 3.57376e-23 0)
(4.42827e-07 -4.21615e-08 2.43492e-22 -1.9928e-07 1.04583e-22 0)
(4.46011e-07 -3.6477e-08 2.30699e-22 -2.00138e-07 1.17568e-23 0)
(4.48983e-07 -3.10684e-08 6.05808e-24 -2.01016e-07 8.7347e-23 0)
(4.51724e-07 -2.58827e-08 1.04164e-23 -2.01865e-07 9.26057e-23 0)
(4.54208e-07 -2.08802e-08 -1.24778e-22 -2.02603e-07 -1.39908e-22 0)
(4.56325e-07 -1.60351e-08 -2.66477e-29 -2.03085e-07 -2.9898e-29 0)
(4.58017e-07 -1.13155e-08 2.66478e-22 -2.031e-07 3.88865e-22 0)
(4.58876e-07 -6.76167e-09 -1.39309e-23 -2.02233e-07 -1.022e-22 0)
(4.58914e-07 -2.04474e-09 3.13489e-20 -2.00056e-07 7.82502e-23 -1.01907e-34)
(4.45369e-07 -1.51194e-07 1.18189e-23 -2.22777e-07 1.79022e-22 0)
(4.42776e-07 -1.389e-07 -1.55924e-22 -2.21634e-07 -6.81712e-23 0)
(4.4331e-07 -1.26906e-07 -3.9287e-22 -2.19261e-07 -3.1943e-22 0)
(4.42701e-07 -1.16346e-07 2.58472e-22 -2.17574e-07 1.757e-22 0)
(4.43248e-07 -1.05736e-07 6.72538e-22 -2.15422e-07 4.41242e-22 0)
(4.43572e-07 -9.61473e-08 -1.23796e-22 -2.13674e-07 -1.28933e-22 0)
(4.44481e-07 -8.6925e-08 0 -2.1201e-07 0 0)
(4.4543e-07 -7.84144e-08 1.20553e-22 -2.10646e-07 1.25015e-22 0)
(4.46686e-07 -7.03931e-08 -3.86703e-22 -2.09525e-07 -1.6542e-22 0)
(4.48038e-07 -6.29192e-08 -2.51265e-22 -2.08683e-07 -1.84912e-22 0)
(4.49554e-07 -5.58978e-08 1.32633e-23 -2.08105e-07 -1.42475e-22 0)
(4.51154e-07 -4.92976e-08 -1.27238e-22 -2.07782e-07 -2.13618e-22 0)
(4.52836e-07 -4.30501e-08 -1.16839e-23 -2.0769e-07 2.24181e-22 0)
(4.54558e-07 -3.70971e-08 2.48311e-22 -2.07789e-07 3.48164e-22 0)
(4.56278e-07 -3.13761e-08 1.20306e-22 -2.08018e-07 5.13611e-23 0)
(4.57949e-07 -2.58154e-08 -4.94878e-24 -2.0828e-07 -8.67466e-23 0)
(4.59436e-07 -2.03505e-08 2.33178e-22 -2.08418e-07 9.60675e-23 0)
(4.60669e-07 -1.48451e-08 1.14679e-22 -2.08223e-07 4.61109e-23 0)
(4.61231e-07 -9.29454e-09 4.7151e-22 -2.07301e-07 3.71884e-22 0)
(4.61162e-07 -2.96521e-09 3.2378e-20 -2.05264e-07 1.11918e-21 1.00992e-34)
(4.96501e-07 -1.52758e-07 9.23683e-23 -2.54037e-07 1.262e-22 0)
(4.87174e-07 -1.42002e-07 2.23318e-24 -2.50602e-07 4.84476e-24 0)
(4.82676e-07 -1.30271e-07 -2.83866e-22 -2.45349e-07 -1.96436e-22 0)
(4.76929e-07 -1.20494e-07 -6.819e-22 -2.41305e-07 -5.09354e-22 0)
(4.73218e-07 -1.10165e-07 2.66299e-22 -2.36776e-07 1.81172e-22 0)
(4.69486e-07 -1.00867e-07 2.51065e-22 -2.32826e-07 2.484e-22 0)
(4.6688e-07 -9.17583e-08 -1.23008e-22 -2.29124e-07 -1.2189e-22 0)
(4.64624e-07 -8.32816e-08 -1.93479e-23 -2.25872e-07 5.45558e-23 0)
(4.63056e-07 -7.52196e-08 5.38477e-22 -2.23039e-07 3.2057e-22 0)
(4.61896e-07 -6.76472e-08 -3.60726e-22 -2.20647e-07 -3.6679e-22 0)
(4.61206e-07 -6.04911e-08 -1.28315e-22 -2.18691e-07 -1.32102e-22 0)
(4.60876e-07 -5.37283e-08 3.49596e-22 -2.17159e-07 5.14802e-22 0)
(4.60889e-07 -4.73015e-08 -5.07632e-22 -2.16026e-07 -1.51658e-22 0)
(4.61184e-07 -4.1151e-08 -3.63184e-22 -2.15255e-07 -3.86685e-22 0)
(4.61705e-07 -3.52074e-08 5.04586e-25 -2.14785e-07 -7.80075e-23 0)
(4.6239e-07 -2.93717e-08 -4.88598e-22 -2.14527e-07 -3.73306e-22 0)
(4.63108e-07 -2.35508e-08 -3.55952e-24 -2.14339e-07 -3.33825e-24 0)
(4.63781e-07 -1.75189e-08 4.80596e-22 -2.14042e-07 4.58248e-22 0)
(4.64066e-07 -1.12449e-08 7.95956e-24 -2.13323e-07 9.44656e-23 0)
(4.63977e-07 -3.68532e-09 3.25509e-20 -2.11851e-07 8.9142e-22 -7.31776e-37)
(5.46858e-07 -1.4302e-07 -9.67636e-23 -2.83437e-07 -1.2348e-22 0)
(5.31097e-07 -1.35522e-07 1.33457e-22 -2.78345e-07 1.21461e-22 0)
(5.22054e-07 -1.25059e-07 1.64405e-22 -2.70705e-07 8.58589e-23 0)
(5.11416e-07 -1.17055e-07 -1.30232e-22 -2.64589e-07 -1.21722e-22 0)
(5.037e-07 -1.07933e-07 -3.07777e-22 -2.58017e-07 -1.53735e-22 0)
(4.96079e-07 -9.96687e-08 1.50248e-22 -2.52004e-07 7.47233e-23 0)
(4.9004e-07 -9.1374e-08 4.25573e-22 -2.46374e-07 2.73504e-22 0)
(4.8464e-07 -8.35069e-08 -6.84781e-22 -2.41276e-07 -4.59152e-22 0)
(4.80253e-07 -7.5922e-08 -4.22348e-22 -2.36749e-07 -2.7787e-22 0)
(4.76568e-07 -6.87026e-08 6.62935e-22 -2.32805e-07 4.48341e-22 0)
(4.73627e-07 -6.18206e-08 -2.70077e-22 -2.29458e-07 -1.29229e-22 0)
(4.71307e-07 -5.5266e-08 3.58851e-22 -2.26696e-07 3.66287e-22 0)
(4.69571e-07 -4.90004e-08 3.85639e-22 -2.24499e-07 2.51021e-22 0)
(4.68346e-07 -4.29671e-08 -2.25908e-22 -2.22835e-07 -3.1278e-22 0)
(4.6757e-07 -3.70961e-08 -1.46039e-22 -2.21655e-07 7.57689e-23 0)
(4.67175e-07 -3.12698e-08 6.96835e-24 -2.20887e-07 6.41176e-24 0)
(4.67053e-07 -2.53747e-08 -5.95524e-22 -2.20426e-07 -4.94616e-22 0)
(4.67121e-07 -1.91182e-08 1.18403e-22 -2.20141e-07 1.32547e-22 0)
(4.67162e-07 -1.24591e-08 2.34339e-22 -2.19825e-07 1.83086e-22 0)
(4.67119e-07 -4.1517e-09 3.2675e-20 -2.1923e-07 8.94007e-22 -3.00013e-37)
(5.93803e-07 -1.22701e-07 1.17269e-24 -3.08393e-07 3.93216e-24 0)
(5.72361e-07 -1.20137e-07 -1.3795e-22 -3.02466e-07 -1.20998e-22 0)
(5.59545e-07 -1.1203e-07 2.9279e-23 -2.9345e-07 -3.19909e-23 0)
(5.44552e-07 -1.06462e-07 0 -2.85629e-07 0 0)
(5.33236e-07 -9.9371e-08 0 -2.77651e-07 0 0)
(5.22177e-07 -9.27213e-08 -4.12898e-22 -2.70046e-07 -3.22538e-22 0)
(5.12974e-07 -8.58816e-08 3.67668e-22 -2.62913e-07 3.417e-22 0)
(5.04676e-07 -7.91836e-08 7.74857e-22 -2.56287e-07 6.73794e-22 0)
(4.976e-07 -7.2601e-08 -5.86384e-22 -2.50274e-07 -5.6123e-22 0)
(4.91472e-07 -6.61998e-08 -5.13326e-22 -2.44902e-07 -4.35963e-22 0)
(4.86305e-07 -6.00023e-08 2.369e-22 -2.40213e-07 2.34765e-22 0)
(4.81986e-07 -5.4015e-08 -2.27998e-23 -2.36221e-07 4.64305e-23 0)
(4.78466e-07 -4.82264e-08 4.04287e-22 -2.32929e-07 1.99902e-22 0)
(4.75671e-07 -4.25948e-08 6.30365e-22 -2.30329e-07 4.3551e-22 0)
(4.73544e-07 -3.7059e-08 8.61341e-24 -2.28398e-07 7.84945e-24 0)
(4.72012e-07 -3.1498e-08 2.85446e-22 -2.27098e-07 -7.77993e-23 0)
(4.71014e-07 -2.57914e-08 0 -2.26376e-07 0 0)
(4.70457e-07 -1.96107e-08 -2.41141e-22 -2.26161e-07 -1.06633e-22 0)
(4.70294e-07 -1.29134e-08 1.16003e-22 -2.26377e-07 4.91645e-23 0)
(4.70356e-07 -4.35135e-09 3.31403e-20 -2.26871e-07 9.87347e-22 -7.97101e-37)
(6.35327e-07 -9.37628e-08 -9.21218e-25 -3.27089e-07 -3.43887e-24 0)
(6.09024e-07 -9.7038e-08 1.70945e-22 -3.20922e-07 1.02084e-22 0)
(5.93575e-07 -9.29668e-08 -1.70042e-22 -3.12619e-07 -1.03473e-22 0)
(5.75224e-07 -9.03157e-08 -1.67358e-22 -3.03755e-07 -1.00781e-22 0)
(5.60659e-07 -8.61087e-08 4.59706e-22 -2.94881e-07 3.13121e-22 0)
(5.4667e-07 -8.14713e-08 3.2733e-22 -2.85971e-07 1.9528e-22 0)
(5.34575e-07 -7.64175e-08 -4.34949e-22 -2.77515e-07 -2.90728e-22 0)
(5.23686e-07 -7.11392e-08 5.72264e-23 -2.69566e-07 -6.0913e-23 0)
(5.14161e-07 -6.57824e-08 9.88903e-23 -2.62264e-07 9.14136e-23 0)
(5.05799e-07 -6.04283e-08 -5.30081e-23 -2.55668e-07 7.18461e-23 0)
(4.98568e-07 -5.51455e-08 -4.41287e-22 -2.49828e-07 -2.41964e-22 0)
(4.92368e-07 -4.99642e-08 3.95811e-24 -2.44776e-07 3.8057e-24 0)
(4.87143e-07 -4.48929e-08 -2.02737e-22 -2.40531e-07 -2.74325e-22 0)
(4.82825e-07 -3.99058e-08 -6.83222e-24 -2.37109e-07 -6.23234e-24 0)
(4.79367e-07 -3.49523e-08 2.57663e-22 -2.34516e-07 1.25558e-22 0)
(4.76704e-07 -2.99166e-08 -5.14957e-24 -2.32753e-07 -4.48997e-24 0)
(4.7483e-07 -2.46803e-08 3.15488e-22 -2.31832e-07 4.20946e-22 0)
(4.73648e-07 -1.89081e-08 -1.18595e-22 -2.3175e-07 -5.31345e-23 0)
(4.73298e-07 -1.25562e-08 -5.5708e-22 -2.32569e-07 -5.49858e-22 0)
(4.73481e-07 -4.26887e-09 3.26973e-20 -2.34249e-07 4.9705e-22 -6.02313e-35)
(6.68381e-07 -5.66214e-08 -2.17771e-23 -3.3923e-07 -1.09842e-23 0)
(6.41132e-07 -6.37826e-08 -1.83227e-22 -3.31672e-07 -1.07959e-22 0)
(6.23483e-07 -6.54707e-08 1.48958e-22 -3.25955e-07 1.167e-22 0)
(6.03847e-07 -6.61522e-08 -3.90204e-22 -3.17894e-07 -3.54181e-22 0)
(5.86653e-07 -6.58253e-08 -4.0127e-22 -3.09503e-07 -3.32717e-22 0)
(5.70399e-07 -6.43282e-08 2.37723e-22 -3.00516e-07 2.44467e-22 0)
(5.55703e-07 -6.20163e-08 2.06839e-22 -2.91465e-07 2.45302e-22 0)
(5.42367e-07 -5.90238e-08 3.59845e-22 -2.82628e-07 3.23319e-22 0)
(5.30459e-07 -5.55608e-08 -4.21803e-22 -2.74235e-07 -3.14352e-22 0)
(5.19881e-07 -5.17843e-08 1.08293e-24 -2.66463e-07 8.61135e-24 0)
(5.10594e-07 -4.78188e-08 -5.23901e-24 -2.59429e-07 -2.56786e-23 0)
(5.02512e-07 -4.37542e-08 -3.30271e-22 -2.53223e-07 -3.21758e-22 0)
(4.95581e-07 -3.96442e-08 0 -2.4791e-07 0 0)
(4.8973e-07 -3.55026e-08 -2.98188e-22 -2.4354e-07 -9.72091e-23 0)
(4.84928e-07 -3.13084e-08 -1.42218e-24 -2.40165e-07 -5.9333e-24 0)
(4.81112e-07 -2.69718e-08 -3.85295e-22 -2.37833e-07 -1.87757e-22 0)
(4.78336e-07 -2.23921e-08 1.05831e-22 -2.36622e-07 1.11279e-22 0)
(4.765e-07 -1.72596e-08 2.4295e-22 -2.36607e-07 1.11318e-22 0)
(4.75949e-07 -1.15359e-08 3.0126e-24 -2.38001e-07 -2.41655e-25 0)
(4.76266e-07 -3.94504e-09 3.30147e-20 -2.40886e-07 4.6126e-22 -2.5519e-37)
(6.84545e-07 -2.60215e-08 1.88829e-22 -3.4025e-07 1.65659e-22 0)
(6.59722e-07 -2.98485e-08 -1.7437e-22 -3.339e-07 -1.09563e-22 0)
(6.40642e-07 -3.69093e-08 -1.01183e-22 -3.29902e-07 -8.37718e-23 0)
(6.21158e-07 -4.02547e-08 1.67552e-22 -3.2337e-07 1.0239e-22 0)
(6.03108e-07 -4.26098e-08 -3.30833e-22 -3.15705e-07 -1.50613e-22 0)
(5.85976e-07 -4.36683e-08 -2.23158e-22 -3.07295e-07 -1.05565e-22 0)
(5.70173e-07 -4.37051e-08 -2.78701e-22 -2.98488e-07 -2.01923e-22 0)
(5.556e-07 -4.28982e-08 3.3276e-23 -2.8966e-07 -2.31965e-23 0)
(5.42379e-07 -4.14099e-08 5.6307e-22 -2.8108e-07 3.58683e-22 0)
(5.30456e-07 -3.94097e-08 -1.94178e-23 -2.7297e-07 -2.07886e-23 0)
(5.19835e-07 -3.70291e-08 3.00837e-22 -2.65498e-07 1.70407e-22 0)
(5.1046e-07 -3.43786e-08 -1.48906e-23 -2.58797e-07 -1.67942e-23 0)
(5.02303e-07 -3.15344e-08 1.10206e-36 -2.52975e-07 1.11524e-36 0)
(4.95313e-07 -2.85353e-08 -1.32213e-22 -2.48124e-07 -6.59337e-23 0)
(4.89487e-07 -2.53883e-08 1.29238e-22 -2.44339e-07 6.29962e-23 0)
(4.84778e-07 -2.20383e-08 -5.83117e-24 -2.41714e-07 -8.37275e-24 0)
(4.81295e-07 -1.84149e-08 2.02327e-23 -2.40395e-07 -5.43629e-23 0)
(4.78935e-07 -1.42768e-08 1.18701e-24 -2.40522e-07 3.88384e-24 0)
(4.78208e-07 -9.59812e-09 -1.18444e-24 -2.42436e-07 1.54487e-24 0)
(4.78593e-07 -3.29448e-09 3.34053e-20 -2.46334e-07 1.75804e-22 2.97516e-37)
(6.71013e-07 4.02046e-09 1.75224e-22 -3.27864e-07 1.38287e-22 0)
(6.54471e-07 -3.83707e-10 0 -3.29709e-07 0 0)
(6.37208e-07 -8.99997e-09 -1.36795e-22 -3.26643e-07 -1.20174e-22 0)
(6.19941e-07 -1.46511e-08 1.78724e-36 -3.21694e-07 1.44366e-36 0)
(6.03468e-07 -1.91006e-08 4.09373e-37 -3.15139e-07 2.96543e-37 0)
(5.87557e-07 -2.22538e-08 1.94182e-36 -3.07652e-07 1.44169e-36 0)
(5.72621e-07 -2.42916e-08 2.97998e-36 -2.99584e-07 2.40247e-36 0)
(5.58607e-07 -2.53961e-08 -1.19921e-22 -2.91318e-07 -1.12011e-22 0)
(5.45685e-07 -2.57128e-08 0 -2.83139e-07 0 0)
(5.33849e-07 -2.54018e-08 1.14606e-22 -2.75293e-07 1.10677e-22 0)
(5.23152e-07 -2.45905e-08 -1.64741e-37 -2.67973e-07 -2.74482e-37 0)
(5.13582e-07 -2.33916e-08 -1.10255e-22 -2.61338e-07 -1.10239e-22 0)
(5.0515e-07 -2.18879e-08 1.08445e-22 -2.55523e-07 1.10302e-22 0)
(4.97839e-07 -2.01334e-08 1.55508e-36 -2.50651e-07 1.13122e-36 0)
(4.9168e-07 -1.81501e-08 -1.05553e-22 -2.46847e-07 -1.1093e-22 0)
(4.86656e-07 -1.59203e-08 -9.35121e-37 -2.44243e-07 -8.62287e-37 0)
(4.82925e-07 -1.33952e-08 1.03673e-22 -2.4303e-07 1.12247e-22 0)
(4.80399e-07 -1.04236e-08 1.03131e-22 -2.43391e-07 1.13229e-22 0)
(4.79709e-07 -7.01125e-09 -1.11203e-36 -2.45766e-07 -9.67838e-37 0)
(4.80267e-07 -2.40056e-09 3.35468e-20 -2.50387e-07 -9.82793e-37 -1.97896e-49)
(6.59299e-07 3.41499e-08 3.26707e-23 -3.15071e-07 5.589e-23 0)