/*--------------------------------*- C++ -*----------------------------------*\
  =========                 |
  \\      /  F ield         | OpenFOAM: The Open Source CFD Toolbox
   \\    /   O peration     | Website:  https://openfoam.org
    \\  /    A nd           | Version:  9
     \\/     M anipulation  |
\*---------------------------------------------------------------------------*/
FoamFile
{
    format      ascii;
    class       pointVectorField;
    location    "1";
    object      pointD;
}
// * * * * * * * * * * * * * * * * * * * * * * * * * * * * * * * * * * * * * //

dimensions      [0 1 0 0 0 0 0];

internalField   nonuniform List<vector> 
2142
(
(7.41821e-07 2.17624e-07 -1.00303e-20)
(6.87679e-07 2.51881e-07 0)
(6.49847e-07 2.76322e-07 0)
(6.22331e-07 2.96184e-07 0)
(6.02541e-07 3.12462e-07 0)
(5.88517e-07 3.26481e-07 0)
(5.78856e-07 3.38809e-07 0)
(5.72567e-07 3.49952e-07 0)
(5.68888e-07 3.6021e-07 0)
(5.67258e-07 3.69792e-07 0)
(5.6766e-07 3.80191e-07 0)
(6.77823e-07 1.99654e-07 -1.11519e-20)
(6.20508e-07 2.26647e-07 0)
(5.80783e-07 2.45673e-07 0)
(5.52056e-07 2.61276e-07 0)
(5.31448e-07 2.74034e-07 0)
(5.16816e-07 2.85072e-07 0)
(5.06643e-07 2.94785e-07 0)
(4.99877e-07 3.03601e-07 0)
(4.95688e-07 3.11719e-07 0)
(4.93501e-07 3.19388e-07 0)
(4.83702e-07 3.19754e-07 0)
(6.11228e-07 1.81983e-07 -1.19499e-20)
(5.52347e-07 2.00888e-07 0)
(5.11784e-07 2.14085e-07 0)
(4.82614e-07 2.2523e-07 0)
(4.61766e-07 2.34411e-07 0)
(4.46972e-07 2.42492e-07 0)
(4.36635e-07 2.49661e-07 0)
(4.29655e-07 2.56235e-07 0)
(4.25177e-07 2.623e-07 0)
(4.22579e-07 2.68095e-07 0)
(4.138e-07 2.67486e-07 0)
(5.42302e-07 1.64767e-07 -1.22922e-20)
(4.83598e-07 1.75119e-07 0)
(4.43343e-07 1.82286e-07 0)
(4.14571e-07 1.88928e-07 0)
(3.9412e-07 1.94591e-07 0)
(3.79656e-07 1.99844e-07 0)
(3.69544e-07 2.04639e-07 0)
(3.62661e-07 2.0916e-07 0)
(3.58156e-07 2.13378e-07 0)
(3.55398e-07 2.17474e-07 0)
(3.47815e-07 2.16206e-07 0)
(4.71293e-07 1.48101e-07 -1.20922e-20)
(4.14546e-07 1.49825e-07 0)
(3.758e-07 1.51003e-07 0)
(3.48323e-07 1.53271e-07 0)
(3.28954e-07 1.55613e-07 0)
(3.15348e-07 1.58272e-07 0)
(3.0587e-07 1.60946e-07 0)
(2.99409e-07 1.63671e-07 0)
(2.95141e-07 1.663e-07 0)
(2.92445e-07 1.68934e-07 0)
(2.86115e-07 1.67299e-07 0)
(3.98533e-07 1.31978e-07 -1.13229e-20)
(3.45411e-07 1.25387e-07 0)
(3.09379e-07 1.20883e-07 0)
(2.84135e-07 1.19124e-07 0)
(2.66571e-07 1.18511e-07 0)
(2.54369e-07 1.18949e-07 0)
(2.45939e-07 1.19864e-07 0)
(2.4021e-07 1.21135e-07 0)
(2.36416e-07 1.22498e-07 0)
(2.3397e-07 1.23968e-07 0)
(2.28888e-07 1.2225e-07 0)
(3.24235e-07 1.1622e-07 -1.00142e-20)
(2.7621e-07 1.02021e-07 0)
(2.44126e-07 9.24412e-08 0)
(2.22105e-07 8.72795e-08 0)
(2.07102e-07 8.42996e-08 0)
(1.96854e-07 8.30502e-08 0)
(1.89866e-07 8.26805e-08 0)
(1.8515e-07 8.29176e-08 0)
(1.82031e-07 8.33939e-08 0)
(1.79986e-07 8.4043e-08 0)
(1.76102e-07 8.25064e-08 0)
(2.49035e-07 1.00359e-07 -8.26853e-21)
(2.07032e-07 7.96286e-08 0)
(1.80146e-07 6.60043e-08 0)
(1.62387e-07 5.8473e-08 0)
(1.50683e-07 5.40044e-08 0)
(1.4288e-07 5.17909e-08 0)
(1.37647e-07 5.07227e-08 0)
(1.3415e-07 5.04046e-08 0)
(1.31839e-07 5.04024e-08 0)
(1.30296e-07 5.05904e-08 0)
(1.27525e-07 4.9451e-08 0)
(1.73331e-07 8.29805e-08 -6.20648e-21)
(1.37555e-07 5.73839e-08 0)
(1.17436e-07 4.15625e-08 0)
(1.05032e-07 3.33606e-08 0)
(9.72693e-08 2.8689e-08 0)
(9.22702e-08 2.64205e-08 0)
(8.89776e-08 2.53005e-08 0)
(8.67951e-08 2.48959e-08 0)
(8.53436e-08 2.4781e-08 0)
(8.43459e-08 2.48188e-08 0)
(8.25804e-08 2.41905e-08 0)
(1.01885e-07 6.10653e-08 -3.98014e-21)
(6.83719e-08 3.37859e-08 0)
(5.694e-08 1.97807e-08 0)
(5.08241e-08 1.34931e-08 0)
(4.72396e-08 1.027e-08 0)
(4.50026e-08 8.86404e-09 0)
(4.35335e-08 8.23685e-09 0)
(4.25556e-08 8.06008e-09 0)
(4.18891e-08 8.04289e-09 0)
(4.14083e-08 8.09705e-09 0)
(4.05395e-08 7.91155e-09 0)
(3.42725e-08 2.42676e-08 -1.42767e-21)
(0 0 0)
(0 0 0)
(0 0 0)
(0 0 0)
(0 0 0)
(0 0 0)
(0 0 0)
(0 0 0)
(0 0 0)
(0 0 0)
(7.41821e-07 2.17624e-07 -1.00303e-20)
(6.87679e-07 2.51881e-07 0)
(6.49847e-07 2.76322e-07 0)
(6.22331e-07 2.96184e-07 0)
(6.02541e-07 3.12462e-07 0)
(5.88517e-07 3.26481e-07 0)
(5.78856e-07 3.38809e-07 0)
(5.72567e-07 3.49952e-07 0)
(5.68888e-07 3.6021e-07 0)
(5.67258e-07 3.69792e-07 0)
(5.6766e-07 3.80191e-07 0)
(6.77823e-07 1.99654e-07 -1.11519e-20)
(6.20508e-07 2.26647e-07 0)
(5.80783e-07 2.45673e-07 0)
(5.52056e-07 2.61276e-07 0)
(5.31448e-07 2.74034e-07 0)
(5.16816e-07 2.85072e-07 0)
(5.06643e-07 2.94785e-07 0)
(4.99877e-07 3.03601e-07 0)
(4.95688e-07 3.11719e-07 0)
(4.93501e-07 3.19388e-07 0)
(4.83702e-07 3.19754e-07 0)
(6.11228e-07 1.81983e-07 -1.19499e-20)
(5.52347e-07 2.00888e-07 0)
(5.11784e-07 2.14085e-07 0)
(4.82614e-07 2.2523e-07 0)
(4.61766e-07 2.34411e-07 0)
(4.46972e-07 2.42492e-07 0)
(4.36635e-07 2.49661e-07 0)
(4.29655e-07 2.56235e-07 0)
(4.25177e-07 2.623e-07 0)
(4.22579e-07 2.68095e-07 0)
(4.138e-07 2.67486e-07 0)
(5.42302e-07 1.64767e-07 -1.22922e-20)
(4.83598e-07 1.75119e-07 0)
(4.43343e-07 1.82286e-07 0)
(4.14571e-07 1.88928e-07 0)
(3.9412e-07 1.94591e-07 0)
(3.79656e-07 1.99844e-07 0)
(3.69544e-07 2.04639e-07 0)
(3.62661e-07 2.0916e-07 0)
(3.58156e-07 2.13378e-07 0)
(3.55398e-07 2.17474e-07 0)
(3.47815e-07 2.16206e-07 0)
(4.71293e-07 1.48101e-07 -1.20922e-20)
(4.14546e-07 1.49825e-07 0)
(3.758e-07 1.51003e-07 0)
(3.48323e-07 1.53271e-07 0)
(3.28954e-07 1.55613e-07 0)
(3.15348e-07 1.58272e-07 0)
(3.0587e-07 1.60946e-07 0)
(2.99409e-07 1.63671e-07 0)
(2.95141e-07 1.663e-07 0)
(2.92445e-07 1.68934e-07 0)
(2.86115e-07 1.67299e-07 0)
(3.98533e-07 1.31978e-07 -1.13229e-20)
(3.45411e-07 1.25387e-07 0)
(3.09379e-07 1.20883e-07 0)
(2.84135e-07 1.19124e-07 0)
(2.66571e-07 1.18511e-07 0)
(2.54369e-07 1.18949e-07 0)
(2.45939e-07 1.19864e-07 0)
(2.4021e-07 1.21135e-07 0)
(2.36416e-07 1.22498e-07 0)
(2.3397e-07 1.23968e-07 0)
(2.28888e-07 1.2225e-07 0)
(3.24235e-07 1.1622e-07 -1.00142e-20)
(2.7621e-07 1.02021e-07 0)
(2.44126e-07 9.24412e-08 0)
(2.22105e-07 8.72795e-08 0)
(2.07102e-07 8.42996e-08 0)
(1.96854e-07 8.30502e-08 0)
(1.89866e-07 8.26805e-08 0)
(1.8515e-07 8.29176e-08 0)
(1.82031e-07 8.33939e-08 0)
(1.79986e-07 8.4043e-08 0)
(1.76102e-07 8.25064e-08 0)
(2.49035e-07 1.00359e-07 -8.26853e-21)
(2.07032e-07 7.96286e-08 0)
(1.80146e-07 6.60043e-08 0)
(1.62387e-07 5.8473e-08 0)
(1.50683e-07 5.40044e-08 0)
(1.4288e-07 5.17909e-08 0)
(1.37647e-07 5.07227e-08 0)
(1.3415e-07 5.04046e-08 0)
(1.31839e-07 5.04024e-08 0)
(1.30296e-07 5.05904e-08 0)
(1.27525e-07 4.9451e-08 0)
(1.73331e-07 8.29805e-08 -6.20648e-21)
(1.37555e-07 5.73839e-08 0)
(1.17436e-07 4.15625e-08 0)
(1.05032e-07 3.33606e-08 0)
(9.72693e-08 2.8689e-08 0)
(9.22702e-08 2.64205e-08 0)
(8.89776e-08 2.53005e-08 0)
(8.67951e-08 2.48959e-08 0)
(8.53436e-08 2.4781e-08 0)
(8.43459e-08 2.48188e-08 0)
(8.25804e-08 2.41905e-08 0)
(1.01885e-07 6.10653e-08 -3.98014e-21)
(6.83719e-08 3.37859e-08 0)
(5.694e-08 1.97807e-08 0)
(5.08241e-08 1.34931e-08 0)
(4.72396e-08 1.027e-08 0)
(4.50026e-08 8.86404e-09 0)
(4.35335e-08 8.23685e-09 0)
(4.25556e-08 8.06008e-09 0)
(4.18891e-08 8.04289e-09 0)
(4.14083e-08 8.09705e-09 0)
(4.05395e-08 7.91155e-09 0)
(3.42725e-08 2.42676e-08 -1.42767e-21)
(0 0 0)
(0 0 0)
(0 0 0)
(0 0 0)
(0 0 0)
(0 0 0)
(0 0 0)
(0 0 0)
(0 0 0)
(0 0 0)
(1.20361e-06 3.57328e-07 -2.61077e-21)
(1.21225e-06 3.91862e-07 -1.60287e-21)
(1.21127e-06 4.36256e-07 -1.74827e-21)
(1.21064e-06 4.77441e-07 -1.89303e-21)
(1.21143e-06 5.15347e-07 -2.03698e-21)
(1.21406e-06 5.50359e-07 -2.18028e-21)
(1.21867e-06 5.8293e-07 -2.32308e-21)
(1.22524e-06 6.13521e-07 -2.4655e-21)
(1.2337e-06 6.42516e-07 -2.60765e-21)
(1.24385e-06 6.70278e-07 -2.74964e-21)
(1.25561e-06 6.96952e-07 -2.85222e-21)
(1.17685e-06 3.43927e-07 -3.75289e-21)
(1.17326e-06 3.90276e-07 0)
(1.17027e-06 4.34385e-07 0)
(1.16871e-06 4.74959e-07 0)
(1.169e-06 5.12011e-07 0)
(1.17126e-06 5.45997e-07 0)
(1.17548e-06 5.77417e-07 0)
(1.18157e-06 6.06773e-07 0)
(1.1894e-06 6.34477e-07 0)
(1.1988e-06 6.6092e-07 0)
(1.21032e-06 6.86425e-07 0)
(1.14045e-06 3.38229e-07 -3.86638e-21)
(1.13288e-06 3.85595e-07 0)
(1.12674e-06 4.29293e-07 0)
(1.12284e-06 4.69012e-07 0)
(1.12133e-06 5.04975e-07 0)
(1.12217e-06 5.37748e-07 0)
(1.12516e-06 5.67877e-07 0)
(1.13011e-06 5.95895e-07 0)
(1.13683e-06 6.22229e-07 0)
(1.14507e-06 6.47294e-07 0)
(1.15629e-06 6.7168e-07 0)
(1.10186e-06 3.29028e-07 -3.99443e-21)
(1.08948e-06 3.77941e-07 0)
(1.0796e-06 4.21074e-07 0)
(1.07272e-06 4.59625e-07 0)
(1.06882e-06 4.94151e-07 0)
(1.06769e-06 5.25401e-07 0)
(1.069e-06 5.53985e-07 0)
(1.07243e-06 5.80461e-07 0)
(1.07772e-06 6.05266e-07 0)
(1.08457e-06 6.28825e-07 0)
(1.09547e-06 6.52124e-07 0)
(1.06041e-06 3.17169e-07 -4.22756e-21)
(1.04241e-06 3.67427e-07 0)
(1.02836e-06 4.09747e-07 0)
(1.01816e-06 4.46843e-07 0)
(1.01159e-06 4.79627e-07 0)
(1.00822e-06 5.0907e-07 0)
(1.0076e-06 5.35852e-07 0)
(1.00932e-06 5.60563e-07 0)
(1.01303e-06 5.83649e-07 0)
(1.01836e-06 6.05533e-07 0)
(1.02898e-06 6.27746e-07 0)
(1.0157e-06 3.03222e-07 -4.65428e-21)
(9.91424e-07 3.54101e-07 0)
(9.72947e-07 3.9518e-07 0)
(9.59316e-07 4.3047e-07 0)
(9.49997e-07 4.61201e-07 0)
(9.44349e-07 4.8856e-07 0)
(9.41769e-07 5.13298e-07 0)
(9.41736e-07 5.36032e-07 0)
(9.43851e-07 5.57216e-07 0)
(9.47656e-07 5.77265e-07 0)
(9.58064e-07 5.98406e-07 0)
(9.6758e-07 2.87702e-07 -5.33446e-21)
(9.36653e-07 3.38087e-07 0)
(9.13665e-07 3.77335e-07 0)
(8.96632e-07 4.10426e-07 0)
(8.84646e-07 4.38807e-07 0)
(8.76803e-07 4.63845e-07 0)
(8.72346e-07 4.86336e-07 0)
(8.70644e-07 5.06917e-07 0)
(8.71235e-07 5.26045e-07 0)
(8.73594e-07 5.44119e-07 0)
(8.83905e-07 5.64211e-07 0)
(9.1603e-07 2.71027e-07 -6.27996e-21)
(8.78413e-07 3.19558e-07 0)
(8.51022e-07 3.56259e-07 0)
(8.30765e-07 3.86709e-07 0)
(8.16306e-07 4.12447e-07 0)
(8.06458e-07 4.34952e-07 0)
(8.00298e-07 4.55032e-07 0)
(7.97091e-07 4.73326e-07 0)
(7.96304e-07 4.90283e-07 0)
(7.9736e-07 5.06273e-07 0)
(8.07688e-07 5.25354e-07 0)
(8.61122e-07 2.53579e-07 -7.44758e-21)
(8.17157e-07 2.98777e-07 0)
(7.85682e-07 3.3215e-07 0)
(7.62517e-07 3.595e-07 0)
(7.45875e-07 3.82319e-07 0)
(7.34289e-07 4.02115e-07 0)
(7.26663e-07 4.19665e-07 0)
(7.22166e-07 4.35586e-07 0)
(7.20188e-07 4.50299e-07 0)
(7.20126e-07 4.64135e-07 0)
(7.3058e-07 4.8223e-07 0)
(8.02992e-07 2.35681e-07 -8.74293e-21)
(7.53401e-07 2.7608e-07 0)
(7.18377e-07 3.05345e-07 0)
(6.9275e-07 3.29149e-07 0)
(6.74304e-07 3.48799e-07 0)
(6.61307e-07 3.6575e-07 0)
(6.52499e-07 3.80698e-07 0)
(6.4696e-07 3.94211e-07 0)
(6.4401e-07 4.06664e-07 0)
(6.43054e-07 4.18299e-07 0)
(6.53685e-07 4.354e-07 0)
(1.20361e-06 3.57328e-07 -2.61077e-21)
(1.21225e-06 3.91862e-07 -1.60287e-21)
(1.21127e-06 4.36256e-07 -1.74827e-21)
(1.21064e-06 4.77441e-07 -1.89303e-21)
(1.21143e-06 5.15347e-07 -2.03698e-21)
(1.21406e-06 5.50359e-07 -2.18028e-21)
(1.21867e-06 5.8293e-07 -2.32308e-21)
(1.22524e-06 6.13521e-07 -2.4655e-21)
(1.2337e-06 6.42516e-07 -2.60765e-21)
(1.24385e-06 6.70278e-07 -2.74964e-21)
(1.25561e-06 6.96952e-07 -2.85222e-21)
(1.17685e-06 3.43927e-07 -3.75289e-21)
(1.17326e-06 3.90276e-07 0)
(1.17027e-06 4.34385e-07 0)
(1.16871e-06 4.74959e-07 0)
(1.169e-06 5.12011e-07 0)
(1.17126e-06 5.45997e-07 0)
(1.17548e-06 5.77417e-07 0)
(1.18157e-06 6.06773e-07 0)
(1.1894e-06 6.34477e-07 0)
(1.1988e-06 6.6092e-07 0)
(1.21032e-06 6.86425e-07 0)
(1.14045e-06 3.38229e-07 -3.86638e-21)
(1.13288e-06 3.85595e-07 0)
(1.12674e-06 4.29293e-07 0)
(1.12284e-06 4.69012e-07 0)
(1.12133e-06 5.04975e-07 0)
(1.12217e-06 5.37748e-07 0)
(1.12516e-06 5.67877e-07 0)
(1.13011e-06 5.95895e-07 0)
(1.13683e-06 6.22229e-07 0)
(1.14507e-06 6.47294e-07 0)
(1.15629e-06 6.7168e-07 0)
(1.10186e-06 3.29028e-07 -3.99443e-21)
(1.08948e-06 3.77941e-07 0)
(1.0796e-06 4.21074e-07 0)
(1.07272e-06 4.59625e-07 0)
(1.06882e-06 4.94151e-07 0)
(1.06769e-06 5.25401e-07 0)
(1.069e-06 5.53985e-07 0)
(1.07243e-06 5.80461e-07 0)
(1.07772e-06 6.05266e-07 0)
(1.08457e-06 6.28825e-07 0)
(1.09547e-06 6.52124e-07 0)
(1.06041e-06 3.17169e-07 -4.22756e-21)
(1.04241e-06 3.67427e-07 0)
(1.02836e-06 4.09747e-07 0)
(1.01816e-06 4.46843e-07 0)
(1.01159e-06 4.79627e-07 0)
(1.00822e-06 5.0907e-07 0)
(1.0076e-06 5.35852e-07 0)
(1.00932e-06 5.60563e-07 0)
(1.01303e-06 5.83649e-07 0)
(1.01836e-06 6.05533e-07 0)
(1.02898e-06 6.27746e-07 0)
(1.0157e-06 3.03222e-07 -4.65428e-21)
(9.91424e-07 3.54101e-07 0)
(9.72947e-07 3.9518e-07 0)
(9.59316e-07 4.3047e-07 0)
(9.49997e-07 4.61201e-07 0)
(9.44349e-07 4.8856e-07 0)
(9.41769e-07 5.13298e-07 0)
(9.41736e-07 5.36032e-07 0)
(9.43851e-07 5.57216e-07 0)
(9.47656e-07 5.77265e-07 0)
(9.58064e-07 5.98406e-07 0)
(9.6758e-07 2.87702e-07 -5.33446e-21)
(9.36653e-07 3.38087e-07 0)
(9.13665e-07 3.77335e-07 0)
(8.96632e-07 4.10426e-07 0)
(8.84646e-07 4.38807e-07 0)
(8.76803e-07 4.63845e-07 0)
(8.72346e-07 4.86336e-07 0)
(8.70644e-07 5.06917e-07 0)
(8.71235e-07 5.26045e-07 0)
(8.73594e-07 5.44119e-07 0)
(8.83905e-07 5.64211e-07 0)
(9.1603e-07 2.71027e-07 -6.27996e-21)
(8.78413e-07 3.19558e-07 0)
(8.51022e-07 3.56259e-07 0)
(8.30765e-07 3.86709e-07 0)
(8.16306e-07 4.12447e-07 0)
(8.06458e-07 4.34952e-07 0)
(8.00298e-07 4.55032e-07 0)
(7.97091e-07 4.73326e-07 0)
(7.96304e-07 4.90283e-07 0)
(7.9736e-07 5.06273e-07 0)
(8.07688e-07 5.25354e-07 0)
(8.61122e-07 2.53579e-07 -7.44758e-21)
(8.17157e-07 2.98777e-07 0)
(7.85682e-07 3.3215e-07 0)
(7.62517e-07 3.595e-07 0)
(7.45875e-07 3.82319e-07 0)
(7.34289e-07 4.02115e-07 0)
(7.26663e-07 4.19665e-07 0)
(7.22166e-07 4.35586e-07 0)
(7.20188e-07 4.50299e-07 0)
(7.20126e-07 4.64135e-07 0)
(7.3058e-07 4.8223e-07 0)
(8.02992e-07 2.35681e-07 -8.74293e-21)
(7.53401e-07 2.7608e-07 0)
(7.18377e-07 3.05345e-07 0)
(6.9275e-07 3.29149e-07 0)
(6.74304e-07 3.48799e-07 0)
(6.61307e-07 3.6575e-07 0)
(6.52499e-07 3.80698e-07 0)
(6.4696e-07 3.94211e-07 0)
(6.4401e-07 4.06664e-07 0)
(6.43054e-07 4.18299e-07 0)
(6.53685e-07 4.354e-07 0)
(1.26896e-06 7.22872e-07 -2.87547e-21)
(1.28368e-06 7.48386e-07 -2.85886e-21)
(1.29954e-06 7.73517e-07 -2.84244e-21)
(1.31644e-06 7.98387e-07 -2.82621e-21)
(1.33425e-06 8.23097e-07 -2.81015e-21)
(1.35288e-06 8.47729e-07 -2.79427e-21)
(1.37224e-06 8.72355e-07 -2.77856e-21)
(1.39225e-06 8.97031e-07 -2.76298e-21)
(1.41283e-06 9.21809e-07 -2.74755e-21)
(1.43392e-06 9.46729e-07 -2.73224e-21)
(1.45546e-06 9.71828e-07 -2.71705e-21)
(1.47737e-06 9.97136e-07 -2.70198e-21)
(1.49961e-06 1.02268e-06 -2.68702e-21)
(1.52213e-06 1.04847e-06 -2.67218e-21)
(1.54486e-06 1.07452e-06 -2.65744e-21)
(1.56774e-06 1.10084e-06 -2.64281e-21)
(1.59072e-06 1.12741e-06 -2.62829e-21)
(1.61374e-06 1.1542e-06 -2.61389e-21)
(1.6367e-06 1.18114e-06 -2.59959e-21)
(1.64434e-06 1.19792e-06 2.92284e-22)
(1.22456e-06 7.11564e-07 0)
(1.24053e-06 7.36537e-07 0)
(1.25742e-06 7.61181e-07 0)
(1.27514e-06 7.85624e-07 0)
(1.29361e-06 8.09964e-07 0)
(1.31278e-06 8.34278e-07 0)
(1.33255e-06 8.58635e-07 0)
(1.35288e-06 8.83089e-07 0)
(1.3737e-06 9.07686e-07 0)
(1.39496e-06 9.32466e-07 0)
(1.41661e-06 9.57462e-07 0)
(1.4386e-06 9.82703e-07 0)
(1.46088e-06 1.00821e-06 0)
(1.48342e-06 1.034e-06 0)
(1.50616e-06 1.06009e-06 0)
(1.52907e-06 1.08647e-06 0)
(1.5521e-06 1.11313e-06 0)
(1.57521e-06 1.14005e-06 0)
(1.59836e-06 1.16716e-06 0)
(1.62142e-06 1.19431e-06 3.1988e-21)
(1.17189e-06 6.96309e-07 0)
(1.18978e-06 7.21104e-07 0)
(1.20834e-06 7.45587e-07 0)
(1.22749e-06 7.69896e-07 0)
(1.24721e-06 7.94134e-07 0)
(1.26743e-06 8.18374e-07 0)
(1.28812e-06 8.42687e-07 0)
(1.30924e-06 8.67126e-07 0)
(1.33074e-06 8.91737e-07 0)
(1.3526e-06 9.16559e-07 0)
(1.37477e-06 9.41626e-07 0)
(1.39722e-06 9.66963e-07 0)
(1.41993e-06 9.92596e-07 0)
(1.44286e-06 1.01854e-06 0)
(1.46597e-06 1.04481e-06 0)
(1.48925e-06 1.0714e-06 0)
(1.51266e-06 1.09832e-06 0)
(1.53617e-06 1.12553e-06 0)
(1.55973e-06 1.15299e-06 0)
(1.5831e-06 1.18057e-06 3.22724e-21)
(1.11277e-06 6.76549e-07 0)
(1.13306e-06 7.01576e-07 0)
(1.15375e-06 7.26284e-07 0)
(1.17478e-06 7.50809e-07 0)
(1.19616e-06 7.75262e-07 0)
(1.21785e-06 7.99717e-07 0)
(1.23984e-06 8.24251e-07 0)
(1.26211e-06 8.48917e-07 0)
(1.28465e-06 8.73766e-07 0)
(1.30742e-06 8.98837e-07 0)
(1.33043e-06 9.24165e-07 0)
(1.35365e-06 9.4978e-07 0)
(1.37706e-06 9.75705e-07 0)
(1.40064e-06 1.00196e-06 0)
(1.42439e-06 1.02857e-06 0)
(1.44828e-06 1.05553e-06 0)
(1.47228e-06 1.08285e-06 0)
(1.49638e-06 1.11053e-06 0)
(1.52053e-06 1.13855e-06 0)
(1.54439e-06 1.16679e-06 3.28248e-21)
(1.04826e-06 6.5225e-07 0)
(1.07132e-06 6.77897e-07 0)
(1.09452e-06 7.03198e-07 0)
(1.11779e-06 7.28274e-07 0)
(1.14118e-06 7.53253e-07 0)
(1.16467e-06 7.78209e-07 0)
(1.18828e-06 8.03226e-07 0)
(1.21201e-06 8.28362e-07 0)
(1.23587e-06 8.53672e-07 0)
(1.25984e-06 8.792e-07 0)
(1.28394e-06 9.04983e-07 0)
(1.30816e-06 9.31056e-07 0)
(1.33251e-06 9.57448e-07 0)
(1.35697e-06 9.84182e-07 0)
(1.38154e-06 1.01128e-06 0)
(1.40622e-06 1.03877e-06 0)
(1.43099e-06 1.06665e-06 0)
(1.45584e-06 1.09496e-06 0)
(1.48072e-06 1.12369e-06 0)
(1.50524e-06 1.15279e-06 3.36384e-21)
(9.79545e-07 6.23285e-07 0)
(1.00568e-06 6.4995e-07 0)
(1.03167e-06 6.76224e-07 0)
(1.05745e-06 7.02197e-07 0)
(1.08312e-06 7.28024e-07 0)
(1.10866e-06 7.53776e-07 0)
(1.13414e-06 7.79549e-07 0)
(1.15956e-06 8.05406e-07 0)
(1.18495e-06 8.3141e-07 0)
(1.21033e-06 8.5761e-07 0)
(1.23573e-06 8.84051e-07 0)
(1.26114e-06 9.10769e-07 0)
(1.28659e-06 9.37801e-07 0)
(1.31209e-06 9.65177e-07 0)
(1.33764e-06 9.92928e-07 0)
(1.36325e-06 1.02108e-06 0)
(1.38892e-06 1.04968e-06 0)
(1.41463e-06 1.07875e-06 0)
(1.44037e-06 1.10833e-06 0)
(1.46569e-06 1.1384e-06 3.47e-21)
(9.07744e-07 5.89757e-07 0)
(9.37137e-07 6.17823e-07 0)
(9.66111e-07 6.45436e-07 0)
(9.94593e-07 6.72641e-07 0)
(1.02273e-06 6.99625e-07 0)
(1.05051e-06 7.2646e-07 0)
(1.07804e-06 7.53254e-07 0)
(1.10532e-06 7.80079e-07 0)
(1.13243e-06 8.07006e-07 0)
(1.15938e-06 8.34091e-07 0)
(1.18621e-06 8.61387e-07 0)
(1.21296e-06 8.88938e-07 0)
(1.23965e-06 9.16783e-07 0)
(1.26631e-06 9.44964e-07 0)
(1.29295e-06 9.73516e-07 0)
(1.3196e-06 1.00248e-06 0)
(1.34625e-06 1.03191e-06 0)
(1.37292e-06 1.06186e-06 0)
(1.3996e-06 1.09239e-06 0)
(1.42585e-06 1.1235e-06 3.59935e-21)
(8.33955e-07 5.51854e-07 0)
(8.66685e-07 5.81677e-07 0)
(8.98747e-07 6.10969e-07 0)
(9.30042e-07 6.39726e-07 0)
(9.6076e-07 6.68164e-07 0)
(9.90916e-07 6.96361e-07 0)
(1.02061e-06 7.24435e-07 0)
(1.04989e-06 7.52469e-07 0)
(1.07882e-06 7.80543e-07 0)
(1.10746e-06 8.08723e-07 0)
(1.13585e-06 8.37069e-07 0)
(1.16403e-06 8.65631e-07 0)
(1.19206e-06 8.9446e-07 0)
(1.21995e-06 9.23599e-07 0)
(1.24776e-06 9.53096e-07 0)
(1.27551e-06 9.83003e-07 0)
(1.30322e-06 1.01338e-06 0)
(1.33091e-06 1.0443e-06 0)
(1.3586e-06 1.07584e-06 0)
(1.38589e-06 1.10805e-06 3.74984e-21)
(7.59263e-07 5.09932e-07 0)
(7.95297e-07 5.41829e-07 0)
(8.30458e-07 5.73091e-07 0)
(8.64602e-07 6.03688e-07 0)
(8.97952e-07 6.33838e-07 0)
(9.30536e-07 6.63644e-07 0)
(9.62467e-07 6.93231e-07 0)
(9.93811e-07 7.22696e-07 0)
(1.02465e-06 7.52128e-07 0)
(1.05504e-06 7.81602e-07 0)
(1.08504e-06 8.11185e-07 0)
(1.11473e-06 8.40936e-07 0)
(1.14415e-06 8.7091e-07 0)
(1.17335e-06 9.01159e-07 0)
(1.20237e-06 9.31737e-07 0)
(1.23127e-06 9.62702e-07 0)
(1.26007e-06 9.94121e-07 0)
(1.28882e-06 1.02609e-06 0)
(1.31755e-06 1.05869e-06 0)
(1.34597e-06 1.092e-06 3.9193e-21)
(6.84642e-07 4.64495e-07 0)
(7.23809e-07 4.98697e-07 0)
(7.61951e-07 5.32136e-07 0)
(7.98916e-07 5.64825e-07 0)
(8.34894e-07 5.96926e-07 0)
(8.69932e-07 6.28571e-07 0)
(9.04137e-07 6.59886e-07 0)
(9.37585e-07 6.90983e-07 0)
(9.70364e-07 7.21961e-07 0)
(1.00255e-06 7.52907e-07 0)
(1.03422e-06 7.83895e-07 0)
(1.06544e-06 8.14994e-07 0)
(1.09628e-06 8.46262e-07 0)
(1.12681e-06 8.77758e-07 0)
(1.15707e-06 9.0954e-07 0)
(1.18713e-06 9.4167e-07 0)
(1.21704e-06 9.7422e-07 0)
(1.24686e-06 1.00729e-06 0)
(1.27665e-06 1.04097e-06 0)
(1.30626e-06 1.07539e-06 4.10518e-21)
(6.18403e-07 4.23155e-07 0)
(6.59905e-07 4.5934e-07 0)
(7.00273e-07 4.94554e-07 0)
(7.39423e-07 5.29013e-07 0)
(7.77474e-07 5.62811e-07 0)
(8.1448e-07 5.96084e-07 0)
(8.50529e-07 6.2895e-07 0)
(8.857e-07 6.61523e-07 0)
(9.20078e-07 6.93904e-07 0)
(9.53745e-07 7.26184e-07 0)
(9.86782e-07 7.58442e-07 0)
(1.01926e-06 7.90746e-07 0)
(1.05127e-06 8.2316e-07 0)
(1.08287e-06 8.55742e-07 0)
(1.11413e-06 8.88551e-07 0)
(1.14511e-06 9.21649e-07 0)
(1.1759e-06 9.55105e-07 0)
(1.20656e-06 9.89012e-07 0)
(1.23718e-06 1.02346e-06 0)
(1.26776e-06 1.05863e-06 4.26076e-21)
(1.26896e-06 7.22872e-07 -2.87547e-21)
(1.28368e-06 7.48386e-07 -2.85886e-21)
(1.29954e-06 7.73517e-07 -2.84244e-21)
(1.31644e-06 7.98387e-07 -2.82621e-21)
(1.33425e-06 8.23097e-07 -2.81015e-21)
(1.35288e-06 8.47729e-07 -2.79427e-21)
(1.37224e-06 8.72355e-07 -2.77856e-21)
(1.39225e-06 8.97031e-07 -2.76298e-21)
(1.41283e-06 9.21809e-07 -2.74755e-21)
(1.43392e-06 9.46729e-07 -2.73224e-21)
(1.45546e-06 9.71828e-07 -2.71705e-21)
(1.47737e-06 9.97136e-07 -2.70198e-21)
(1.49961e-06 1.02268e-06 -2.68702e-21)
(1.52213e-06 1.04847e-06 -2.67218e-21)
(1.54486e-06 1.07452e-06 -2.65744e-21)
(1.56774e-06 1.10084e-06 -2.64281e-21)
(1.59072e-06 1.12741e-06 -2.62829e-21)
(1.61374e-06 1.1542e-06 -2.61389e-21)
(1.6367e-06 1.18114e-06 -2.59959e-21)
(1.64434e-06 1.19792e-06 2.92284e-22)
(1.22456e-06 7.11564e-07 0)
(1.24053e-06 7.36537e-07 0)
(1.25742e-06 7.61181e-07 0)
(1.27514e-06 7.85624e-07 0)
(1.29361e-06 8.09964e-07 0)
(1.31278e-06 8.34278e-07 0)
(1.33255e-06 8.58635e-07 0)
(1.35288e-06 8.83089e-07 0)
(1.3737e-06 9.07686e-07 0)
(1.39496e-06 9.32466e-07 0)
(1.41661e-06 9.57462e-07 0)
(1.4386e-06 9.82703e-07 0)
(1.46088e-06 1.00821e-06 0)
(1.48342e-06 1.034e-06 0)
(1.50616e-06 1.06009e-06 0)
(1.52907e-06 1.08647e-06 0)
(1.5521e-06 1.11313e-06 0)
(1.57521e-06 1.14005e-06 0)
(1.59836e-06 1.16716e-06 0)
(1.62142e-06 1.19431e-06 3.1988e-21)
(1.17189e-06 6.96309e-07 0)
(1.18978e-06 7.21104e-07 0)
(1.20834e-06 7.45587e-07 0)
(1.22749e-06 7.69896e-07 0)
(1.24721e-06 7.94134e-07 0)
(1.26743e-06 8.18374e-07 0)
(1.28812e-06 8.42687e-07 0)
(1.30924e-06 8.67126e-07 0)
(1.33074e-06 8.91737e-07 0)
(1.3526e-06 9.16559e-07 0)
(1.37477e-06 9.41626e-07 0)
(1.39722e-06 9.66963e-07 0)
(1.41993e-06 9.92596e-07 0)
(1.44286e-06 1.01854e-06 0)
(1.46597e-06 1.04481e-06 0)
(1.48925e-06 1.0714e-06 0)
(1.51266e-06 1.09832e-06 0)
(1.53617e-06 1.12553e-06 0)
(1.55973e-06 1.15299e-06 0)
(1.5831e-06 1.18057e-06 3.22724e-21)
(1.11277e-06 6.76549e-07 0)
(1.13306e-06 7.01576e-07 0)
(1.15375e-06 7.26284e-07 0)
(1.17478e-06 7.50809e-07 0)
(1.19616e-06 7.75262e-07 0)
(1.21785e-06 7.99717e-07 0)
(1.23984e-06 8.24251e-07 0)
(1.26211e-06 8.48917e-07 0)
(1.28465e-06 8.73766e-07 0)
(1.30742e-06 8.98837e-07 0)
(1.33043e-06 9.24165e-07 0)
(1.35365e-06 9.4978e-07 0)
(1.37706e-06 9.75705e-07 0)
(1.40064e-06 1.00196e-06 0)
(1.42439e-06 1.02857e-06 0)
(1.44828e-06 1.05553e-06 0)
(1.47228e-06 1.08285e-06 0)
(1.49638e-06 1.11053e-06 0)
(1.52053e-06 1.13855e-06 0)
(1.54439e-06 1.16679e-06 3.28248e-21)
(1.04826e-06 6.5225e-07 0)
(1.07132e-06 6.77897e-07 0)
(1.09452e-06 7.03198e-07 0)
(1.11779e-06 7.28274e-07 0)
(1.14118e-06 7.53253e-07 0)
(1.16467e-06 7.78209e-07 0)
(1.18828e-06 8.03226e-07 0)
(1.21201e-06 8.28362e-07 0)
(1.23587e-06 8.53672e-07 0)
(1.25984e-06 8.792e-07 0)
(1.28394e-06 9.04983e-07 0)
(1.30816e-06 9.31056e-07 0)
(1.33251e-06 9.57448e-07 0)
(1.35697e-06 9.84182e-07 0)
(1.38154e-06 1.01128e-06 0)
(1.40622e-06 1.03877e-06 0)
(1.43099e-06 1.06665e-06 0)
(1.45584e-06 1.09496e-06 0)
(1.48072e-06 1.12369e-06 0)
(1.50524e-06 1.15279e-06 3.36384e-21)
(9.79545e-07 6.23285e-07 0)
(1.00568e-06 6.4995e-07 0)
(1.03167e-06 6.76224e-07 0)
(1.05745e-06 7.02197e-07 0)
(1.08312e-06 7.28024e-07 0)
(1.10866e-06 7.53776e-07 0)
(1.13414e-06 7.79549e-07 0)
(1.15956e-06 8.05406e-07 0)
(1.18495e-06 8.3141e-07 0)
(1.21033e-06 8.5761e-07 0)
(1.23573e-06 8.84051e-07 0)
(1.26114e-06 9.10769e-07 0)
(1.28659e-06 9.37801e-07 0)
(1.31209e-06 9.65177e-07 0)
(1.33764e-06 9.92928e-07 0)
(1.36325e-06 1.02108e-06 0)
(1.38892e-06 1.04968e-06 0)
(1.41463e-06 1.07875e-06 0)
(1.44037e-06 1.10833e-06 0)
(1.46569e-06 1.1384e-06 3.47e-21)
(9.07744e-07 5.89757e-07 0)
(9.37137e-07 6.17823e-07 0)
(9.66111e-07 6.45436e-07 0)
(9.94593e-07 6.72641e-07 0)
(1.02273e-06 6.99625e-07 0)
(1.05051e-06 7.2646e-07 0)
(1.07804e-06 7.53254e-07 0)
(1.10532e-06 7.80079e-07 0)
(1.13243e-06 8.07006e-07 0)
(1.15938e-06 8.34091e-07 0)
(1.18621e-06 8.61387e-07 0)
(1.21296e-06 8.88938e-07 0)
(1.23965e-06 9.16783e-07 0)
(1.26631e-06 9.44964e-07 0)
(1.29295e-06 9.73516e-07 0)
(1.3196e-06 1.00248e-06 0)
(1.34625e-06 1.03191e-06 0)
(1.37292e-06 1.06186e-06 0)
(1.3996e-06 1.09239e-06 0)
(1.42585e-06 1.1235e-06 3.59935e-21)
(8.33955e-07 5.51854e-07 0)
(8.66685e-07 5.81677e-07 0)
(8.98747e-07 6.10969e-07 0)
(9.30042e-07 6.39726e-07 0)
(9.6076e-07 6.68164e-07 0)
(9.90916e-07 6.96361e-07 0)
(1.02061e-06 7.24435e-07 0)
(1.04989e-06 7.52469e-07 0)
(1.07882e-06 7.80543e-07 0)
(1.10746e-06 8.08723e-07 0)
(1.13585e-06 8.37069e-07 0)
(1.16403e-06 8.65631e-07 0)
(1.19206e-06 8.9446e-07 0)
(1.21995e-06 9.23599e-07 0)
(1.24776e-06 9.53096e-07 0)
(1.27551e-06 9.83003e-07 0)
(1.30322e-06 1.01338e-06 0)
(1.33091e-06 1.0443e-06 0)
(1.3586e-06 1.07584e-06 0)
(1.38589e-06 1.10805e-06 3.74984e-21)
(7.59263e-07 5.09932e-07 0)
(7.95297e-07 5.41829e-07 0)
(8.30458e-07 5.73091e-07 0)
(8.64602e-07 6.03688e-07 0)
(8.97952e-07 6.33838e-07 0)
(9.30536e-07 6.63644e-07 0)
(9.62467e-07 6.93231e-07 0)
(9.93811e-07 7.22696e-07 0)
(1.02465e-06 7.52128e-07 0)
(1.05504e-06 7.81602e-07 0)
(1.08504e-06 8.11185e-07 0)
(1.11473e-06 8.40936e-07 0)
(1.14415e-06 8.7091e-07 0)
(1.17335e-06 9.01159e-07 0)
(1.20237e-06 9.31737e-07 0)
(1.23127e-06 9.62702e-07 0)
(1.26007e-06 9.94121e-07 0)
(1.28882e-06 1.02609e-06 0)
(1.31755e-06 1.05869e-06 0)
(1.34597e-06 1.092e-06 3.9193e-21)
(6.84642e-07 4.64495e-07 0)
(7.23809e-07 4.98697e-07 0)
(7.61951e-07 5.32136e-07 0)
(7.98916e-07 5.64825e-07 0)
(8.34894e-07 5.96926e-07 0)
(8.69932e-07 6.28571e-07 0)
(9.04137e-07 6.59886e-07 0)
(9.37585e-07 6.90983e-07 0)
(9.70364e-07 7.21961e-07 0)
(1.00255e-06 7.52907e-07 0)
(1.03422e-06 7.83895e-07 0)
(1.06544e-06 8.14994e-07 0)
(1.09628e-06 8.46262e-07 0)
(1.12681e-06 8.77758e-07 0)
(1.15707e-06 9.0954e-07 0)
(1.18713e-06 9.4167e-07 0)
(1.21704e-06 9.7422e-07 0)
(1.24686e-06 1.00729e-06 0)
(1.27665e-06 1.04097e-06 0)
(1.30626e-06 1.07539e-06 4.10518e-21)
(6.18403e-07 4.23155e-07 0)
(6.59905e-07 4.5934e-07 0)
(7.00273e-07 4.94554e-07 0)
(7.39423e-07 5.29013e-07 0)
(7.77474e-07 5.62811e-07 0)
(8.1448e-07 5.96084e-07 0)
(8.50529e-07 6.2895e-07 0)
(8.857e-07 6.61523e-07 0)
(9.20078e-07 6.93904e-07 0)
(9.53745e-07 7.26184e-07 0)
(9.86782e-07 7.58442e-07 0)
(1.01926e-06 7.90746e-07 0)
(1.05127e-06 8.2316e-07 0)
(1.08287e-06 8.55742e-07 0)
(1.11413e-06 8.88551e-07 0)
(1.14511e-06 9.21649e-07 0)
(1.1759e-06 9.55105e-07 0)
(1.20656e-06 9.89012e-07 0)
(1.23718e-06 1.02346e-06 0)
(1.26776e-06 1.05863e-06 4.26076e-21)
(5.2025e-07 3.54133e-07 0)
(5.70199e-07 3.94792e-07 0)
(6.12503e-07 4.31813e-07 0)
(6.53659e-07 4.67827e-07 0)
(6.93652e-07 5.03151e-07 0)
(7.32551e-07 5.37845e-07 0)
(7.704e-07 5.72025e-07 0)
(8.0727e-07 6.0579e-07 0)
(8.43229e-07 6.39239e-07 0)
(8.78354e-07 6.7246e-07 0)
(9.1272e-07 7.05536e-07 0)
(9.46404e-07 7.38538e-07 0)
(9.79482e-07 7.7153e-07 0)
(1.01203e-06 8.04571e-07 0)
(1.04412e-06 8.37715e-07 0)
(1.07582e-06 8.71015e-07 0)
(1.10721e-06 9.04527e-07 0)
(1.13837e-06 9.38311e-07 0)
(1.16938e-06 9.72445e-07 0)
(1.20034e-06 1.00701e-06 0)
(1.23133e-06 1.04217e-06 4.32839e-21)
(4.84944e-07 3.33372e-07 0)
(5.33248e-07 3.73508e-07 0)
(5.75256e-07 4.10598e-07 0)
(6.16263e-07 4.46871e-07 0)
(6.56221e-07 4.82567e-07 0)
(6.95173e-07 5.17715e-07 0)
(7.33138e-07 5.52397e-07 0)
(7.70169e-07 5.86691e-07 0)
(8.06315e-07 6.20671e-07 0)
(8.41641e-07 6.54411e-07 0)
(8.76209e-07 6.87976e-07 0)
(9.10089e-07 7.21429e-07 0)
(9.4335e-07 7.54824e-07 0)
(9.76062e-07 7.88211e-07 0)
(1.0083e-06 8.21635e-07 0)
(1.04013e-06 8.55142e-07 0)
(1.07163e-06 8.88777e-07 0)
(1.10288e-06 9.22588e-07 0)
(1.13397e-06 9.56634e-07 0)
(1.16502e-06 9.90969e-07 0)
(1.1961e-06 1.02571e-06 4.34353e-21)
(4.53608e-07 3.13379e-07 0)
(5.00125e-07 3.52965e-07 0)
(5.41396e-07 3.89967e-07 0)
(5.81883e-07 4.26353e-07 0)
(6.21461e-07 4.62299e-07 0)
(6.6016e-07 4.978e-07 0)
(6.97964e-07 5.32904e-07 0)
(7.34908e-07 5.6766e-07 0)
(7.71022e-07 6.02121e-07 0)
(8.06355e-07 6.36341e-07 0)
(8.40958e-07 6.70369e-07 0)
(8.7489e-07 7.04254e-07 0)
(9.08212e-07 7.38039e-07 0)
(9.40989e-07 7.71763e-07 0)
(9.73286e-07 8.05463e-07 0)
(1.00518e-06 8.39172e-07 0)
(1.03673e-06 8.72923e-07 0)
(1.06804e-06 9.0675e-07 0)
(1.09917e-06 9.40691e-07 0)
(1.13027e-06 9.74772e-07 0)
(1.16142e-06 1.00906e-06 4.35364e-21)
(4.25666e-07 2.94315e-07 0)
(4.70288e-07 3.3322e-07 0)
(5.10565e-07 3.69993e-07 0)
(5.50256e-07 4.0637e-07 0)
(5.89192e-07 4.42463e-07 0)
(6.27387e-07 4.78226e-07 0)
(6.64797e-07 5.13673e-07 0)
(7.01441e-07 5.48826e-07 0)
(7.3733e-07 5.83714e-07 0)
(7.72498e-07 6.18369e-07 0)
(8.06984e-07 6.52824e-07 0)
(8.40835e-07 6.87113e-07 0)
(8.74103e-07 7.21266e-07 0)
(9.06847e-07 7.5531e-07 0)
(9.39126e-07 7.89271e-07 0)
(9.71008e-07 8.2317e-07 0)
(1.00256e-06 8.57027e-07 0)
(1.03387e-06 8.9086e-07 0)
(1.06502e-06 9.24679e-07 0)
(1.09615e-06 9.58487e-07 0)
(1.12732e-06 9.92298e-07 4.35833e-21)
(4.00635e-07 2.76237e-07 0)
(4.4332e-07 3.14393e-07 0)
(4.8241e-07 3.50828e-07 0)
(5.21098e-07 3.87086e-07 0)
(5.59186e-07 4.23219e-07 0)
(5.96675e-07 4.59147e-07 0)
(6.33501e-07 4.94852e-07 0)
(6.69664e-07 5.30327e-07 0)
(7.05162e-07 5.65576e-07 0)
(7.40014e-07 6.00611e-07 0)
(7.74246e-07 6.35448e-07 0)
(8.07897e-07 6.70102e-07 0)
(8.41008e-07 7.04591e-07 0)
(8.7363e-07 7.3893e-07 0)
(9.05817e-07 7.73132e-07 0)
(9.37629e-07 8.07205e-07 0)
(9.69134e-07 8.41155e-07 0)
(1.0004e-06 8.74981e-07 0)
(1.03153e-06 9.08666e-07 0)
(1.06264e-06 9.422e-07 0)
(1.09379e-06 9.75547e-07 4.35722e-21)
(3.78015e-07 2.59149e-07 0)
(4.18776e-07 2.96499e-07 0)
(4.56559e-07 3.32508e-07 0)
(4.941e-07 3.68558e-07 0)
(5.31189e-07 4.04642e-07 0)
(5.67817e-07 4.40649e-07 0)
(6.03903e-07 4.76533e-07 0)
(6.39438e-07 5.12257e-07 0)
(6.74405e-07 5.47803e-07 0)
(7.08812e-07 5.83161e-07 0)
(7.42674e-07 6.18327e-07 0)
(7.76019e-07 6.53303e-07 0)
(8.08881e-07 6.88091e-07 0)
(8.41302e-07 7.22694e-07 0)