/*--------------------------------*- C++ -*----------------------------------*\
  =========                 |
  \\      /  F ield         | OpenFOAM: The Open Source CFD Toolbox
   \\    /   O peration     | Website:  https://openfoam.org
    \\  /    A nd           | Version:  9
     \\/     M anipulation  |
\*---------------------------------------------------------------------------*/
FoamFile
{
    format      ascii;
    class       volSymmTensorField;
    location    "1";
    object      sigma;
}
// * * * * * * * * * * * * * * * * * * * * * * * * * * * * * * * * * * * * * //

dimensions      [1 -1 -2 0 0 0 0];

internalField   nonuniform List<symmTensor> 
1000
(
(122959 -84166 -7.49053e-11 71452.2 -7.70069e-11 19307.8)
(144211 -64900.7 -6.68213e-11 39030.5 -6.33313e-11 19033.7)
(154913 -49714.5 -5.91001e-11 23744.6 -5.2785e-11 19018.8)
(159453 -38259.4 -5.34807e-11 11741.4 -4.48333e-11 18632)
(161125 -29047.1 -4.86317e-11 4723.28 -3.84999e-11 18331.5)
(160465 -21844.7 -4.48747e-11 -510.931 -3.35604e-11 17926.9)
(158857 -15991.2 -4.17266e-11 -3881.58 -2.95684e-11 17562.3)
(156368 -11337.1 -3.92322e-11 -6318.3 -2.6404e-11 17174.6)
(153800 -7468.71 -3.71113e-11 -7919.68 -2.3784e-11 16836.7)
(150397 -4250.18 -3.54264e-11 -9455.43 -2.16048e-11 16418.4)
(155897 -93569.5 -7.95596e-11 72078.2 -8.32098e-11 22445.5)
(169921 -66989.6 -6.68625e-11 41148.9 -6.46824e-11 21649)
(175675 -47807.2 -5.65729e-11 27230.4 -5.15003e-11 21294.6)
(176240 -34019 -4.95229e-11 15845 -4.20099e-11 20591.5)
(174841 -23507.5 -4.38783e-11 9369.26 -3.48269e-11 20047.7)
(171662 -15644.1 -3.97623e-11 4352.89 -2.94577e-11 19422.8)
(167999 -9504.82 -3.64859e-11 1133.83 -2.52845e-11 18874.6)
(163809 -4837.92 -3.40629e-11 -1408.6 -2.21155e-11 18315.6)
(159657 -1056.11 -3.20485e-11 -2954.44 -1.95607e-11 17828.9)
(155068 1971.05 -3.06156e-11 -5049.98 -1.75027e-11 17252.5)
(191371 -99505.8 -8.24176e-11 69410.5 -8.70086e-11 25603.7)
(196119 -66906.2 -6.56485e-11 42311.7 -6.45539e-11 24255.6)
(195804 -44498.2 -5.31291e-11 31033 -4.92838e-11 23544.9)
(191704 -28881.5 -4.48796e-11 21017.9 -3.86114e-11 22512.6)
(186826 -17450.5 -3.86276e-11 15534.7 -3.08445e-11 21717.4)
(180884 -9212.28 -3.43024e-11 11005.2 -2.52439e-11 20867.1)
(175050 -3025.13 -3.10262e-11 8112.67 -2.10532e-11 20135.5)
(169080 1493.7 -2.87606e-11 5596.42 -1.79907e-11 19406.2)
(163479 5005.29 -2.69623e-11 4114.39 -1.56239e-11 18783.1)
(157649 7861 -2.57368e-11 1683.04 -1.36789e-11 18060.4)
(228241 -101127 -8.29022e-11 63968.6 -8.78493e-11 28719)
(222218 -64385.3 -6.3014e-11 42647.2 -6.27728e-11 26809.2)
(214989 -39839.6 -4.88191e-11 35108.3 -4.61702e-11 25736.1)
(205664 -23097.2 -3.97387e-11 27112.3 -3.4803e-11 24364.5)
(196970 -11248.9 -3.31575e-11 22982.2 -2.6798e-11 23309.1)
(188094 -2988.11 -2.88249e-11 19120.1 -2.1207e-11 22227.8)
(180010 2983.49 -2.57134e-11 16602.1 -1.71769e-11 21306.9)
(172298 7187.46 -2.37044e-11 14141.9 -1.43332e-11 20411.9)
(165301 10285.9 -2.22282e-11 12619.2 -1.2248e-11 19648.3)
(158446 12809.6 -2.12796e-11 10008 -1.05259e-11 18810.8)
(264850 -97674.8 -8.04906e-11 56418.9 -8.52419e-11 31689.3)
(247449 -59079.4 -5.87403e-11 42324.5 -5.91122e-11 29251.4)
(232782 -33758.4 -4.36167e-11 39439.3 -4.21124e-11 27824.3)
(217864 -16791.4 -3.42104e-11 34007.7 -3.06681e-11 26112.5)
(205145 -5179.1 -2.76762e-11 31529.4 -2.287e-11 24794.2)
(193263 2643.52 -2.36116e-11 28470.1 -1.76005e-11 23481.8)
(182959 8066.13 -2.08723e-11 26351.1 -1.39556e-11 22373.5)
(173587 11726.6 -1.92637e-11 23937.8 -1.14835e-11 21318.3)
(165341 14246.9 -1.82238e-11 22274.6 -9.78806e-12 20419.3)
(157593 16301.8 -1.7635e-11 19484 -8.38002e-12 19478.6)
(300384 -88958.4 -7.49109e-11 47945.6 -7.90867e-11 34527.8)
(271453 -50763.8 -5.26084e-11 41929.2 -5.34347e-11 31594.3)
(249066 -26168.4 -3.74179e-11 44376.7 -3.70599e-11 29825.9)
(228280 -10086.3 -2.83553e-11 41803.9 -2.62897e-11 27760.9)
(211416 493.687 -2.23647e-11 41080.8 -1.9236e-11 26169.8)
(196547 7329.65 -1.89222e-11 38794.5 -1.46558e-11 24621.3)
(184120 11839.8 -1.67962e-11 36978.4 -1.16372e-11 23324.9)
(173237 14725.8 -1.57434e-11 34526 -9.6897e-12 22115.3)
(163906 16533 -1.52387e-11 32596.6 -8.4714e-12 21086.1)
(155427 18009.7 -1.50763e-11 29604.7 -7.44993e-12 20055.2)
(332616 -74421.6 -6.57486e-11 39481 -6.90373e-11 37096.2)
(293086 -38820 -4.41687e-11 42102.5 -4.53423e-11 33781.6)
(262799 -16846.3 -3.00478e-11 50381.2 -3.08763e-11 31677.4)
(236138 -3055.73 -2.22287e-11 50648.7 -2.17242e-11 29245.9)
(215311 5505.1 -1.74354e-11 51465.7 -1.6072e-11 27375.2)
(197745 10713.4 -1.50518e-11 49689.4 -1.26045e-11 25593.5)
(183513 13933.1 -1.38071e-11 47922.9 -1.04595e-11 24117)
(171410 15832.5 -1.34615e-11 45250.3 -9.1742e-12 22765.5)
(161253 16844.7 -1.35594e-11 42897.2 -8.48396e-12 21618.4)
(152236 17687.1 -1.38604e-11 39645.9 -7.88498e-12 20510.9)
(363715 -54017.1 -5.25004e-11 33585.2 -5.51069e-11 39798.2)
(312579 -22642.1 -3.26678e-11 45183.9 -3.4476e-11 36018.5)
(273978 -5658.19 -2.11454e-11 59260.5 -2.35088e-11 33517.3)
(241628 3898.91 -1.59374e-11 61462.8 -1.72589e-11 30652.8)
(217207 9318.58 -1.31808e-11 62911.6 -1.37411e-11 28459.8)
(197435 12303.4 -1.23261e-11 60932.5 -1.17698e-11 26432.9)
(181831 13986.9 -1.2185e-11 58680.3 -1.06508e-11 24775.4)
(168881 14835.7 -1.26238e-11 55466.4 -1.00628e-11 23293)
(158196 15111.1 -1.33049e-11 52492.1 -9.85607e-12 22041.8)
(148855 15378.4 -1.40349e-11 48911.1 -9.63738e-12 20873.6)
(389647 -25213.4 -3.32221e-11 33408.1 -3.56758e-11 42506.5)
(325767 -2186.82 -1.76078e-11 55260.7 -2.09061e-11 38216.8)
(278533 5889.57 -1.14985e-11 73118.1 -1.60267e-11 35102.9)
(241793 8908.98 -1.07085e-11 74719.1 -1.41683e-11 31718.6)
(215466 10420.4 -1.07269e-11 74758.5 -1.32516e-11 29203.9)
(194806 10937.1 -1.16935e-11 71364.4 -1.29111e-11 26964.2)
(178798 11191 -1.26627e-11 67906.5 -1.27284e-11 25164.6)
(165643 11188.6 -1.37852e-11 63815.1 -1.26944e-11 23588.7)
(154845 10993.2 -1.48843e-11 60100.4 -1.27888e-11 22266.6)
(145427 10893.8 -1.59018e-11 56180.3 -1.28095e-11 21062.2)
(423526 22706.8 2.35999e-12 58247.9 -3.90013e-12 48036.9)
(331739 25400.3 4.99932e-12 86701.3 -3.01561e-12 41406.1)
(278008 16777.8 -1.07361e-12 96018.2 -9.19199e-12 36884.1)
(240156 10891.9 -6.91798e-12 91591.6 -1.31904e-11 32862.5)
(213735 8596.14 -1.01734e-11 86353.7 -1.47209e-11 29906.4)
(193185 7315.35 -1.27362e-11 79986.9 -1.55252e-11 27436.4)
(177287 6855.24 -1.44711e-11 74473.6 -1.5779e-11 25485.1)
(164199 6586.63 -1.59267e-11 69300.3 -1.59012e-11 23831.1)
(153416 6374.95 -1.71453e-11 64871.9 -1.59919e-11 22455.9)
(143962 6230.62 -1.82243e-11 60746.1 -1.60385e-11 21232)
(-565.091 197.946 -3.6853e-11 -319.578 -1.93629e-11 2643.73)
(448.367 -705.177 -3.7331e-11 61.4806 -1.9973e-11 2762.93)
(4527.11 -2217.02 -3.81845e-11 -226.663 -2.09669e-11 3120.85)
(11055.2 -3426.84 -3.87464e-11 -465.004 -2.17499e-11 3720.34)
(18640.1 -4172.54 -3.89561e-11 -589.033 -2.22201e-11 4433.76)
(26599.4 -4596.84 -3.89368e-11 -649.189 -2.24742e-11 5190.63)
(34396.5 -4762.82 -3.8752e-11 -659.489 -2.25568e-11 5937.74)
(41846.4 -4775.51 -3.84764e-11 -632.092 -2.25383e-11 6655.61)
(48675.8 -4648.56 -3.81372e-11 -618.394 -2.24282e-11 7313.93)
(55042.5 -4550.33 -3.78201e-11 -512.47 -2.23412e-11 7934.54)
(742.601 -758.097 -3.73706e-11 -48.7966 -2.00052e-11 2782.42)
(6005.61 -4103.72 -3.89073e-11 2530.16 -2.22845e-11 3457.89)
(13643.8 -7797.33 -4.09545e-11 2640.01 -2.47375e-11 4170.74)
(21748.2 -10619.4 -4.257e-11 1841.95 -2.65855e-11 4866.18)
(29894.3 -12354.8 -4.34863e-11 1074.84 -2.77044e-11 5576.66)
(37636.6 -13327.3 -4.39216e-11 380.95 -2.83143e-11 6260)
(44815.9 -13677.5 -4.39577e-11 -151.959 -2.8512e-11 6906.47)
(51459.7 -13653.7 -4.37515e-11 -533.23 -2.84638e-11 7516.01)
(57317.7 -13276.3 -4.33419e-11 -860.77 -2.81821e-11 8056.98)
(62874.6 -12975.3 -4.29475e-11 -890.875 -2.79592e-11 8591.06)
(2299.58 -3729.4 -3.88076e-11 2532.44 -2.2047e-11 3104.93)
(11510.7 -10245 -4.21614e-11 5451.52 -2.64461e-11 4160.43)
(22057.6 -14818.9 -4.47382e-11 5052.15 -2.94689e-11 5106.95)
(31744.2 -17882.3 -4.66255e-11 3095.19 -3.14491e-11 5864.19)
(40656.2 -19570 -4.76435e-11 1283.08 -3.25116e-11 6569.06)
(48504.3 -20363.8 -4.80968e-11 -293.615 -3.29832e-11 7196.72)
(55395.9 -20460.7 -4.80836e-11 -1489.94 -3.29983e-11 7767.04)
(61536.5 -20134.5 -4.77782e-11 -2353.31 -3.27389e-11 8293.94)
(66671.3 -19422.6 -4.72329e-11 -3004.35 -3.2229e-11 8743.41)
(71642.6 -18824.6 -4.66941e-11 -3192.94 -3.18051e-11 9211.51)
(5518.77 -8386.4 -4.07412e-11 8460.86 -2.52826e-11 3828.74)
(18956.3 -17605.3 -4.59866e-11 9230.1 -3.14363e-11 5105.02)
(31903.5 -22412.5 -4.88018e-11 7662.8 -3.45828e-11 6191.3)
(42956.3 -25106.7 -5.05905e-11 4483.98 -3.62851e-11 6989.73)
(52513.8 -26222.6 -5.13705e-11 1689.83 -3.69413e-11 7686.35)
(60470.7 -26430 -5.15762e-11 -730.795 -3.70015e-11 8264.87)
(67114.8 -25980.7 -5.13262e-11 -2590.91 -3.66373e-11 8765.19)
(72812.9 -25148.2 -5.07944e-11 -3966.8 -3.60294e-11 9214.54)
(77272.9 -23990.5 -5.00492e-11 -5006.07 -3.52144e-11 9573.18)
(81716 -23012 -4.93238e-11 -5422.59 -3.45326e-11 9976.18)
(11011.7 -14964.3 -4.33904e-11 17138.6 -2.98558e-11 4965.18)
(28945.1 -25616 -5.00738e-11 13386.2 -3.68618e-11 6317.54)
(43891.5 -29934.3 -5.28278e-11 9696.64 -3.9629e-11 7438.2)
(55886.3 -31728.8 -5.42473e-11 4961.36 -4.06919e-11 8215.71)
(65711.5 -31846.8 -5.45402e-11 1139.56 -4.06563e-11 8867.68)
(73507.7 -31143.8 -5.42925e-11 -2065.32 -4.00899e-11 9378.33)
(79725.7 -29914.5 -5.36493e-11 -4493.23 -3.91918e-11 9800.66)
(84860.5 -28408.4 -5.27729e-11 -6284.21 -3.81252e-11 10169.6)
(88586.7 -26716 -5.1761e-11 -7619.59 -3.69482e-11 10439.5)
(92456.4 -25276.6 -5.07883e-11 -8193.7 -3.59562e-11 10779.1)
(19501.5 -23607.3 -4.69232e-11 27892 -3.58467e-11 6531.2)
(41804.5 -33736.1 -5.40467e-11 18034.1 -4.23599e-11 7842.49)
(58338 -36699.1 -5.62952e-11 11631.8 -4.41559e-11 8919.8)
(70803.4 -37134.1 -5.70943e-11 5181.22 -4.42694e-11 9622.72)
(80476.2 -35987.4 -5.67379e-11 382.967 -4.33652e-11 10195.8)
(87771.8 -34212.5 -5.59304e-11 -3497.71 -4.20673e-11 10615.3)
(93308 -32104.8 -5.48239e-11 -6379.99 -4.05731e-11 10944.6)
(97678.6 -29866.7 -5.35583e-11 -8485.5 -3.90115e-11 11222)
(100545 -27623.9 -5.22639e-11 -10052.4 -3.74636e-11 11396)
(103717 -25700.9 -5.1025e-11 -10730 -3.61472e-11 11664.6)
(31581.4 -34220.6 -5.14501e-11 39463.7 -4.31635e-11 8488.86)
(57488.6 -41642.7 -5.77521e-11 22849.9 -4.77076e-11 9653.38)
(74997.2 -42305.5 -5.89557e-11 13475.7 -4.78953e-11 10616.3)
(87361.9 -40922.8 -5.88763e-11 5239.36 -4.67524e-11 11188)
(96418.3 -38299.6 -5.77427e-11 -468.561 -4.48409e-11 11644.4)
(102832 -35366.1 -5.63189e-11 -4922.23 -4.27569e-11 11944.8)
(107405 -32356.3 -5.4725e-11 -8137.84 -4.0654e-11 12163.2)
(110776 -29398 -5.30719e-11 -10460.1 -3.86081e-11 12333.8)
(112652 -26642.5 -5.15101e-11 -12169.8 -3.67168e-11 12405.9)
(114960 -24251.7 -5.00153e-11 -12907.9 -3.50885e-11 12590.5)
(47789.9 -46409 -5.68808e-11 50665.9 -5.15146e-11 10802.5)
(75872.6 -49026.7 -6.10255e-11 27652 -5.26948e-11 11726.8)
(93494.1 -46487.2 -6.06093e-11 15525.7 -5.06761e-11 12516.5)
(105092 -42879.1 -5.93935e-11 5652.86 -4.80086e-11 12907.6)
(113051 -38635.7 -5.73865e-11 -815.534 -4.49982e-11 13213.5)
(118209 -34529.1 -5.53311e-11 -5715.41 -4.21224e-11 13368.7)
(121553 -30663.5 -5.32748e-11 -9165.27 -3.94445e-11 13458)
(123710 -27065.9 -5.12797e-11 -11611.8 -3.69718e-11 13507.6)
(124487 -23887.2 -4.95086e-11 -13445.8 -3.47977e-11 13467.9)
(125763 -21090.4 -4.77958e-11 -14193.6 -3.29004e-11 13555.9)
(68444.2 -59457.1 -6.29334e-11 60301.1 -6.03943e-11 13417.1)
(96700.2 -55583.9 -6.37342e-11 32110.3 -5.71106e-11 14015.5)
(113327 -49122.4 -6.11836e-11 17869.3 -5.24199e-11 14579.9)
(123399 -42982 -5.86107e-11 6707.69 -4.8032e-11 14746.3)
(129762 -37041.8 -5.56639e-11 -282.147 -4.3878e-11 14872.7)
(133300 -31805.1 -5.29961e-11 -5484.39 -4.02431e-11 14858.1)
(135176 -27169.8 -5.0521e-11 -9037.37 -3.70522e-11 14804.6)
(135900 -23066.5 -4.82722e-11 -11579 -3.42432e-11 14713.3)
(135530 -19572.5 -4.63491e-11 -13449.6 -3.1861e-11 14563.2)
(135563 -16447.3 -4.45066e-11 -14412.9 -2.97436e-11 14517.9)
(93599.5 -72417.7 -6.91431e-11 67446 -6.91475e-11 16275.2)
(119625 -60992.5 -6.57235e-11 35980.3 -6.0736e-11 16470)
(133962 -50189.6 -6.06685e-11 20610.7 -5.31166e-11 16763)
(141675 -41367 -5.65922e-11 8696.98 -4.69217e-11 16666.9)
(145920 -33738.9 -5.26821e-11 1500.07 -4.16384e-11 16587.5)
(147488 -27452.5 -4.94369e-11 -3810.38 -3.7304e-11 16383.7)
(147662 -22166 -4.66117e-11 -7367.44 -3.36822e-11 16171.6)
(146813 -17706.4 -4.41865e-11 -9854.71 -3.0641e-11 15936.1)
(145294 -14090.5 -4.22529e-11 -11879.7 -2.81781e-11 15664.8)
(143905 -10954.7 -4.04188e-11 -12596.1 -2.60638e-11 15501.8)
(60733.9 -4221.32 -3.73968e-11 -512.364 -2.20993e-11 8484.06)
(65742.9 -3766.15 -3.69021e-11 -398.317 -2.17778e-11 8977.75)
(70333.5 -3370.85 -3.64663e-11 -317.03 -2.14973e-11 9428.19)
(74456 -3011.9 -3.6074e-11 -257.033 -2.12423e-11 9831.76)
(78176.9 -2679.27 -3.57132e-11 -197.089 -2.10068e-11 10196.5)
(81506.9 -2381.26 -3.53918e-11 -153.924 -2.07952e-11 10522.2)
(84493 -2108.24 -3.51002e-11 -112.457 -2.0602e-11 10814.4)
(87152.5 -1861.81 -3.48383e-11 -80.494 -2.04275e-11 11074.4)
(89518.9 -1636.1 -3.46016e-11 -52.354 -2.02677e-11 11305.8)
(91609.6 -1429.23 -3.43888e-11 -30.4259 -2.01217e-11 11510)
(93445.2 -1236.92 -3.41946e-11 -12.2676 -1.99864e-11 11689.3)
(95039.2 -1056.24 -3.40179e-11 0.687404 -1.98594e-11 11844.9)
(96402.6 -883.583 -3.38552e-11 9.81965 -1.97386e-11 11978)
(97542.7 -716.67 -3.37057e-11 14.3327 -1.96225e-11 12089.2)
(98462 -552.964 -3.35671e-11 14.2796 -1.95092e-11 12178.8)
(99166.3 -392.732 -3.3439e-11 10.7223 -1.93991e-11 12247.5)
(99653.4 -237.846 -3.33235e-11 2.91737 -1.92932e-11 12294.9)
(99943.5 -97.2591 -3.32239e-11 -2.92302 -1.91978e-11 12323.5)
(100037 10.4528 -3.31522e-11 -2.33898 -1.91251e-11 12333.4)
(100028 35.5767 -3.31278e-11 52.0297 -1.91094e-11 12336.8)
(67347.1 -12081.8 -4.22499e-11 -1148.7 -2.73376e-11 9008.31)
(71038 -10874.2 -4.13382e-11 -1119.71 -2.65141e-11 9374.81)
(74595.7 -9810.71 -4.05134e-11 -1024.83 -2.57892e-11 9732.4)
(77771.5 -8818.32 -3.97555e-11 -976.304 -2.51124e-11 10049.2)
(80715.6 -7888.74 -3.90395e-11 -885.724 -2.44796e-11 10346.4)
(83364 -7048.82 -3.83968e-11 -826.099 -2.39074e-11 10612.1)
(85783.5 -6271.45 -3.78001e-11 -754.05 -2.33783e-11 10856.4)
(87957.3 -5565.44 -3.72608e-11 -699.682 -2.28974e-11 11075)
(89920.6 -4914.23 -3.67645e-11 -647.277 -2.24542e-11 11272.9)
(91674.7 -4315 -3.63117e-11 -606.66 -2.20465e-11 11449.3)
(93239 -3756.26 -3.58919e-11 -572.68 -2.16663e-11 11606.7)
(94619.9 -3231.86 -3.55024e-11 -548.256 -2.13099e-11 11745.4)
(95828.3 -2732.59 -3.51366e-11 -530.204 -2.09708e-11 11866.9)
(96871.9 -2253.1 -3.47905e-11 -517.674 -2.06453e-11 11971.9)
(97755.2 -1788.44 -3.44598e-11 -506.63 -2.03304e-11 12061.3)
(98487.3 -1338.22 -3.41435e-11 -490.171 -2.00259e-11 12136.6)
(99068.6 -908.172 -3.38427e-11 -457.571 -1.97356e-11 12198.3)
(99515.9 -516.881 -3.35653e-11 -384.141 -1.94728e-11 12250)
(99810.4 -192.543 -3.33253e-11 -236.326 -1.92572e-11 12292.2)
(99999.7 -20.6848 -3.31616e-11 71.7278 -1.91474e-11 12335.2)
(75026.3 -17485.9 -4.57676e-11 -3533.92 -3.08872e-11 9521.4)
(77378.7 -15840.6 -4.46192e-11 -3448.75 -2.97761e-11 9767.01)
(79910.9 -14365 -4.35376e-11 -3138.04 -2.87828e-11 10045.8)
(82100.4 -12994.9 -4.25517e-11 -2934.85 -2.78593e-11 10282.6)
(84239.8 -11689.7 -4.15965e-11 -2645.06 -2.69813e-11 10520.7)
(86162.2 -10505 -4.07361e-11 -2421.8 -2.61839e-11 10731.9)
(87975.3 -9396.7 -3.99266e-11 -2185.95 -2.54382e-11 10932.9)
(89619.6 -8384.13 -3.91908e-11 -1992.11 -2.47567e-11 11113.8)
(91139.2 -7444.26 -3.85086e-11 -1814.24 -2.41239e-11 11280.9)
(92516 -6576.41 -3.78822e-11 -1668.87 -2.35393e-11 11431.2)
(93769.9 -5766.44 -3.73012e-11 -1547.65 -2.29936e-11 11567.4)
(94898.3 -5007.24 -3.67615e-11 -1453.52 -2.24819e-11 11689)
(95911.3 -4288.8 -3.62547e-11 -1382.21 -2.19973e-11 11797.5)
(96812.7 -3603.24 -3.57768e-11 -1329.33 -2.15351e-11 11893.6)
(97607 -2944.94 -3.53212e-11 -1286.75 -2.10911e-11 11978.4)
(98301.6 -2310.57 -3.48844e-11 -1239.44 -2.06637e-11 12053.9)
(98891.1 -1702.51 -3.44636e-11 -1165.48 -2.0255e-11 12121)
(99388.2 -1129.88 -3.40583e-11 -1020.43 -1.98717e-11 12184.4)
(99748.4 -610.428 -3.36716e-11 -741.095 -1.95276e-11 12244.4)
(100014 -167.82 -3.32994e-11 -219.017 -1.92403e-11 12313.2)
(84013.4 -21298.6 -4.82178e-11 -5881.44 -3.33649e-11 10175.7)
(84939.2 -19414.3 -4.69756e-11 -5828.55 -3.20979e-11 10283.7)
(86407.7 -17676.6 -4.57412e-11 -5352.46 -3.0936e-11 10475)
(87533.5 -16091.5 -4.46464e-11 -5064.68 -2.98739e-11 10617.7)
(88805.9 -14549 -4.35476e-11 -4613.65 -2.88431e-11 10786.7)
(89924.7 -13148.7 -4.25603e-11 -4261.52 -2.79065e-11 10932.2)
(91062.2 -11822.2 -4.1615e-11 -3881.9 -2.70199e-11 11081)
(92106.3 -10604.8 -4.07519e-11 -3562.06 -2.62055e-11 11215.4)
(93116.4 -9466.86 -3.99441e-11 -3264.57 -2.54441e-11 11344.2)
(94054.2 -8412.19 -3.91992e-11 -3014.76 -2.4738e-11 11461.8)
(94938.3 -7425.15 -3.85056e-11 -2801.48 -2.40768e-11 11570.9)
(95757.6 -6499.84 -3.78593e-11 -2629.72 -2.34563e-11 11670)
(96518.7 -5625.31 -3.72532e-11 -2493.42 -2.28692e-11 11760.6)
(97220.3 -4793.02 -3.66809e-11 -2387.34 -2.23102e-11 11842.7)
(97862.5 -3995.07 -3.61358e-11 -2299.79 -2.17741e-11 11917.5)
(98448.3 -3225.32 -3.561e-11 -2212.4 -2.12571e-11 11986.5)
(98965.1 -2479.62 -3.50992e-11 -2098.03 -2.07573e-11 12050.9)
(99421.6 -1753.43 -3.45897e-11 -1906.84 -2.02719e-11 12115.1)
(99755.2 -1053.17 -3.40807e-11 -1573.72 -1.98076e-11 12178.1)
(100020 -327.918 -3.3518e-11 -982.516 -1.93319e-11 12254.4)
(93664.8 -23271.6 -4.95402e-11 -8674.73 -3.4596e-11 10874.5)
(93105.6 -21380.3 -4.83556e-11 -8665.39 -3.33287e-11 10836.6)
(93530.5 -19535.1 -4.70579e-11 -7963.69 -3.21035e-11 10945.6)
(93566.9 -17910.9 -4.59634e-11 -7578.81 -3.10211e-11 10991.4)
(93969.3 -16278.6 -4.48112e-11 -6935.2 -2.99373e-11 11092.1)
(94263.6 -14803.7 -4.3783e-11 -6426.5 -2.89567e-11 11170.9)
(94705.9 -13385.1 -4.27787e-11 -5872.67 -2.80144e-11 11267)
(95123.8 -12075.9 -4.18563e-11 -5394.77 -2.7144e-11 11354)
(95595.6 -10841.9 -4.09842e-11 -4947.82 -2.63233e-11 11443.3)
(96061.2 -9692.04 -4.0177e-11 -4564.37 -2.55579e-11 11526.4)
(96540.2 -8611.98 -3.94204e-11 -4233.44 -2.48379e-11 11606.2)
(97011.6 -7596.47 -3.87148e-11 -3961.86 -2.41601e-11 11680.3)
(97478.4 -6635.21 -3.80515e-11 -3742.84 -2.35178e-11 11749.6)
(97933.8 -5719.53 -3.74256e-11 -3570.92 -2.2905e-11 11813.7)
(98373.4 -4839.26 -3.68278e-11 -3433.83 -2.23154e-11 11873.4)
(98795.5 -3983.44 -3.62486e-11 -3311.88 -2.17421e-11 11930.1)
(99183.2 -3142.59 -3.56781e-11 -3177.44 -2.11791e-11 11984.3)
(99540.5 -2295.73 -3.50954e-11 -2982.27 -2.06134e-11 12040.3)
(99801.2 -1441.92 -3.44941e-11 -2668.64 -2.00457e-11 12096)
(100022 -468.505 -3.37835e-11 -2127.44 -1.94027e-11 12166.2)
(103811 -23507.2 -4.96978e-11 -11205.1 -3.46648e-11 11654.9)
(101704 -21852.7 -4.87469e-11 -11354.6 -3.3559e-11 11454.2)
(101107 -20048.7 -4.74836e-11 -10457 -3.2369e-11 11479.6)
(100033 -18545 -4.65011e-11 -10029.3 -3.13724e-11 11421)
(99563.7 -16956.5 -4.53858e-11 -9235.94 -3.03244e-11 11449)
(99021.1 -15526.5 -4.43985e-11 -8601.04 -2.93797e-11 11456.7)
(98752.6 -14125.7 -4.341e-11 -7903.38 -2.84549e-11 11495.2)
(98526.6 -12822.4 -4.2494e-11 -7286.42 -2.75935e-11 11530.9)
(98436.2 -11582.1 -4.16186e-11 -6703.12 -2.67736e-11 11576.6)
(98404.8 -10417.7 -4.08002e-11 -6191.77 -2.60026e-11 11621.8)
(98449.2 -9316.92 -4.00288e-11 -5744.03 -2.52729e-11 11668.9)
(98541.1 -8276.69 -3.93062e-11 -5369.02 -2.45822e-11 11714.7)
(98679.1 -7288.03 -3.86248e-11 -5061.92 -2.39245e-11 11759.2)
(98851.1 -6341.88 -3.79785e-11 -4819.86 -2.32936e-11 11801.8)
(99049 -5427.4 -3.73607e-11 -4632.76 -2.26832e-11 11842.3)
(99266.3 -4529.62 -3.67582e-11 -4483.99 -2.20828e-11 11881.7)
(99484.6 -3634.11 -3.61594e-11 -4350.19 -2.14836e-11 11920)
(99703.6 -2705.87 -3.55365e-11 -4192.39 -2.08632e-11 11960.5)
(99866.6 -1740.73 -3.48808e-11 -3965.89 -2.02195e-11 12001.1)
(100017 -577.82 -3.40764e-11 -3578.99 -1.94465e-11 12054.3)
(113971 -22004.5 -4.86859e-11 -13323 -3.35753e-11 12481.7)
(110321 -20851.3 -4.81568e-11 -13768.1 -3.28056e-11 12106.3)
(108776 -19242.7 -4.70351e-11 -12751 -3.17527e-11 12048.2)
(106624 -18012.1 -4.62672e-11 -12329.3 -3.09432e-11 11883.4)
(105312 -16609.7 -4.52886e-11 -11446.8 -3.00248e-11 11835.8)
(103961 -15339.2 -4.44171e-11 -10704.6 -2.91925e-11 11772.6)
(102991 -14064 -4.35153e-11 -9883.11 -2.83571e-11 11752.2)
(102132 -12854.3 -4.26623e-11 -9131.19 -2.75638e-11 11736.5)
(101479 -11688.1 -4.1835e-11 -8416.38 -2.67982e-11 11737.5)
(100947 -10577.8 -4.10504e-11 -7778.18 -2.60681e-11 11743.9)
(100546 -9519.65 -4.03052e-11 -7214.53 -2.5371e-11 11756.8)
(100245 -8511.62 -3.96017e-11 -6737.16 -2.47054e-11 11772.3)
(100035 -7547.83 -3.8936e-11 -6345 -2.40675e-11 11789.7)
(99900.9 -6619.85 -3.83032e-11 -6037.53 -2.34514e-11 11807.6)
(99832.1 -5716.72 -3.76961e-11 -5808.7 -2.28503e-11 11825.6)
(99817.6 -4820.55 -3.71011e-11 -5647.08 -2.22521e-11 11843.7)
(99841.1 -3913.42 -3.65062e-11 -5536.85 -2.16455e-11 11861.6)
(99895.7 -2950.82 -3.58782e-11 -5451.85 -2.10011e-11 11881)
(99946.8 -1926.49 -3.52103e-11 -5361.69 -2.0315e-11 11901)
(100008 -648.381 -3.43708e-11 -5206.23 -1.94603e-11 11928.9)
(123731 -18874 -4.65289e-11 -14636.2 -3.14113e-11 13344.6)
(118646 -18480.3 -4.66034e-11 -15511.8 -3.11477e-11 12792.4)
(116243 -17234.3 -4.57542e-11 -14558.6 -3.034e-11 12644.1)
(113115 -16378.7 -4.52686e-11 -14179.6 -2.97851e-11 12379.2)
(110996 -15289.2 -4.45246e-11 -13333.9 -2.90789e-11 12248.7)
(108903 -14267.3 -4.38338e-11 -12558.7 -2.84167e-11 12114.7)
(107254 -13216.1 -4.30947e-11 -11696.9 -2.77351e-11 12030.4)
(105790 -12186.4 -4.23668e-11 -10867.3 -2.70664e-11 11961.1)
(104585 -11174.6 -4.16443e-11 -10062 -2.64084e-11 11914.8)
(103561 -10190.8 -4.09426e-11 -9320.26 -2.5767e-11 11880.7)
(102716 -9237.81 -4.02655e-11 -8651.64 -2.51444e-11 11858)
(102018 -8317.58 -3.96167e-11 -8073.65 -2.4541e-11 11842.4)
(101454 -7427.42 -3.89976e-11 -7592.14 -2.39556e-11 11832)
(101006 -6561.18 -3.84052e-11 -7213.26 -2.33838e-11 11824.7)
(100659 -5709.77 -3.78334e-11 -6937.86 -2.28193e-11 11819.2)
(100401 -4854.36 -3.7272e-11 -6763.65 -2.22496e-11 11814.4)
(100218 -3976.49 -3.67083e-11 -6684.22 -2.16629e-11 11809.9)
(100097 -3025.66 -3.61083e-11 -6690.28 -2.10248e-11 11805.4)
(100031 -1995.18 -3.54666e-11 -6767.32 -2.0332e-11 11801.4)
(99995.5 -677.647 -3.46489e-11 -6893.2 -1.94453e-11 11798.9)
(132762 -14419.1 -4.33935e-11 -14886.5 -2.83829e-11 14228.8)
(126392 -14923.7 -4.41634e-11 -16258.4 -2.87166e-11 13508.2)
(123196 -14298.4 -4.38155e-11 -15801.6 -2.83183e-11 13240.9)
(119283 -13891.7 -4.36617e-11 -15528.4 -2.80655e-11 12888.9)
(116392 -13245.7 -4.32496e-11 -14815.7 -2.76572e-11 12670.6)
(113659 -12533.8 -4.27777e-11 -14027.1 -2.72056e-11 12473.8)
(111385 -11757.5 -4.22329e-11 -13141.8 -2.67113e-11 12328.8)
(109376 -10946.6 -4.1656e-11 -12254.7 -2.61926e-11 12209.9)
(107659 -10123.6 -4.10631e-11 -11384.6 -2.56643e-11 12117.8)
(106175 -9300.88 -4.04702e-11 -10570.7 -2.51345e-11 12043.7)
(104906 -8489.3 -3.98872e-11 -9830.02 -2.46096e-11 11984.8)
(103825 -7692.69 -3.93215e-11 -9182.74 -2.40922e-11 11936.5)
(102912 -6913.31 -3.87764e-11 -8640.97 -2.35836e-11 11896.3)
(102149 -6146.37 -3.82519e-11 -8216.1 -2.30805e-11 11861.4)
(101520 -5384.77 -3.77444e-11 -7915.75 -2.25777e-11 11830)
(101010 -4610.07 -3.7245e-11 -7747.39 -2.20633e-11 11799.9)
(100615 -3804.5 -3.67424e-11 -7715.1 -2.15249e-11 11770.9)
(100309 -2916.48 -3.62057e-11 -7829.47 -2.09274e-11 11739.9)
(100124 -1939.05 -3.56306e-11 -8090.43 -2.02667e-11 11710)
(99982.8 -663.348 -3.489e-11 -8522.25 -1.94022e-11 11673.7)
(140274 -8702.72 -3.93904e-11 -14346.4 -2.45299e-11 15037.5)
(133809 -9805.5 -4.0504e-11 -15452.2 -2.52709e-11 14323.3)
(129719 -10065.8 -4.08988e-11 -15946.8 -2.54505e-11 13890.4)
(125365 -10171.8 -4.11442e-11 -16038.5 -2.55359e-11 13464.3)
(121708 -10122.6 -4.12072e-11 -15759.6 -2.55221e-11 13134.4)
(118373 -9893.7 -4.11022e-11 -15211.2 -2.53918e-11 12857.6)
(115466 -9539.43 -4.08714e-11 -14465.9 -2.51801e-11 12637.8)
(112900 -9080.38 -4.05459e-11 -13621.5 -2.4899e-11 12459.3)
(110667 -8549.17 -4.01544e-11 -12732.3 -2.45689e-11 12316.7)
(108721 -7969.19 -3.97242e-11 -11856.9 -2.42047e-11 12201)
(107037 -7360.06 -3.92732e-11 -11031.4 -2.38191e-11 12107)
(105581 -6735.71 -3.88165e-11 -10290.1 -2.34208e-11 12028.5)
(104333 -6104.41 -3.8364e-11 -9656.82 -2.30146e-11 11961.8)
(103266 -5467.89 -3.79218e-11 -9153.49 -2.26017e-11 11902.7)
(102365 -4823.09 -3.74906e-11 -8797.7 -2.21796e-11 11848.5)
(101610 -4156.1 -3.70661e-11 -8608.68 -2.17387e-11 11795.7)
(101006 -3451.7 -3.66392e-11 -8602.37 -2.12684e-11 11743.7)
(100516 -2661.9 -3.61866e-11 -8810.12 -2.07357e-11 11687.1)
(100209 -1780.96 -3.57046e-11 -9249.53 -2.01363e-11 11631.1)
(99964.8 -612.432 -3.50837e-11 -9990.68 -1.93379e-11 11560.5)
(144524 -3994.8 -3.59901e-11 -12756.1 -2.1387e-11 15604.7)
(138574 -4584.01 -3.67653e-11 -13907.3 -2.17809e-11 14940.5)
(133896 -5670.88 -3.78051e-11 -15031.1 -2.25044e-11 14396.7)
(129406 -6186.46 -3.83757e-11 -15517.4 -2.28569e-11 13924)
(125432 -6549.82 -3.87581e-11 -15533.3 -2.31151e-11 13538)
(121793 -6714.06 -3.89546e-11 -15241.8 -2.32446e-11 13209.2)
(118558 -6720.88 -3.89958e-11 -14690 -2.32725e-11 12940.4)
(115657 -6598.2 -3.89193e-11 -13991.2 -2.32152e-11 12715.8)
(113091 -6370.48 -3.87497e-11 -13202.4 -2.30881e-11 12531.3)
(110821 -6064.18 -3.85153e-11 -12391 -2.29077e-11 12377.4)
(108827 -5699.08 -3.82361e-11 -11601.6 -2.2686e-11 12248.8)
(107081 -5292.42 -3.79315e-11 -10876.2 -2.24344e-11 12139.5)
(105560 -4855.69 -3.7614e-11 -10247.2 -2.21599e-11 12044.8)
(104242 -4395.18 -3.72933e-11 -9745.54 -2.18658e-11 11960)
(103113 -3911.41 -3.69743e-11 -9396.87 -2.15526e-11 11881.9)
(102151 -3396.37 -3.66572e-11 -9232.33 -2.12139e-11 11806.1)
(101368 -2838.97 -3.63392e-11 -9278.47 -2.08418e-11 11731.8)
(100720 -2202.05 -3.60053e-11 -9584.83 -2.04105e-11 11651.3)
(100305 -1482.01 -3.56537e-11 -10184.8 -1.9916e-11 11571.5)
(99960.3 -511.269 -3.52039e-11 -11191.5 -1.92453e-11 11469.4)
(142331 625.721 -3.2859e-11 -10976.8 -1.83308e-11 15566.3)
(137661 -51.1542 -3.38338e-11 -13382.8 -1.87526e-11 14928.9)
(133364 -1377.24 -3.50173e-11 -14547.7 -1.96346e-11 14416.7)
(129286 -2247.36 -3.58253e-11 -15205.5 -2.02199e-11 13967.6)
(125607 -2932.78 -3.64198e-11 -15338.8 -2.06908e-11 13598.6)
(122188 -3418.82 -3.68293e-11 -15155.5 -2.10334e-11 13280.1)
(119100 -3733.67 -3.70762e-11 -14703 -2.12654e-11 13015.3)
(116283 -3905 -3.7197e-11 -14090.9 -2.14034e-11 12790)
(113751 -3954.84 -3.7214e-11 -13376.4 -2.14608e-11 12600.7)
(111473 -3908.34 -3.71545e-11 -12626 -2.14535e-11 12439.3)
(109441 -3784.86 -3.70388e-11 -11885.9 -2.13932e-11 12301.4)
(107633 -3601.24 -3.68845e-11 -11200.7 -2.12908e-11 12181.4)
(106037 -3370.85 -3.67063e-11 -10605.9 -2.11542e-11 12075.1)
(104633 -3101.83 -3.65156e-11 -10135.4 -2.09885e-11 11978.3)
(103417 -2797.14 -3.63191e-11 -9820.3 -2.07951e-11 11887.8)
(102367 -2454.63 -3.61213e-11 -9697.54 -2.05715e-11 11799)
(101504 -2066.14 -3.59222e-11 -9800.87 -2.03117e-11 11711.3)
(100784 -1608.83 -3.5718e-11 -10189.5 -1.99995e-11 11616.2)
(100325 -1083.37 -3.55106e-11 -10909.5 -1.96335e-11 11521.4)
(99942.9 -372.82 -3.52545e-11 -12091.2 -1.91339e-11 11400.3)
(140674 5258.94 -2.96497e-11 -8877.61 -1.52702e-11 15604)
(136373 4195.45 -3.09166e-11 -11671.8 -1.59425e-11 14969.4)
(132736 2632.82 -3.22694e-11 -13115.1 -1.6975e-11 14497.5)
(128980 1476.99 -3.3293e-11 -14073.5 -1.77449e-11 14054.2)
(125596 520.013 -3.40881e-11 -14461.7 -1.83915e-11 13691.9)
(122357 -241.855 -3.47013e-11 -14507.8 -1.89137e-11 13371.1)
(119401 -823.847 -3.51429e-11 -14247.5 -1.93205e-11 13102.2)
(116660 -1256.43 -3.54518e-11 -13797.8 -1.96304e-11 12869.6)
(114167 -1556.98 -3.56474e-11 -13214.7 -1.98532e-11 12672.1)
(111897 -1749.15 -3.57557e-11 -12570.3 -2.00037e-11 12501.5)
(109851 -1850.32 -3.57961e-11 -11913.2 -2.00927e-11 12354.2)
(108010 -1877.85 -3.57874e-11 -11293.1 -2.01308e-11 12224.3)
(106369 -1844.84 -3.57442e-11 -10749.6 -2.01258e-11 12108.3)
(104914 -1761.72 -3.56809e-11 -10322.1 -2.00841e-11 12001.6)
(103640 -1634.76 -3.56057e-11 -10047.6 -2.00094e-11 11901.1)
(102533 -1466.51 -3.55276e-11 -9967.42 -1.99021e-11 11802.2)
(101616 -1253.36 -3.54503e-11 -10125.3 -1.97591e-11 11703.8)
(100847 -989.157 -3.53809e-11 -10579.8 -1.95754e-11 11597.5)
(100360 -671.634 -3.53204e-11 -11383.3 -1.93475e-11 11492)
(99938.9 -231.699 -3.52578e-11 -12697.3 -1.90266e-11 11354.9)
(137758 8848.31 -2.72041e-11 -7115.88 -1.29083e-11 15486.7)
(134034 7762.37 -2.85122e-11 -10225.1 -1.35869e-11 14883.3)
(131012 6127.58 -2.99143e-11 -11842.7 -1.46618e-11 14456.7)
(127676 4837.18 -3.10381e-11 -12999.7 -1.55165e-11 14037.7)
(124668 3702.73 -3.19595e-11 -13563.6 -1.62773e-11 13696.6)
(121708 2744.28 -3.27126e-11 -13772.5 -1.69273e-11 13388.6)
(118977 1951.94 -3.33017e-11 -13659.2 -1.74713e-11 13128.4)
(116403 1305.13 -3.37614e-11 -13340.7 -1.79216e-11 12900.2)
(114035 790.629 -3.41056e-11 -12872.1 -1.82851e-11 12704.3)
(111853 389.182 -3.43591e-11 -12326.4 -1.85738e-11 12532.9)
(109864 85.4235 -3.45388e-11 -11753.1 -1.87968e-11 12383.1)
(108058 -136.014 -3.46634e-11 -11203.4 -1.89635e-11 12249.6)
(106434 -288.628 -3.47473e-11 -10719 -1.90819e-11 12129.3)
(104981 -384.313 -3.48043e-11 -10341.9 -1.91591e-11 12017.7)
(103701 -430.551 -3.48465e-11 -10110.9 -1.91996e-11 11911.9)
(102583 -438.035 -3.48879e-11 -10073.2 -1.92096e-11 11807.2)
(101649 -401.151 -3.49291e-11 -10269.9 -1.91842e-11 11702.8)
(100872 -340.613 -3.49965e-11 -10768.2 -1.91363e-11 11590.6)
(100376 -229.026 -3.50781e-11 -11643.9 -1.90451e-11 11477.2)
(99936.6 -74.9417 -3.52085e-11 -13026.5 -1.89148e-11 11330.8)
(134089 11829.6 -2.51759e-11 -5371.94 -1.09566e-11 15290.8)
(130950 10729.5 -2.64909e-11 -8608.47 -1.164e-11 14733.8)
(128541 9105.83 -2.78809e-11 -10341.8 -1.2703e-11 14357.3)
(125666 7757.03 -2.90522e-11 -11676 -1.35914e-11 13968.6)
(123074 6521.01 -3.00481e-11 -12408.6 -1.44154e-11 13653.9)
(120442 5433.2 -3.08973e-11 -12787.7 -1.51472e-11 13363.4)
(117988 4489.99 -3.15959e-11 -12830.1 -1.57886e-11 13116.9)