/*--------------------------------*- C++ -*----------------------------------*\
  =========                 |
  \\      /  F ield         | OpenFOAM: The Open Source CFD Toolbox
   \\    /   O peration     | Website:  https://openfoam.org
    \\  /    A nd           | Version:  9
     \\/     M anipulation  |
\*---------------------------------------------------------------------------*/
FoamFile
{
    format      ascii;
    class       volScalarField;
    location    "1";
    object      sigmaEq;
}
// * * * * * * * * * * * * * * * * * * * * * * * * * * * * * * * * * * * * * //

dimensions      [1 -1 -2 0 0 0 0];

internalField   nonuniform List<scalar> 
1000
(
171200
161871
158940
158870
158270
157216
155631
153565
151427
148797
199787
181484
172652
168700
165487
162581
159591
156517
153291
150252
227685
200472
185417
177153
170978
165938
161347
157056
152806
149079
254359
218580
197211
184335
174913
167521
161190
155615
150351
145935
278982
235371
207800
190165
177307
167406
159248
152336
146102
140968
301717
250781
217122
194665
178261
165782
155778
147536
140379
134525
321323
263953
224267
197135
177380
162520
150870
141458
133532
127026
340186
274905
228888
197497
174843
158071
145182
134935
126508
119527
354478
279444
227054
192834
169143
151819
138706
128292
119812
112643
372571
274098
219599
186015
163781
147256
134715
124573
116262
109045
3112.32
2809.66
5712.83
11715.2
18725.2
26093.2
33305.1
40204.3
46547.3
52445.7
2850.54
7761.23
16999.4
26144.1
34336.7
41669.7
48122.2
53933.5
58942.5
63689.8
6499.27
19002.3
30774.3
41333.2
50189.8
57583.7
63647.6
68783.8
72841.5
76740
15082.4
32887.3
46177.9
57280.4
66160
73291.5
78874.9
83391.3
86657.1
89872.6
27981
48688.5
62767.8
73880.7
82297.5
88810
93690.8
97465.5
99928.1
102457
44937.5
65768.8
79724.4
90395.6
98033.5
103695
107717
110648
112289
114098
65502.4
83865.5
96634.6
106372
112964
117602
120654
122666
123476
124517
89129.7
102750
113163
121389
126661
130128
132146
133197
133227
133449
115116
122216
129136
135225
138877
141019
141923
141986
141264
140721
142737
142018
144418
147718
149401
150016
149710
148694
147407
145756
57745.1
62329.6
66573.6
70407.9
73874.6
76991.4
79789.3
82288.2
84514.5
86484.9
88216.8
89723.5
91013.8
92095
92969.2
93641.2
94109.4
94388.9
94477.5
94434.5
67357.5
70102.4
72866.1
75417.7
77814.4
80030.4
82078
83950.7
85659.1
87203.9
88593.1
89830.3
90920.2
91867.3
92671.3
93335.9
93853.7
94224.7
94408.6
94395.5
78954.4
79951.9
81210.1
82391.4
83596.4
84770.3
85925.8
87032.7
88095.6
89097.3
90039.4
90913.8
91720.3
92455
93113.4
93690.5
94165.6
94521
94673
94591.9
90864.4
90369.6
90307.8
90249.7
90336.6
90496
90757.5
91073.9
91452.5
91864.2
92305.4
92759.8
93221.2
93678.5
94119.4
94531.1
94881.3
95144.5
95218.3
95079.5
102370
100619
99419.9
98282.3
97378.9
96611.2
96038.7
95595.1
95300.9
95116.2
95039.5
95047.3
95129.8
95270.2
95451
95653.1
95839.6
95980.5
95975.9
95808.9
113048
110256
108103
106041
104294
102710
101397
100263
99342.6
98590.7
98007.9
97568
97259.8
97064.1
96961.5
96930.7
96936
96948.6
96888.3
96736.7
122627
119001
116107
113267
110833
108545
106583
104827
103335
102056
100994
100124
99435.1
98905.9
98519.5
98253.6
98080.3
97972.8
97883.1
97786.1
130864
126597
123216
119722
116760
113910
111418
109145
107154
105404
103900
102624
101567
100711
100043
99544.7
99199.4
98984.5
98891.7
98883.7
137741
132880
129384
125418
122028
118716
115752
113033
110605
108445
106553
104917
103529
102376
101451
100738
100238
99931.2
99854.6
99955.9
143021
137876
134412
130400
126758
123194
119867
116771
113943
111389
109115
107118
105397
103942
102753
101821
101161
100760
100703
100926
145357
140524
136964
133107
129410
125795
122361
119121
116121
113372
110892
108686
106759
105110
103745
102665
101899
101441
101410
101736
141914
139067
135788
132396
129036
125704
122493
119420
116536
113860
111416
109218
107278
105602
104207
103100
102323
101875
101905
102333
139236
136879
134270
131294
128322
125275
122298
119399
116645
114058
111672
109505
107575
105898
104495
103381
102607
102174
102250
102745
135867
134163
132117
129566
126981
124240
121525
118838
116257
113806
111526
109437
107566
105930
104557
103468
102713
102311
102436
102968
131964
130803
129294
127196
125026
122632
120220
117787
115421
113148
111016
109047
107272
105715
104400
103364
102627
102300
102283
102999
127741
127075
126056
124394
122623
120580
118482
116323
114198
112135
110182
108368
106726
105278
104059
103090
102432
102102
102246
102762
123288
123051
122467
121220
119833
118143
116367
114499
112635
110805
109060
107429
105946
104636
103532
102655
102061
101755
101886
102371
118698
118831
118634
117768
116742
115396
113939
112368
110778
109198
107681
106256
104957
103807
102838
102069
101549
101282
101395
101811
114019
114462
114601
114085
113395
112380
111239
109969
108662
107347
106074
104874
103778
102809
101994
101349
100915
100688
100778
101112
109275
109978
110410
110212
109834
109138
108307
107339
106321
105281
104267
103307
102431
101660
101016
100511
100174
99998.6
100063
100304
104466
105387
106073
106167
106084
105696
105171
104508
103786
103031
102287
101582
100941
100382
99924
99572.6
99346.2
99232.9
99276.3
99424.4
99573.2
100681
101595
101962
102161
102077
101858
101505
101086
100627
100166
99727
99333.4
99000.5
98740.6
98557
98454.8
98416.2
98450.3
98512.4
94561.5
95836.7
96962.8
97594.7
98076
98298.6
98394.1
98359.9
98257.2
98105.6
97939.8
97779.3
97644.4
97547
97496.6
97491
97525.4
97576.4
97617.2
97609.4
89386
90828
92165.8
93069.2
93842
94384.8
94809.9
95111.6
95341
95512.4
95655.2
95784.8
95917.5
96063.6
96228.3
96408.1
96588.8
96742.5
96810.7
96755.1
83985.9
85613.2
87182
88381.6
89472.3
90362.8
91143.8
91806.6
92390.2
92905
93371.9
93803.2
94211.6
94605.1
94986.5
95352.3
95682.8
95947.9
96064.9
95989.6
78318.2
80176.4
82016.4
83557.1
85007.6
86286.3
87459.9
88515.8
89481.2
90360
91167.4
91910.5
92599.2
93239.3
93832.8
94376.9
94852.5
95228.8
95411.4
95346.6
72316.7
74486
76670.4
78623.3
80499
82222.3
83837.9
85327.6
86707.5
87975.5
89140.6
90206
91177.5
92058.8
92852.9
93557.8
94159
94631.4
94887.1
94860.1
66029.3
68625.2
71252.1
73706.2
76081.4
78312.1
80418.7
82380.5
84202.1
85878.5
87411.7
88802.4
90052.2
91164.3
92140.1
92979.4
93674.6
94210
94521.4
94543.4
59462.3
62658.8
65871.6
68944.8
71914.6
74723.3
77374.5
79844.7
82133.7
84232.3
86141.4
87857.6
89381.9
90712.8
91848.7
92789.5
93527.4
94062.2
94364.3
94415.5
53098.8
57061.3
60979.9
64747.1
68363.2
71775.7
74980.6
77955.1
80697.7
83200.6
85463.8
87485.4
89263.1
90793.3
92068.5
93082
93819.4
94286.7
94471.1
94450.8
102949
106446
113089
120526
128171
134919
140307
143953
145890
145643
97339.3
100637
106887
114090
121804
128984
135156
139784
142761
143378
92282.9
95419
101267
108062
115482
122563
128914
134100
138061
140333
87647.7
90684.9
96232.1
102704
109894
116898
123323
128761
133022
136235
83297.9
86252.5
91517
97642.3
104523
111343
117745
123414
127943
131797
79209.2
82112
87155.3
92984.6
99572.3
106171
112427
118139
122740
127015
75301
78161.3
83009.5
88563.4
94862
101228
107316
113018
117625
122103
71554.4
74380.6
79064.7
84372.9
90395.7
96513.9
102390
108003
112567
117129
67932.8
70723
75257.9
80339.8
86101.3
91973
97632.1
103111
107599
112148
64425.6
67172.8
71564.9
76431.6
81939.4
87558.8
92989
98299.1
102692
107173
61024.7
63711.8
67954.9
72605.4
77860.6
83222.2
88419.2
93534.6
97817.3
102192
57738.9
60338.7
64410.3
68828.5
73818.2
78908.1
83862.7
88764.7
92925.4
97174
54594
57062.5
60914.6
65061.2
69756.2
74553.1
79251.4
83925
87955.1
92068.8
51638.9
53902.9
57455.2
61265.3
65616.7
70087
74509.9
78942.5
82837
86815.9
48971.8
50902.4
54004.8
57367.4
61298.7
65399.3
69527.3
73713.4
77477.5
81334.6
46730.4
48082.1
50516.6
53292.4
56709.6
60392.6
64207.1
68148
71797.5
75558.1
45189.7
45496.6
46841.4
48804.3
51597.6
54830.6
58343.2
62074.3
65659.8
69383.8
44519
42901
42736
43727.1
45833.6
48614.7
51867.2
55453.5
59055.4
62826.5
45427.9
39937.3
37387.7
37206
38719.2
41215.1
44394.5
48027.1
51828
55816.8
45799.7
34277.2
30324
29169.3
30418.5
32880.3
36246.6
40177.8
44410.6
48828
)
;

boundaryField
{
    left
    {
        type            calculated;
        value           nonuniform List<scalar> 
30
(
102037
96448.7
91409.4
86783.4
82445.7
78371.7
74486.3
70773.3
67198.4
63755.6
60439.9
57264.8
54259.9
51481.5
49034.4
47100.9
46032.4
46412.6
49971.3
57688.9
396291
266902
212409
181501
161221
145630
133585
123640
115416
108165
)
;
    }
    right
    {
        type            calculated;
        value           nonuniform List<scalar> 
30
(
94415.6
94395.6
94581.3
95063.2
95789.8
96718.7
97772.9
98878.5
99959.5
100943
101757
102368
102783
103010
103009
102797
102409
101844
101138
100322
99434.9
98515.7
97606.3
96747.3
95979.8
95337.5
94854.8
94543.1
94419.9
94429.2
)
;
    }
    down
    {
        type            calculated;
        value           nonuniform List<scalar> 
30
(
2917.59
2575.56
4100.48
9927.06
17095.8
24672.6
32099.4
39190.1
45699.1
51730.9
57163.4
61897.6
66246.2
70157.1
73685.5
76846.9
79681.4
82207.7
84455.6
86442.9
88188.3
89705.1
91003.1
92089.6
92967.3
93641.2
94109
94387.9
94476.9
94445.8
)
;
    }
    up
    {
        type            calculated;
        value           nonuniform List<scalar> 
30
(
44441.2
33860.6
30179.7
29032.1
30254.7
32684.7
36030.2
39952
44181.6
48606.5
52886.9
56872.3
60817
64605.8
68243.9
71676
74899.1
77889.6
80645.8
83161
85434.5
87465
89250.1
90786.5
92065.9
93082
93820.3
94287.3
94470.3
94457.6
)
;
    }
    hole
    {
        type            calculated;
        value           nonuniform List<scalar> 
20
(
170262
199698
228408
255839
281136
304474
324585
344013
358942
376412
2764.51
2764.2
3319.87
10705.4
23293.8
40425.3
61446.1
85726.4
112483
140940
)
;
    }
    frontAndBack
    {
        type            empty;
    }
}


// ************************************************************************* //
