/*--------------------------------*- C++ -*----------------------------------*\
  =========                 |
  \\      /  F ield         | OpenFOAM: The Open Source CFD Toolbox
   \\    /   O peration     | Website:  https://openfoam.org
    \\  /    A nd           | Version:  9
     \\/     M anipulation  |
\*---------------------------------------------------------------------------*/
FoamFile
{
    format      ascii;
    class       volVectorField;
    location    "1";
    object      D;
}
// * * * * * * * * * * * * * * * * * * * * * * * * * * * * * * * * * * * * * //

dimensions      [0 1 0 0 0 0 0];

internalField   nonuniform List<vector> 
1000
(
(6.75938e-07 2.26713e-07 0)
(6.30709e-07 2.50437e-07 0)
(5.9781e-07 2.70415e-07 0)
(5.74037e-07 2.8603e-07 0)
(5.57072e-07 2.99514e-07 0)
(5.45102e-07 3.11117e-07 0)
(5.36996e-07 3.21575e-07 0)
(5.31848e-07 3.31101e-07 0)
(5.28942e-07 3.39991e-07 0)
(5.27914e-07 3.48419e-07 0)
(6.09124e-07 2.04407e-07 0)
(5.62167e-07 2.21642e-07 0)
(5.28238e-07 2.3677e-07 0)
(5.03829e-07 2.4845e-07 0)
(4.86435e-07 2.58715e-07 0)
(4.74118e-07 2.67543e-07 0)
(4.65678e-07 2.75554e-07 0)
(4.60152e-07 2.82881e-07 0)
(4.56808e-07 2.8968e-07 0)
(4.55151e-07 2.96314e-07 0)
(5.40889e-07 1.82056e-07 0)
(4.93508e-07 1.92378e-07 0)
(4.59477e-07 2.02454e-07 0)
(4.35124e-07 2.10151e-07 0)
(4.17827e-07 2.1725e-07 0)
(4.05578e-07 2.23418e-07 0)
(3.97128e-07 2.29137e-07 0)
(3.91494e-07 2.34436e-07 0)
(3.87939e-07 2.39343e-07 0)
(3.85942e-07 2.44261e-07 0)
(4.71579e-07 1.6002e-07 0)
(4.25138e-07 1.63277e-07 0)
(3.91995e-07 1.68284e-07 0)
(3.68444e-07 1.72081e-07 0)
(3.51816e-07 1.76167e-07 0)
(3.40081e-07 1.79862e-07 0)
(3.3198e-07 1.83505e-07 0)
(3.26526e-07 1.86987e-07 0)
(3.23022e-07 1.90237e-07 0)
(3.209e-07 1.9362e-07 0)
(4.01364e-07 1.3863e-07 0)
(3.57272e-07 1.34957e-07 0)
(3.26052e-07 1.35096e-07 0)
(3.04106e-07 1.35246e-07 0)
(2.88758e-07 1.3661e-07 0)
(2.78006e-07 1.38135e-07 0)
(2.70615e-07 1.40008e-07 0)
(2.6562e-07 1.41961e-07 0)
(2.62387e-07 1.43844e-07 0)
(2.60331e-07 1.45931e-07 0)
(3.30547e-07 1.18036e-07 0)
(2.901e-07 1.07853e-07 0)
(2.61869e-07 1.03596e-07 0)
(2.42361e-07 1.00559e-07 0)
(2.28923e-07 9.96606e-08 0)
(2.19621e-07 9.94473e-08 0)
(2.13285e-07 9.99512e-08 0)
(2.09007e-07 1.00742e-07 0)
(2.06234e-07 1.01607e-07 0)
(2.04398e-07 1.02704e-07 0)
(2.58857e-07 9.82265e-08 0)
(2.23464e-07 8.22562e-08 0)
(1.99369e-07 7.44108e-08 0)
(1.83195e-07 6.8941e-08 0)
(1.72314e-07 6.64496e-08 0)
(1.64913e-07 6.50717e-08 0)
(1.59939e-07 6.46962e-08 0)
(1.56591e-07 6.47449e-08 0)
(1.54423e-07 6.49711e-08 0)
(1.52926e-07 6.54137e-08 0)
(1.86797e-07 7.86356e-08 0)
(1.57633e-07 5.80673e-08 0)
(1.38912e-07 4.80287e-08 0)
(1.26931e-07 4.12911e-08 0)
(1.1915e-07 3.81296e-08 0)
(1.13967e-07 3.63112e-08 0)
(1.10542e-07 3.5614e-08 0)
(1.08238e-07 3.53726e-08 0)
(1.06744e-07 3.53429e-08 0)
(1.05659e-07 3.54761e-08 0)
(1.12752e-07 5.73255e-08 0)
(9.21543e-08 3.45846e-08 0)
(8.03088e-08 2.47183e-08 0)
(7.32742e-08 1.85732e-08 0)
(6.90055e-08 1.5935e-08 0)
(6.62094e-08 1.44763e-08 0)
(6.4402e-08 1.39679e-08 0)
(6.31635e-08 1.37969e-08 0)
(6.23468e-08 1.37847e-08 0)
(6.17022e-08 1.38551e-08 0)
(3.88575e-08 3.00197e-08 0)
(2.93032e-08 1.27296e-08 0)
(2.56579e-08 6.65258e-09 0)
(2.37288e-08 3.59536e-09 0)
(2.26081e-08 2.54189e-09 0)
(2.18246e-08 2.06513e-09 0)
(2.1312e-08 1.99808e-09 0)
(2.09355e-08 2.03738e-09 0)
(2.06774e-08 2.11497e-09 0)
(2.04493e-08 2.20092e-09 0)
(1.19218e-06 3.67369e-07 0)
(1.19017e-06 4.13156e-07 0)
(1.18877e-06 4.55815e-07 0)
(1.18878e-06 4.94869e-07 0)
(1.19054e-06 5.30718e-07 0)
(1.19418e-06 5.63808e-07 0)
(1.19971e-06 5.94655e-07 0)
(1.20703e-06 6.23707e-07 0)
(1.21607e-06 6.51318e-07 0)
(1.2266e-06 6.7788e-07 0)
(1.15477e-06 3.64364e-07 0)
(1.14944e-06 4.1002e-07 0)
(1.14579e-06 4.5216e-07 0)
(1.14416e-06 4.90428e-07 0)
(1.14471e-06 5.25317e-07 0)
(1.14735e-06 5.573e-07 0)
(1.15198e-06 5.86945e-07 0)
(1.15839e-06 6.14724e-07 0)
(1.16648e-06 6.41006e-07 0)
(1.17595e-06 6.66238e-07 0)
(1.1151e-06 3.58249e-07 0)
(1.10582e-06 4.03788e-07 0)
(1.09911e-06 4.45071e-07 0)
(1.09506e-06 4.82105e-07 0)
(1.09371e-06 5.15638e-07 0)
(1.09474e-06 5.46212e-07 0)
(1.09796e-06 5.74431e-07 0)
(1.10305e-06 6.00777e-07 0)
(1.10988e-06 6.25632e-07 0)
(1.11801e-06 6.49455e-07 0)
(1.07224e-06 3.49349e-07 0)
(1.05853e-06 3.9467e-07 0)
(1.04826e-06 4.34903e-07 0)
(1.04134e-06 4.70427e-07 0)
(1.03765e-06 5.0233e-07 0)
(1.03669e-06 5.31233e-07 0)
(1.03817e-06 5.57797e-07 0)
(1.04166e-06 5.82506e-07 0)
(1.04701e-06 6.0576e-07 0)
(1.05365e-06 6.28012e-07 0)
(1.02568e-06 3.37749e-07 0)
(1.00711e-06 3.82491e-07 0)
(9.93035e-07 4.2134e-07 0)
(9.831e-07 4.55008e-07 0)
(9.7693e-07 4.84961e-07 0)
(9.73868e-07 5.11904e-07 0)
(9.73517e-07 5.36567e-07 0)
(9.75331e-07 5.59428e-07 0)
(9.79132e-07 5.80907e-07 0)
(9.84246e-07 6.01428e-07 0)
(9.75362e-07 3.23721e-07 0)
(9.51665e-07 3.67264e-07 0)
(9.33702e-07 4.04328e-07 0)
(9.20753e-07 4.3582e-07 0)
(9.12133e-07 4.63561e-07 0)
(9.06999e-07 4.88312e-07 0)
(9.0484e-07 5.10868e-07 0)
(9.05013e-07 5.31696e-07 0)
(9.07302e-07 5.51243e-07 0)
(9.10934e-07 5.69878e-07 0)
(9.21418e-07 3.07475e-07 0)
(8.92518e-07 3.4899e-07 0)
(8.70754e-07 3.83759e-07 0)
(8.5493e-07 4.12728e-07 0)
(8.44014e-07 4.38e-07 0)
(8.36956e-07 4.60354e-07 0)
(8.33124e-07 4.80635e-07 0)
(8.31786e-07 4.99285e-07 0)
(8.32675e-07 5.16772e-07 0)
(8.34951e-07 5.33402e-07 0)
(8.64124e-07 2.89317e-07 0)
(8.30202e-07 3.2784e-07 0)
(8.04883e-07 3.5975e-07 0)
(7.86435e-07 3.85848e-07 0)
(7.73463e-07 4.08428e-07 0)
(7.64706e-07 4.28224e-07 0)
(7.594e-07 4.4611e-07 0)
(7.56739e-07 4.62477e-07 0)
(7.56386e-07 4.77819e-07 0)
(7.57488e-07 4.92342e-07 0)
(8.03844e-07 2.69558e-07 0)
(7.65352e-07 3.0408e-07 0)
(7.36889e-07 3.32543e-07 0)
(7.16177e-07 3.55432e-07 0)
(7.0147e-07 3.7512e-07 0)
(6.91297e-07 3.92239e-07 0)
(6.84763e-07 4.07649e-07 0)
(6.81005e-07 4.21693e-07 0)
(6.79592e-07 4.34827e-07 0)
(6.79735e-07 4.47215e-07 0)
(7.40978e-07 2.48562e-07 0)
(6.98635e-07 2.7811e-07 0)
(6.67595e-07 3.02571e-07 0)
(6.45075e-07 3.21946e-07 0)
(6.29014e-07 3.38587e-07 0)
(6.17749e-07 3.52955e-07 0)
(6.10267e-07 3.65876e-07 0)
(6.05662e-07 3.77593e-07 0)
(6.03402e-07 3.88556e-07 0)
(6.02866e-07 3.98671e-07 0)
(1.23919e-06 7.0343e-07 0)
(1.25364e-06 7.28788e-07 0)
(1.26921e-06 7.5374e-07 0)
(1.28577e-06 7.78404e-07 0)
(1.30323e-06 8.02904e-07 0)
(1.32148e-06 8.27314e-07 0)
(1.34047e-06 8.51717e-07 0)
(1.36009e-06 8.76167e-07 0)
(1.38029e-06 9.0072e-07 0)
(1.401e-06 9.25417e-07 0)
(1.42216e-06 9.50297e-07 0)
(1.44371e-06 9.75389e-07 0)
(1.4656e-06 1.00072e-06 0)
(1.48778e-06 1.02631e-06 0)
(1.5102e-06 1.05218e-06 0)
(1.5328e-06 1.07833e-06 0)
(1.55555e-06 1.10475e-06 0)
(1.57838e-06 1.13143e-06 0)
(1.60126e-06 1.15832e-06 0)
(1.62414e-06 1.18535e-06 0)
(1.18907e-06 6.90822e-07 0)
(1.20531e-06 7.15758e-07 0)
(1.22243e-06 7.40311e-07 0)
(1.24028e-06 7.64623e-07 0)
(1.25883e-06 7.88825e-07 0)
(1.27801e-06 8.12981e-07 0)
(1.29777e-06 8.37177e-07 0)
(1.31804e-06 8.61462e-07 0)
(1.33879e-06 8.85892e-07 0)
(1.35995e-06 9.10505e-07 0)
(1.3815e-06 9.35337e-07 0)
(1.40337e-06 9.60418e-07 0)
(1.42555e-06 9.85772e-07 0)
(1.44798e-06 1.01142e-06 0)
(1.47063e-06 1.03738e-06 0)
(1.49347e-06 1.06365e-06 0)
(1.51645e-06 1.09022e-06 0)
(1.53955e-06 1.11709e-06 0)
(1.56273e-06 1.14421e-06 0)
(1.58594e-06 1.1715e-06 0)
(1.13187e-06 6.73312e-07 0)
(1.15041e-06 6.98291e-07 0)
(1.16958e-06 7.22901e-07 0)
(1.18921e-06 7.4726e-07 0)
(1.20933e-06 7.71528e-07 0)
(1.22987e-06 7.95755e-07 0)
(1.25082e-06 8.2004e-07 0)
(1.27214e-06 8.44429e-07 0)
(1.2938e-06 8.6898e-07 0)
(1.31578e-06 8.93732e-07 0)
(1.33805e-06 9.18722e-07 0)
(1.36058e-06 9.4398e-07 0)
(1.38335e-06 9.69532e-07 0)
(1.40633e-06 9.954e-07 0)
(1.4295e-06 1.0216e-06 0)
(1.45284e-06 1.04814e-06 0)
(1.47633e-06 1.07502e-06 0)
(1.49992e-06 1.10224e-06 0)
(1.52361e-06 1.12977e-06 0)
(1.54732e-06 1.15757e-06 0)
(1.06842e-06 6.51284e-07 0)
(1.08969e-06 6.76667e-07 0)
(1.11136e-06 7.01697e-07 0)
(1.13318e-06 7.26428e-07 0)
(1.15527e-06 7.51067e-07 0)
(1.17756e-06 7.75643e-07 0)
(1.20007e-06 8.00275e-07 0)
(1.22278e-06 8.25004e-07 0)
(1.2457e-06 8.49897e-07 0)
(1.26881e-06 8.74992e-07 0)
(1.2921e-06 9.00333e-07 0)
(1.31556e-06 9.25949e-07 0)
(1.33919e-06 9.5187e-07 0)
(1.36298e-06 9.78121e-07 0)
(1.38691e-06 1.00472e-06 0)
(1.41097e-06 1.03169e-06 0)
(1.43516e-06 1.05903e-06 0)
(1.45944e-06 1.08676e-06 0)
(1.48379e-06 1.11488e-06 0)
(1.50816e-06 1.14338e-06 0)
(1.00009e-06 6.24315e-07 0)
(1.02443e-06 6.50512e-07 0)
(1.04893e-06 6.76377e-07 0)
(1.07325e-06 7.01848e-07 0)
(1.09762e-06 7.27203e-07 0)
(1.12194e-06 7.52444e-07 0)
(1.1463e-06 7.77711e-07 0)
(1.17068e-06 8.03047e-07 0)
(1.1951e-06 8.28526e-07 0)
(1.21958e-06 8.54191e-07 0)
(1.24412e-06 8.8009e-07 0)
(1.26874e-06 9.06259e-07 0)
(1.29343e-06 9.32732e-07 0)
(1.31821e-06 9.59537e-07 0)
(1.34308e-06 9.86702e-07 0)
(1.36803e-06 1.01425e-06 0)
(1.39306e-06 1.04221e-06 0)
(1.41816e-06 1.0706e-06 0)
(1.44332e-06 1.09946e-06 0)
(1.46848e-06 1.1288e-06 0)
(9.28022e-07 5.92562e-07 0)
(9.55645e-07 6.19954e-07 0)
(9.83227e-07 6.47043e-07 0)
(1.01027e-06 6.73601e-07 0)
(1.03716e-06 6.99995e-07 0)
(1.06374e-06 7.26202e-07 0)
(1.09016e-06 7.52383e-07 0)
(1.11641e-06 7.78583e-07 0)
(1.14254e-06 8.04886e-07 0)
(1.16858e-06 8.31344e-07 0)
(1.19455e-06 8.58008e-07 0)
(1.22049e-06 8.84922e-07 0)
(1.2464e-06 9.12125e-07 0)
(1.27232e-06 9.39652e-07 0)
(1.29825e-06 9.67539e-07 0)
(1.32421e-06 9.95819e-07 0)
(1.35021e-06 1.02453e-06 0)
(1.37624e-06 1.05371e-06 0)
(1.4023e-06 1.08343e-06 0)
(1.42836e-06 1.11372e-06 0)
(8.53388e-07 5.56083e-07 0)
(8.84417e-07 5.85056e-07 0)
(9.15231e-07 6.13743e-07 0)
(9.45158e-07 6.41744e-07 0)
(9.74706e-07 6.69494e-07 0)
(1.0037e-06 6.96966e-07 0)
(1.03234e-06 7.2433e-07 0)
(1.0606e-06 7.51648e-07 0)
(1.08859e-06 7.79011e-07 0)
(1.11632e-06 8.0648e-07 0)
(1.14386e-06 8.34115e-07 0)
(1.17124e-06 8.61966e-07 0)
(1.19849e-06 8.90079e-07 0)
(1.22565e-06 9.18497e-07 0)
(1.25275e-06 9.47261e-07 0)
(1.2798e-06 9.76415e-07 0)
(1.30684e-06 1.00601e-06 0)
(1.33388e-06 1.0361e-06 0)
(1.36092e-06 1.06677e-06 0)
(1.38795e-06 1.09808e-06 0)
(7.77315e-07 5.15206e-07 0)
(8.11759e-07 5.46121e-07 0)
(8.45841e-07 5.76709e-07 0)
(8.7872e-07 6.06479e-07 0)
(9.10997e-07 6.35869e-07 0)
(9.42502e-07 6.64891e-07 0)
(9.73443e-07 6.93702e-07 0)
(1.00383e-06 7.22388e-07 0)
(1.03377e-06 7.5104e-07 0)
(1.0633e-06 7.79734e-07 0)
(1.09249e-06 8.08536e-07 0)
(1.1214e-06 8.37507e-07 0)
(1.15007e-06 8.667e-07 0)
(1.17854e-06 8.96163e-07 0)
(1.20687e-06 9.25948e-07 0)
(1.23508e-06 9.56103e-07 0)
(1.26322e-06 9.86692e-07 0)
(1.29131e-06 1.01778e-06 0)
(1.31937e-06 1.04947e-06 0)
(1.34744e-06 1.08183e-06 0)
(7.00945e-07 4.70314e-07 0)
(7.38715e-07 5.0355e-07 0)
(7.75978e-07 5.36274e-07 0)
(8.11824e-07 5.68115e-07 0)
(8.46823e-07 5.99381e-07 0)
(8.80867e-07 6.30181e-07 0)
(9.1414e-07 6.60653e-07 0)
(9.4669e-07 6.90912e-07 0)
(9.78617e-07 7.21056e-07 0)
(1.00999e-06 7.51171e-07 0)
(1.04089e-06 7.81332e-07 0)
(1.07136e-06 8.11604e-07 0)
(1.10149e-06 8.42047e-07 0)
(1.13132e-06 8.72716e-07 0)
(1.16092e-06 9.03665e-07 0)
(1.19032e-06 9.34951e-07 0)
(1.21958e-06 9.66642e-07 0)
(1.24875e-06 9.9881e-07 0)
(1.27786e-06 1.03157e-06 0)
(1.30699e-06 1.06501e-06 0)
(6.25169e-07 4.22096e-07 0)
(6.66093e-07 4.57889e-07 0)
(7.06203e-07 4.92819e-07 0)
(7.44944e-07 5.26951e-07 0)
(7.82614e-07 5.60346e-07 0)
(8.1921e-07 5.93167e-07 0)
(8.5485e-07 6.25533e-07 0)
(8.89604e-07 6.57572e-07 0)
(9.23568e-07 6.89396e-07 0)
(9.56823e-07 7.21103e-07 0)
(9.89453e-07 7.52779e-07 0)
(1.02154e-06 7.84499e-07 0)
(1.05314e-06 8.16329e-07 0)
(1.08435e-06 8.4833e-07 0)
(1.11522e-06 8.80561e-07 0)
(1.14582e-06 9.13082e-07 0)
(1.1762e-06 9.45962e-07 0)
(1.20645e-06 9.79276e-07 0)
(1.23661e-06 1.01315e-06 0)
(1.26679e-06 1.04764e-06 0)
(5.6672e-07 3.8595e-07 0)
(6.09391e-07 4.23603e-07 0)
(6.50997e-07 4.59778e-07 0)
(6.91309e-07 4.95216e-07 0)
(7.30495e-07 5.29914e-07 0)
(7.68558e-07 5.64023e-07 0)
(8.05602e-07 5.97655e-07 0)
(8.41685e-07 6.30922e-07 0)
(8.76898e-07 6.63927e-07 0)
(9.11316e-07 6.96762e-07 0)
(9.45024e-07 7.29509e-07 0)
(9.781e-07 7.6224e-07 0)
(1.01062e-06 7.95019e-07 0)
(1.04266e-06 8.27906e-07 0)
(1.0743e-06 8.60956e-07 0)
(1.1056e-06 8.94226e-07 0)
(1.13663e-06 9.27779e-07 0)
(1.16749e-06 9.61684e-07 0)
(1.19823e-06 9.96046e-07 0)
(1.229e-06 1.03093e-06 0)
(5.27718e-07 3.64341e-07 0)
(5.70394e-07 4.01989e-07 0)
(6.12011e-07 4.38461e-07 0)
(6.52455e-07 4.74299e-07 0)
(6.91839e-07 5.09491e-07 0)
(7.30153e-07 5.44141e-07 0)
(7.67481e-07 5.7834e-07 0)
(8.03865e-07 6.12176e-07 0)
(8.39382e-07 6.45734e-07 0)
(8.74096e-07 6.79093e-07 0)
(9.08085e-07 7.12324e-07 0)
(9.41418e-07 7.45489e-07 0)
(9.7417e-07 7.78647e-07 0)
(1.00641e-06 8.1185e-07 0)
(1.03822e-06 8.45146e-07 0)
(1.06967e-06 8.78585e-07 0)
(1.10083e-06 9.1222e-07 0)
(1.1318e-06 9.46109e-07 0)
(1.16263e-06 9.80333e-07 0)
(1.19351e-06 1.01494e-06 0)
(4.9329e-07 3.43593e-07 0)
(5.35197e-07 3.8113e-07 0)
(5.76388e-07 4.17707e-07 0)
(6.1652e-07 4.53788e-07 0)
(6.55744e-07 4.89335e-07 0)
(6.93985e-07 5.24414e-07 0)
(7.31316e-07 5.59091e-07 0)
(7.67753e-07 5.93428e-07 0)
(8.03359e-07 6.27491e-07 0)
(8.38184e-07 6.6134e-07 0)
(8.72293e-07 6.95034e-07 0)
(9.05749e-07 7.28623e-07 0)
(9.3862e-07 7.62154e-07 0)
(9.70974e-07 7.95671e-07 0)
(1.00288e-06 8.29213e-07 0)
(1.03442e-06 8.62819e-07 0)
(1.06565e-06 8.9653e-07 0)
(1.09669e-06 9.30388e-07 0)
(1.12759e-06 9.64444e-07 0)
(1.15854e-06 9.98733e-07 0)
(4.62432e-07 3.23612e-07 0)
(5.03335e-07 3.60845e-07 0)
(5.43785e-07 3.97388e-07 0)
(5.83318e-07 4.33612e-07 0)
(6.22099e-07 4.6943e-07 0)
(6.60005e-07 5.04871e-07 0)
(6.97099e-07 5.39968e-07 0)
(7.33371e-07 5.74759e-07 0)
(7.68871e-07 6.09289e-07 0)
(8.03633e-07 6.43599e-07 0)
(8.37713e-07 6.77731e-07 0)
(8.71162e-07 7.11724e-07 0)
(9.04042e-07 7.45615e-07 0)
(9.36415e-07 7.79435e-07 0)
(9.68346e-07 8.13214e-07 0)
(9.99908e-07 8.46979e-07 0)
(1.03117e-06 8.80754e-07 0)
(1.06224e-06 9.1457e-07 0)
(1.09317e-06 9.48446e-07 0)
(1.12416e-06 9.8239e-07 0)
(4.3479e-07 3.04606e-07 0)
(4.74462e-07 3.41424e-07 0)
(5.13919e-07 3.77815e-07 0)
(5.5261e-07 4.14059e-07 0)
(5.90713e-07 4.50035e-07 0)
(6.28065e-07 4.85739e-07 0)
(6.64716e-07 5.21172e-07 0)
(7.00636e-07 5.56345e-07 0)
(7.3586e-07 5.9128e-07 0)
(7.70409e-07 6.26e-07 0)
(8.04324e-07 6.60532e-07 0)
(8.3765e-07 6.94899e-07 0)
(8.70439e-07 7.29124e-07 0)
(9.02745e-07 7.63228e-07 0)
(9.34628e-07 7.97229e-07 0)
(9.66156e-07 8.3114e-07 0)
(9.97401e-07 8.64971e-07 0)
(1.02844e-06 8.98734e-07 0)
(1.05939e-06 9.32402e-07 0)
(1.0904e-06 9.65992e-07 0)
(4.09831e-07 2.86566e-07 0)
(4.48149e-07 3.22863e-07 0)
(4.86447e-07 3.58999e-07 0)
(5.24129e-07 3.95166e-07 0)
(5.61376e-07 4.31209e-07 0)
(5.98e-07 4.67092e-07 0)
(6.3404e-07 5.02784e-07 0)
(6.69449e-07 5.38273e-07 0)
(7.0425e-07 5.73555e-07 0)
(7.38451e-07 6.08635e-07 0)
(7.72083e-07 6.43522e-07 0)
(8.05181e-07 6.78225e-07 0)
(8.37786e-07 7.12754e-07 0)
(8.69949e-07 7.47117e-07 0)
(9.01721e-07 7.81319e-07 0)
(9.33166e-07 8.15359e-07 0)
(9.64344e-07 8.49233e-07 0)
(9.9535e-07 8.82922e-07 0)
(1.02624e-06 9.16396e-07 0)
(1.05719e-06 9.49651e-07 0)
(3.87124e-07 2.69504e-07 0)
(4.24012e-07 3.0522e-07 0)
(4.61032e-07 3.41025e-07 0)
(4.97583e-07 3.77031e-07 0)
(5.33838e-07 4.13056e-07 0)
(5.69598e-07 4.49037e-07 0)
(6.04892e-07 4.84912e-07 0)
(6.39661e-07 5.20645e-07 0)
(6.73917e-07 5.56211e-07 0)
(7.07658e-07 5.91594e-07 0)
(7.40905e-07 6.26786e-07 0)
(7.73682e-07 6.61781e-07 0)
(8.06025e-07 6.96577e-07 0)
(8.37976e-07 7.31167e-07 0)
(8.69578e-07 7.65544e-07 0)
(9.0089e-07 7.99696e-07 0)
(9.31964e-07 8.336e-07 0)
(9.62887e-07 8.67227e-07 0)
(9.93703e-07 9.00514e-07 0)
(1.02459e-06 9.33434e-07 0)
(3.66244e-07 2.53378e-07 0)
(4.01663e-07 2.88474e-07 0)
(4.37337e-07 3.23893e-07 0)
(4.72673e-07 3.59674e-07 0)
(5.0784e-07 3.95613e-07 0)
(5.42634e-07 4.31622e-07 0)
(5.77077e-07 4.67613e-07 0)
(6.11103e-07 5.03525e-07 0)
(6.44715e-07 5.39313e-07 0)
(6.77902e-07 5.74942e-07 0)
(7.10677e-07 6.10388e-07 0)
(7.43057e-07 6.4563e-07 0)
(7.7507e-07 6.80651e-07 0)
(8.06748e-07 7.15435e-07 0)
(8.3813e-07 7.49961e-07 0)
(8.69266e-07 7.84204e-07 0)
(9.002e-07 8.18128e-07 0)
(9.31008e-07 8.51688e-07 0)
(9.61727e-07 8.84802e-07 0)
(9.92509e-07 9.17425e-07 0)
(3.46814e-07 2.38141e-07 0)
(3.8075e-07 2.72605e-07 0)
(4.15034e-07 3.07605e-07 0)
(4.49102e-07 3.43114e-07 0)
(4.83112e-07 3.78914e-07 0)
(5.16865e-07 4.14892e-07 0)
(5.50379e-07 4.50936e-07 0)
(5.83581e-07 4.86967e-07 0)
(6.16471e-07 5.22917e-07 0)
(6.49029e-07 5.58737e-07 0)
(6.81263e-07 5.94384e-07 0)
(7.13183e-07 6.29825e-07 0)
(7.44808e-07 6.6503e-07 0)
(7.76165e-07 6.9997e-07 0)
(8.07284e-07 7.34615e-07 0)
(8.38207e-07 7.68929e-07 0)
(8.6897e-07 8.02864e-07 0)
(8.99637e-07 8.36364e-07 0)
(9.30235e-07 8.69326e-07 0)
(9.6089e-07 9.01692e-07 0)
(3.28482e-07 2.23734e-07 0)
(3.60936e-07 2.57574e-07 0)
(3.93809e-07 2.92139e-07 0)
(4.26574e-07 3.27346e-07 0)
(4.59382e-07 3.62966e-07 0)
(4.92042e-07 3.98865e-07 0)
(5.24567e-07 4.34911e-07 0)
(5.56888e-07 4.71005e-07 0)
(5.88995e-07 5.07063e-07 0)
(6.20868e-07 5.43019e-07 0)
(6.52507e-07 5.78816e-07 0)
(6.83917e-07 6.14408e-07 0)
(7.15109e-07 6.49753e-07 0)
(7.46105e-07 6.84813e-07 0)
(7.76926e-07 7.19547e-07 0)
(8.07607e-07 7.53911e-07 0)
(8.38174e-07 7.87848e-07 0)
(8.68677e-07 8.21292e-07 0)
(8.99136e-07 8.54129e-07 0)
(9.29644e-07 8.86291e-07 0)
(3.10929e-07 2.10101e-07 0)
(3.41904e-07 2.4334e-07 0)
(3.73356e-07 2.7747e-07 0)
(4.04799e-07 3.12359e-07 0)
(4.36374e-07 3.4777e-07 0)
(4.67906e-07 3.83552e-07 0)
(4.99404e-07 4.19554e-07 0)
(5.308e-07 4.55663e-07 0)
(5.62084e-07 4.91778e-07 0)
(5.9323e-07 5.27819e-07 0)
(6.24236e-07 5.63716e-07 0)
(6.55098e-07 5.99412e-07 0)
(6.85825e-07 6.34855e-07 0)
(7.1643e-07 6.69996e-07 0)
(7.46928e-07 7.04789e-07 0)
(7.77343e-07 7.39181e-07 0)
(8.07696e-07 7.73111e-07 0)
(8.38019e-07 8.06507e-07 0)
(8.68325e-07 8.39249e-07 0)
(8.98671e-07 8.71266e-07 0)
(2.93851e-07 1.97195e-07 0)
(3.23354e-07 2.29868e-07 0)
(3.53378e-07 2.63571e-07 0)
(3.83488e-07 2.98137e-07 0)
(4.13813e-07 3.3332e-07 0)
(4.44194e-07 3.68953e-07 0)
(4.74641e-07 4.04874e-07 0)
(5.05088e-07 4.40954e-07 0)
(5.35522e-07 4.77079e-07 0)
(5.65916e-07 5.13156e-07 0)
(5.96263e-07 5.49106e-07 0)
(6.26556e-07 5.84859e-07 0)
(6.56797e-07 6.20356e-07 0)
(6.86991e-07 6.55542e-07 0)
(7.17149e-07 6.90362e-07 0)
(7.47284e-07 7.24761e-07 0)
(7.77409e-07 7.58675e-07 0)
(8.07542e-07 7.92031e-07 0)
(8.37685e-07 8.2471e-07 0)
(8.67862e-07 8.56642e-07 0)
(2.76958e-07 1.8497e-07 0)
(3.04988e-07 2.17119e-07 0)
(3.33581e-07 2.50413e-07 0)
(3.62351e-07 2.84657e-07 0)
(3.91417e-07 3.19598e-07 0)
(4.20639e-07 3.5506e-07 0)
(4.50023e-07 3.90865e-07 0)
(4.79509e-07 4.26876e-07 0)
(5.09083e-07 4.62968e-07 0)
(5.38715e-07 4.99037e-07 0)
(5.68394e-07 5.34994e-07 0)
(5.98108e-07 5.70761e-07 0)
(6.27854e-07 6.06271e-07 0)
(6.57631e-07 6.41464e-07 0)
(6.87441e-07 6.76281e-07 0)
(7.1729e-07 7.10666e-07 0)
(7.47181e-07 7.44553e-07 0)
(7.77119e-07 7.77875e-07 0)
(8.07097e-07 8.10522e-07 0)
(8.37104e-07 8.42429e-07 0)
(2.59963e-07 1.73411e-07 0)
(2.86513e-07 2.05076e-07 0)
(3.13669e-07 2.37982e-07 0)
(3.41096e-07 2.71906e-07 0)
(3.68901e-07 3.06596e-07 0)
(3.96963e-07 3.41862e-07 0)
(4.25287e-07 3.77522e-07 0)
(4.53816e-07 4.13427e-07 0)
(4.82534e-07 4.49444e-07 0)
(5.11409e-07 4.85461e-07 0)
(5.40426e-07 5.21381e-07 0)
(5.69568e-07 5.57119e-07 0)
(5.98825e-07 5.92603e-07 0)
(6.28188e-07 6.27767e-07 0)
(6.57654e-07 6.62551e-07 0)
(6.8722e-07 6.96898e-07 0)
(7.1688e-07 7.30748e-07 0)
(7.46625e-07 7.6404e-07 0)
(7.7644e-07 7.9668e-07 0)
(8.06285e-07 8.28618e-07 0)
(2.42567e-07 1.62482e-07 0)
(2.67621e-07 1.93708e-07 0)
(2.93332e-07 2.26243e-07 0)
(3.19415e-07 2.59854e-07 0)
(3.45966e-07 2.94282e-07 0)
(3.72879e-07 3.29334e-07 0)
(4.00158e-07 3.64819e-07 0)
(4.27748e-07 4.00584e-07 0)
(4.55631e-07 4.36487e-07 0)
(4.83772e-07 4.72411e-07 0)
(5.1215e-07 5.08253e-07 0)
(5.40742e-07 5.43922e-07 0)
(5.69532e-07 5.79343e-07 0)
(5.98502e-07 6.14445e-07 0)
(6.27642e-07 6.49167e-07 0)
(6.56938e-07 6.83455e-07 0)
(6.86378e-07 7.17253e-07 0)
(7.15941e-07 7.50514e-07 0)
(7.45602e-07 7.83166e-07 0)
(7.753e-07 8.15179e-07 0)
(2.24462e-07 1.52223e-07 0)
(2.47997e-07 1.83038e-07 0)
(2.72253e-07 2.15213e-07 0)
(2.96995e-07 2.48505e-07 0)
(3.22305e-07 2.82655e-07 0)
(3.48093e-07 3.17466e-07 0)
(3.74356e-07 3.52743e-07 0)
(4.01043e-07 3.88328e-07 0)
(4.28129e-07 4.24077e-07 0)
(4.55576e-07 4.59866e-07 0)
(4.83357e-07 4.95588e-07 0)
(5.11442e-07 5.31149e-07 0)
(5.39804e-07 5.6647e-07 0)
(5.68418e-07 6.01477e-07 0)
(5.97264e-07 6.36111e-07 0)
(6.26319e-07 6.70318e-07 0)
(6.55561e-07 7.04052e-07 0)
(6.84961e-07 7.37276e-07 0)
(7.14485e-07 7.69949e-07 0)
(7.44056e-07 8.02066e-07 0)
(2.0529e-07 1.42577e-07 0)
(2.27278e-07 1.73007e-07 0)
(2.5007e-07 2.04827e-07 0)
(2.73484e-07 2.37795e-07 0)
(2.97579e-07 2.7165e-07 0)
(3.2228e-07 3.06194e-07 0)
(3.47574e-07 3.41232e-07 0)
(3.73413e-07 3.76602e-07 0)
(3.99762e-07 4.12157e-07 0)
(4.2658e-07 4.47773e-07 0)
(4.53829e-07 4.83338e-07 0)
(4.8147e-07 5.18757e-07 0)
(5.09466e-07 5.53946e-07 0)
(5.37784e-07 5.88832e-07 0)
(5.6639e-07 6.23354e-07 0)
(5.95251e-07 6.57461e-07 0)
(6.24335e-07 6.91115e-07 0)
(6.53604e-07 7.24293e-07 0)
(6.83015e-07 7.56985e-07 0)
(7.12489e-07 7.89218e-07 0)
(1.84695e-07 1.33699e-07 0)
(2.05107e-07 1.63733e-07 0)
(2.26434e-07 1.95174e-07 0)
(2.48539e-07 2.27783e-07 0)
(2.71461e-07 2.61301e-07 0)
(2.9513e-07 2.95533e-07 0)
(3.19524e-07 3.30282e-07 0)
(3.4459e-07 3.65387e-07 0)
(3.70285e-07 4.007e-07 0)
(3.96559e-07 4.36096e-07 0)
(4.23363e-07 4.7146e-07 0)
(4.50648e-07 5.06697e-07 0)
(4.78366e-07 5.4172e-07 0)
(5.06469e-07 5.76457e-07 0)
(5.34912e-07 6.10846e-07 0)
(5.63649e-07 6.44838e-07 0)
(5.92635e-07 6.78399e-07 0)
(6.2182e-07 7.1152e-07 0)
(6.51156e-07 7.44217e-07 0)
(6.80565e-07 7.76551e-07 0)
(1.62158e-07 1.25373e-07 0)
(1.80973e-07 1.55006e-07 0)
(2.0085e-07 1.86048e-07 0)
(2.21691e-07 2.18274e-07 0)
(2.43506e-07 2.51426e-07 0)
(2.66229e-07 2.85312e-07 0)
(2.89822e-07 3.19737e-07 0)
(3.14223e-07 3.54541e-07 0)
(3.39379e-07 3.89577e-07 0)
(3.65226e-07 4.24718e-07 0)
(3.91707e-07 4.59851e-07 0)
(4.18758e-07 4.94878e-07 0)
(4.46318e-07 5.29713e-07 0)
(4.74326e-07 5.64283e-07 0)
(5.02722e-07 5.98525e-07 0)
(5.31442e-07 6.32392e-07 0)
(5.60425e-07 6.65853e-07 0)
(5.89607e-07 6.98906e-07 0)
(6.18928e-07 7.31589e-07 0)
(6.48309e-07 7.63993e-07 0)
(1.37384e-07 1.1809e-07 0)
(1.54592e-07 1.47226e-07 0)
(1.73054e-07 1.77772e-07 0)
(1.92693e-07 2.09516e-07 0)
(2.13488e-07 2.42209e-07 0)
(2.35368e-07 2.75658e-07 0)
(2.58277e-07 3.09675e-07 0)
(2.8214e-07 3.44099e-07 0)
(3.06889e-07 3.78785e-07 0)
(3.32448e-07 4.13606e-07 0)
(3.58743e-07 4.4845e-07 0)
(3.857e-07 4.83219e-07 0)
(4.13243e-07 5.17827e-07 0)
(4.41295e-07 5.522e-07 0)
(4.69781e-07 5.86277e-07 0)
(4.98619e-07 6.20011e-07 0)
(5.27728e-07 6.53373e-07 0)
(5.57018e-07 6.86362e-07 0)
(5.86413e-07 7.19018e-07 0)
(6.15814e-07 7.5144e-07 0)
(1.97682e-08 2.10038e-09 0)
(5.97135e-08 1.30569e-08 0)
(1.02172e-07 3.35327e-08 0)
(1.47682e-07 6.21567e-08 0)
(1.97117e-07 9.81517e-08 0)
(2.5075e-07 1.40236e-07 0)
(3.08798e-07 1.87038e-07 0)
(3.71161e-07 2.37123e-07 0)
(4.37655e-07 2.89039e-07 0)
(5.07931e-07 3.41595e-07 0)
(1.86203e-08 1.87402e-09 0)
(5.62869e-08 1.17157e-08 0)
(9.62214e-08 3.03068e-08 0)
(1.38841e-07 5.65359e-08 0)
(1.84942e-07 8.98168e-08 0)
(2.34778e-07 1.29071e-07 0)
(2.88569e-07 1.73108e-07 0)
(3.46224e-07 2.20661e-07 0)
(4.0753e-07 2.70335e-07 0)
(4.72121e-07 3.21188e-07 0)
(1.75884e-08 1.60736e-09 0)
(5.32123e-08 1.0359e-08 0)
(9.09128e-08 2.71879e-08 0)
(1.30969e-07 5.11809e-08 0)
(1.74091e-07 8.18977e-08 0)
(2.20492e-07 1.18424e-07 0)
(2.7041e-07 1.59722e-07 0)
(3.23806e-07 2.04702e-07 0)
(3.80602e-07 2.52097e-07 0)
(4.40401e-07 3.01235e-07 0)
(1.6644e-08 1.29803e-09 0)
(5.04113e-08 8.99749e-09 0)
(8.61345e-08 2.42351e-08 0)
(1.23966e-07 4.62398e-08 0)
(1.64541e-07 7.46787e-08 0)
(2.08016e-07 1.08763e-07 0)
(2.5461e-07 1.47567e-07 0)
(3.0426e-07 1.90115e-07 0)
(3.56977e-07 2.35208e-07 0)
(4.12279e-07 2.82263e-07 0)
(1.57611e-08 9.42988e-10 0)
(4.77968e-08 7.5833e-09 0)
(8.17048e-08 2.13121e-08 0)
(1.17521e-07 4.14642e-08 0)
(1.55814e-07 6.7786e-08 0)
(1.96688e-07 9.95901e-08 0)
(2.4036e-07 1.36048e-07 0)
(2.8674e-07 1.76295e-07 0)
(3.35933e-07 2.19233e-07 0)
(3.87303e-07 2.64271e-07 0)
(1.49324e-08 5.48051e-10 0)
(4.53466e-08 6.12587e-09 0)
(7.75834e-08 1.84346e-08 0)
(1.11573e-07 3.68865e-08 0)
(1.47827e-07 6.1285e-08 0)
(1.86391e-07 9.10157e-08 0)
(2.27474e-07 1.25323e-07 0)
(2.70945e-07 1.63409e-07 0)
(3.16993e-07 2.04277e-07 0)
(3.64885e-07 2.47294e-07 0)
(1.41412e-08 1.11392e-10 0)
(4.3009e-08 4.60387e-09 0)
(7.36711e-08 1.55412e-08 0)
(1.05964e-07 3.23932e-08 0)
(1.40351e-07 5.50052e-08 0)
(1.76827e-07 8.28197e-08 0)
(2.15597e-07 1.15144e-07 0)
(2.56489e-07 1.51234e-07 0)
(2.99753e-07 1.90188e-07 0)
(3.44582e-07 2.31305e-07 0)
(1.33813e-08 -3.61407e-10 0)
(4.07645e-08 3.02388e-09 0)
(6.99303e-08 1.26341e-08 0)
(1.0063e-07 2.79813e-08 0)
(1.33286e-07 4.89399e-08 0)
(1.67848e-07 7.49919e-08 0)
(2.04514e-07 1.05494e-07 0)
(2.43081e-07 1.39735e-07 0)
(2.83839e-07 1.76903e-07 0)
(3.25958e-07 2.16242e-07 0)
(1.26429e-08 -8.70558e-10 0)
(3.85838e-08 1.37729e-09 0)
(6.63068e-08 9.68587e-09 0)
(9.54859e-08 2.35986e-08 0)
(1.26511e-07 4.30104e-08 0)
(1.59291e-07 6.74311e-08 0)
(1.94017e-07 9.62577e-08 0)
(2.30468e-07 1.28803e-07 0)
(2.68949e-07 1.64328e-07 0)
(3.08643e-07 2.02033e-07 0)
(1.19206e-08 -1.41261e-09 0)
(3.64503e-08 -3.32824e-10 0)
(6.27693e-08 6.69381e-09 0)
(9.04803e-08 1.92346e-08 0)
(1.19943e-07 3.71961e-08 0)
(1.51034e-07 6.01053e-08 0)
(1.83938e-07 8.73895e-08 0)
(2.18428e-07 1.18377e-07 0)
(2.54809e-07 1.52391e-07 0)
(2.92303e-07 1.88606e-07 0)
(1.12084e-08 -1.98725e-09 0)
(3.43471e-08 -2.11036e-09 0)
(5.92861e-08 3.64468e-09 0)
(8.55604e-08 1.48646e-08 0)
(1.13503e-07 3.14591e-08 0)
(1.42966e-07 5.29649e-08 0)
(1.74128e-07 7.88296e-08 0)
(2.06766e-07 1.08392e-07 0)
(2.41176e-07 1.41024e-07 0)
(2.76639e-07 1.75891e-07 0)
(1.05027e-08 -2.59335e-09 0)
(3.22635e-08 -3.95542e-09 0)
(5.58354e-08 5.34764e-10 0)
(8.06875e-08 1.04812e-08 0)
(1.07127e-07 2.57869e-08 0)
(1.34991e-07 4.59895e-08 0)
(1.64453e-07 7.05483e-08 0)
(1.95306e-07 9.88095e-08 0)
(2.2783e-07 1.30181e-07 0)
(2.61376e-07 1.63832e-07 0)
(9.80096e-09 -3.23241e-09 0)
(3.01948e-08 -5.87371e-09 0)
(5.24035e-08 -2.64599e-09 0)
(7.58306e-08 6.07127e-09 0)
(1.00759e-07 2.01621e-08 0)
(1.27021e-07 3.9157e-08 0)
(1.54787e-07 6.25173e-08 0)
(1.83879e-07 8.9594e-08 0)
(2.14557e-07 1.19821e-07 0)
(2.46251e-07 1.52381e-07 0)
(9.10318e-09 -3.90979e-09 0)
(2.81437e-08 -7.8716e-09 0)
(4.89853e-08 -5.90047e-09 0)
(7.09671e-08 1.63898e-09 0)
(9.43491e-08 1.45935e-08 0)
(1.18972e-07 3.24764e-08 0)
(1.45012e-07 5.47421e-08 0)
(1.72323e-07 8.07447e-08 0)
(2.01152e-07 1.09937e-07 0)
(2.31011e-07 1.41521e-07 0)
(8.41547e-09 -4.63515e-09 0)
(2.61352e-08 -9.96633e-09 0)
(4.55988e-08 -9.24446e-09 0)
(6.60924e-08 -2.82631e-09 0)
(8.78582e-08 9.07467e-09 0)
(1.10765e-07 2.5942e-08 0)
(1.35001e-07 4.72148e-08 0)
(1.60467e-07 7.2248e-08 0)
(1.87396e-07 1.00508e-07 0)
(2.15387e-07 1.31224e-07 0)
(7.75101e-09 -5.44211e-09 0)
(2.421e-08 -1.21825e-08 0)
(4.22744e-08 -1.26717e-08 0)
(6.12071e-08 -7.28422e-09 0)
(8.12467e-08 3.66826e-09 0)
(1.02314e-07 1.96269e-08 0)
(1.24625e-07 4.00096e-08 0)
(1.48133e-07 6.4173e-08 0)
(1.73066e-07 9.15962e-08 0)
(1.99106e-07 1.21537e-07 0)
(7.15888e-09 -6.3704e-09 0)
(2.2495e-08 -1.45702e-08 0)
(3.9117e-08 -1.62151e-08 0)
(5.63559e-08 -1.17579e-08 0)
(7.44883e-08 -1.64005e-09 0)
(9.35263e-08 1.35171e-08 0)
(1.13727e-07 3.31087e-08 0)
(1.35107e-07 5.64941e-08 0)
(1.57887e-07 8.31658e-08 0)
(1.8184e-07 1.12414e-07 0)
(6.74327e-09 -7.59199e-09 0)
(2.1137e-08 -1.72059e-08 0)
(3.62279e-08 -1.9803e-08 0)
(5.15607e-08 -1.60682e-08 0)
(6.75357e-08 -6.62174e-09 0)
(8.4287e-08 7.85933e-09 0)
(1.02136e-07 2.6756e-08 0)
(1.21161e-07 4.94422e-08 0)
(1.41587e-07 7.54275e-08 0)
(1.63267e-07 1.04041e-07 0)
(7.01241e-09 -9.23305e-09 0)
(2.06839e-08 -2.0185e-08 0)
(3.39557e-08 -2.35039e-08 0)
(4.69428e-08 -2.03176e-08 0)
(6.03332e-08 -1.14005e-08 0)
(7.44134e-08 2.50513e-09 0)
(8.95715e-08 2.07835e-08 0)
(1.05938e-07 4.28311e-08 0)
(1.23738e-07 6.81819e-08 0)
(1.42893e-07 9.62066e-08 0)
(9.04186e-09 -1.2204e-08 0)
(2.14804e-08 -2.35755e-08 0)
(3.24646e-08 -2.68456e-08 0)
(4.24844e-08 -2.37742e-08 0)
(5.27969e-08 -1.51978e-08 0)
(6.37656e-08 -1.7738e-09 0)
(7.58569e-08 1.59254e-08 0)
(8.92244e-08 3.73489e-08 0)
(1.04097e-07 6.20617e-08 0)
(1.20438e-07 8.94823e-08 0)
)
;

boundaryField
{
    left
    {
        type            fixedDisplacement;
        value           uniform (0 0 0);
    }
    right
    {
        type            solidTraction;
        tractionSeries  
{
        file            "$FOAM_CASE/constant/timeVsTraction";
        outOfBounds     clamp;
}
        pressure        uniform 0;
        secondOrder     false;
        setEffectiveTraction false;
        relaxationFactor 1;
        value           nonuniform List<vector> 
30
(
(1.63553e-06 1.19883e-06 3.4308e-21)
(1.5974e-06 1.18512e-06 3.44757e-21)
(1.55893e-06 1.17151e-06 3.49216e-21)
(1.52002e-06 1.15774e-06 3.56453e-21)
(1.48067e-06 1.14366e-06 3.66336e-21)
(1.44097e-06 1.12912e-06 3.78737e-21)
(1.40106e-06 1.11404e-06 3.93458e-21)
(1.36111e-06 1.09838e-06 4.10301e-21)
(1.32129e-06 1.08212e-06 4.29031e-21)
(1.28177e-06 1.06533e-06 4.4938e-21)
(1.2444e-06 1.0488e-06 4.61662e-21)
(1.20896e-06 1.03256e-06 4.63325e-21)
(1.17403e-06 1.01607e-06 4.64502e-21)
(1.13967e-06 9.99424e-07 4.65217e-21)
(1.10591e-06 9.82733e-07 4.65375e-21)
(1.07269e-06 9.66106e-07 4.64999e-21)
(1.04004e-06 9.49605e-07 4.64168e-21)
(1.00791e-06 9.33349e-07 4.6289e-21)
(9.76228e-07 9.17408e-07 4.61246e-21)
(9.44907e-07 9.01846e-07 4.59301e-21)
(9.1385e-07 8.86711e-07 4.5714e-21)
(8.82954e-07 8.72033e-07 4.54856e-21)
(8.52109e-07 8.57823e-07 4.52564e-21)
(8.21207e-07 8.44068e-07 4.50372e-21)
(7.90146e-07 8.30735e-07 4.48361e-21)
(7.5884e-07 8.17768e-07 4.4665e-21)
(7.27224e-07 8.05089e-07 4.4531e-21)