/*--------------------------------*- C++ -*----------------------------------*\
  =========                 |
  \\      /  F ield         | OpenFOAM: The Open Source CFD Toolbox
   \\    /   O peration     | Website:  https://openfoam.org
    \\  /    A nd           | Version:  9
     \\/     M anipulation  |
\*---------------------------------------------------------------------------*/
FoamFile
{
    format      ascii;
    class       volSymmTensorField;
    location    "1";
    object      epsilon;
}
// * * * * * * * * * * * * * * * * * * * * * * * * * * * * * * * * * * * * * //

dimensions      [0 0 0 0 0 0 0];

internalField   nonuniform List<symmTensor> 
1000
(
(4.20131e-07 -5.46991e-07 -5.0772e-22 8.53782e-08 3.64466e-22 1.54477e-37)
(5.80415e-07 -4.21949e-07 -8.69372e-22 -1.03834e-07 4.86904e-22 0)
(6.5908e-07 -3.23178e-07 1.01345e-21 -1.94406e-07 -1.94345e-22 0)
(7.03029e-07 -2.48682e-07 2.60339e-22 -2.57722e-07 -1.85949e-22 0)
(7.24235e-07 -1.88778e-07 -1.10022e-21 -2.92911e-07 8.07246e-23 0)
(7.31348e-07 -1.41932e-07 -1.191e-22 -3.15351e-07 1.30591e-22 0)
(7.30499e-07 -1.03893e-07 -9.99103e-22 -3.27516e-07 -5.36313e-22 0)
(7.23872e-07 -7.36227e-08 6.8572e-22 -3.33705e-07 3.20566e-22 0)
(7.15212e-07 -4.85156e-08 -3.53543e-22 -3.35951e-07 -4.02316e-22 0)
(7.02736e-07 -2.75271e-08 0 -3.36294e-07 0 0)
(5.68952e-07 -6.08289e-07 -8.31197e-22 2.40097e-08 3.07965e-23 5.16941e-38)
(6.93357e-07 -4.35529e-07 0 -1.44393e-07 0 0)
(7.46761e-07 -3.10729e-07 8.10799e-22 -2.19067e-07 3.86358e-22 0)
(7.71367e-07 -2.2108e-07 -1.39121e-21 -2.71796e-07 -7.42063e-22 0)
(7.77518e-07 -1.52742e-07 -5.9129e-22 -2.98519e-07 -3.56597e-22 0)
(7.72726e-07 -1.01613e-07 4.11478e-22 -3.15035e-07 4.19734e-22 0)
(7.62233e-07 -6.17261e-08 4.60808e-22 -3.22503e-07 3.08866e-22 0)
(7.48056e-07 -3.13745e-08 1.08343e-21 -3.25826e-07 6.3244e-22 0)
(7.32123e-07 -6.8328e-09 0 -3.24762e-07 0 0)
(7.15296e-07 1.28969e-08 0 -3.2528e-07 0 0)
(7.3579e-07 -6.47061e-07 0 -5.73213e-08 0 0)
(8.10342e-07 -4.34991e-07 0 -1.9022e-07 0 0)
(8.30898e-07 -2.89182e-07 7.72787e-22 -2.41025e-07 3.99325e-22 0)
(8.31576e-07 -1.87669e-07 -2.32058e-22 -2.78418e-07 8.20691e-23 0)
(8.1995e-07 -1.13369e-07 -1.13622e-23 -2.9385e-07 5.06561e-24 0)
(8.01639e-07 -5.98209e-08 -3.83651e-22 -3.0276e-07 -3.9711e-22 0)
(7.80647e-07 -1.96304e-08 5.23927e-22 -3.04532e-07 2.42294e-22 0)
(7.58328e-07 9.75083e-09 -3.88977e-22 -3.04258e-07 -2.87293e-22 0)
(7.35703e-07 3.25461e-08 -3.13641e-23 -3.0011e-07 5.41527e-23 0)
(7.13898e-07 5.11372e-08 -8.21284e-23 -2.99722e-07 -3.53714e-23 0)
(9.14384e-07 -6.57745e-07 -4.49853e-22 -1.54021e-07 6.43283e-24 -1.18416e-38)
(9.28437e-07 -4.18612e-07 4.43196e-22 -2.39586e-07 -4.58321e-23 0)
(9.10151e-07 -2.58885e-07 -3.53183e-22 -2.59867e-07 -1.99317e-22 0)
(8.83109e-07 -1.50078e-07 -2.23964e-22 -2.77893e-07 4.34614e-23 0)
(8.51491e-07 -7.30757e-08 4.00571e-22 -2.79747e-07 3.87313e-22 0)
(8.18543e-07 -1.93938e-08 -4.82261e-22 -2.79903e-07 -3.18924e-22 0)
(7.86608e-07 1.93906e-08 -4.1664e-22 -2.75603e-07 -2.96509e-22 0)
(7.56265e-07 4.67142e-08 -9.28584e-22 -2.71677e-07 -6.79372e-22 0)
(7.2739e-07 6.68341e-08 -1.33137e-22 -2.65005e-07 -1.62568e-22 0)
(7.01278e-07 8.32499e-08 2.27453e-22 -2.63439e-07 2.01164e-22 0)
(1.09592e-06 -6.35429e-07 -2.3061e-22 -2.59822e-07 -3.89054e-23 -1.39228e-37)
(1.04383e-06 -3.84183e-07 2.31781e-26 -2.90224e-07 1.10096e-27 0)
(9.82561e-07 -2.19393e-07 -1.14347e-21 -2.74817e-07 -5.60253e-22 0)
(9.25082e-07 -1.09137e-07 1.03993e-22 -2.70294e-07 -3.948e-24 0)
(8.71955e-07 -3.36636e-08 -1.45707e-22 -2.56818e-07 1.54192e-23 0)
(8.23787e-07 1.71689e-08 3.47235e-22 -2.47473e-07 3.20782e-22 0)
(7.80994e-07 5.23914e-08 -3.89343e-23 -2.37048e-07 1.15104e-23 0)
(7.43023e-07 7.61814e-08 3.66487e-22 -2.29677e-07 2.4491e-22 0)
(7.08747e-07 9.25585e-08 -7.93036e-23 -2.21214e-07 -1.69665e-22 0)
(6.78931e-07 1.05916e-07 -1.44957e-22 -2.18727e-07 -1.17069e-22 0)
(1.27424e-06 -5.78824e-07 -7.62152e-22 -3.67718e-07 -1.0803e-23 -3.32279e-37)
(1.15375e-06 -3.30232e-07 2.11377e-26 -3.38794e-07 4.45938e-27 0)
(1.0469e-06 -1.70151e-07 -1.14295e-26 -2.84068e-07 -1.76867e-27 0)
(9.57175e-07 -6.56334e-08 9.19035e-23 -2.5512e-07 1.12727e-23 0)
(8.81799e-07 3.1476e-09 -4.94799e-22 -2.25612e-07 -3.00845e-22 0)
(8.1856e-07 4.75763e-08 5.64422e-24 -2.06941e-07 -5.09491e-26 0)
(7.65546e-07 7.68828e-08 3.68269e-22 -1.91018e-07 2.49361e-22 0)
(7.20793e-07 9.56394e-08 7.83064e-22 -1.8089e-07 5.72624e-22 0)
(6.82109e-07 1.07398e-07 1.41851e-22 -1.71524e-07 1.04069e-22 0)
(6.49366e-07 1.16992e-07 -2.47685e-22 -1.68539e-07 -1.95023e-22 0)
(1.43751e-06 -4.84393e-07 1.17048e-21 -4.69138e-07 6.59372e-23 1.16707e-36)
(1.25181e-06 -2.52757e-07 3.31606e-22 -3.80192e-07 1.32919e-22 0)
(1.09764e-06 -1.09682e-07 3.50044e-22 -2.83537e-07 1.58979e-22 0)
(9.75667e-07 -2.00293e-08 -7.55472e-23 -2.30226e-07 -2.25314e-23 0)
(8.79274e-07 3.56564e-08 3.57683e-22 -1.86005e-07 2.39284e-22 0)
(8.02788e-07 6.95273e-08 -3.2919e-22 -1.59766e-07 -2.26716e-22 0)
(7.41475e-07 9.04626e-08 9.37247e-23 -1.4011e-07 5.7711e-24 0)
(6.9161e-07 1.02815e-07 -2.93947e-22 -1.28618e-07 -1.926e-22 0)
(6.50001e-07 1.09417e-07 -2.0351e-23 -1.19568e-07 2.5396e-24 0)
(6.15322e-07 1.1489e-07 -1.48957e-22 -1.16731e-07 -9.71954e-23 0)
(1.59039e-06 -3.51844e-07 1.73686e-21 -5.56646e-07 9.63791e-23 6.8523e-38)
(1.33446e-06 -1.47857e-07 -8.82993e-22 -4.0424e-07 -3.17734e-22 0)
(1.13114e-06 -3.71801e-08 6.84393e-24 -2.64961e-07 3.75759e-24 0)
(9.79515e-07 2.50214e-08 1.1048e-22 -1.91743e-07 5.59912e-23 0)
(8.65561e-07 6.03286e-08 8.17943e-22 -1.37658e-07 4.06693e-22 0)
(7.79452e-07 7.97771e-08 -4.83966e-23 -1.08062e-07 -1.51667e-23 0)
(7.12858e-07 9.0748e-08 1.20495e-27 -8.79534e-08 2.40276e-28 0)
(6.60217e-07 9.6282e-08 -2.87636e-22 -7.72982e-08 -1.51674e-22 0)
(6.17413e-07 9.81068e-08 6.98812e-24 -7.00411e-08 3.06955e-25 0)
(5.8192e-07 9.98479e-08 2.15336e-23 -6.80998e-08 1.05992e-23 0)
(1.70855e-06 -1.64492e-07 8.22319e-22 -6.08131e-07 -6.86638e-24 -2.08624e-37)
(1.3749e-06 -1.49363e-08 -9.72975e-22 -3.84359e-07 -4.08321e-22 0)
(1.12495e-06 3.7784e-08 1.01685e-22 -2.10947e-07 8.66608e-23 0)
(9.54535e-07 5.75316e-08 9.55786e-23 -1.31876e-07 7.55231e-23 0)
(8.34643e-07 6.74201e-08 -3.99874e-23 -8.04664e-08 -2.44137e-23 0)
(7.47261e-07 7.08601e-08 3.18609e-22 -5.55892e-08 1.15725e-22 0)
(6.81171e-07 7.25507e-08 1.74292e-23 -4.01772e-08 5.36586e-24 0)
(6.29309e-07 7.25729e-08 5.13911e-22 -3.31318e-08 1.9656e-22 0)
(5.8743e-07 7.13426e-08 1.13459e-22 -2.90197e-08 4.38487e-23 0)
(5.52254e-07 7.07136e-08 6.35701e-23 -2.84937e-08 2.54644e-23 0)
(1.81449e-06 1.47007e-07 5.04007e-22 -5.61146e-07 6.53001e-23 -3.6807e-37)
(1.3404e-06 1.64347e-07 -7.46757e-23 -2.52625e-07 -1.29089e-22 0)
(1.07793e-06 1.08479e-07 3.37881e-22 -1.05668e-07 1.43354e-22 0)
(9.14314e-07 7.03937e-08 1.73993e-23 -5.208e-08 2.43831e-23 0)
(8.04275e-07 5.55202e-08 5.94517e-28 -2.4491e-08 5.53043e-28 0)
(7.232e-07 4.73042e-08 3.23137e-22 -1.34058e-08 5.79799e-23 0)
(6.61598e-07 4.43571e-08 5.01917e-24 -7.53191e-09 1.48249e-24 0)
(6.12152e-07 4.26627e-08 2.47628e-22 -5.55193e-09 4.68465e-23 0)
(5.71716e-07 4.13284e-08 -2.74382e-24 -4.69049e-09 -2.0332e-25 0)
(5.36773e-07 4.04181e-08 -4.16213e-24 -5.03119e-09 -8.74862e-25 0)
(-1.96097e-09 1.2609e-09 -3.37113e-22 -3.68922e-10 3.6868e-22 -1.42095e-38)
(1.82605e-09 -4.57328e-09 -1.85119e-23 -5.50068e-10 2.45941e-22 -2.14726e-38)
(2.08485e-08 -1.43586e-08 -2.36286e-22 -9.78943e-09 -1.24073e-22 1.34964e-37)
(5.09325e-08 -2.22023e-08 0 -2.35755e-08 0 0)
(8.56401e-08 -2.70576e-08 -3.12832e-23 -3.892e-08 -1.91653e-22 -1.67263e-38)
(1.21947e-07 -2.9818e-08 -3.24115e-22 -5.4707e-08 -2.39288e-23 4.36751e-38)
(1.57442e-07 -3.09096e-08 7.29353e-23 -6.99586e-08 1.66481e-22 -1.45287e-38)
(1.91287e-07 -3.09967e-08 -2.15055e-22 -8.4363e-08 5.27123e-23 -8.75221e-38)
(2.22352e-07 -3.01881e-08 1.74173e-22 -9.76222e-08 8.86379e-23 6.39137e-38)
(2.51135e-07 -2.95482e-08 3.27763e-22 -1.09565e-07 4.08551e-23 8.89752e-38)
(3.48902e-09 -4.89029e-09 -3.482e-22 -1.72642e-09 2.43969e-22 3.84922e-37)
(2.23196e-08 -2.65763e-08 2.61649e-22 -1.41191e-10 2.87137e-22 0)
(5.67918e-08 -5.05477e-08 -2.44873e-22 -1.4532e-08 -2.46082e-22 0)
(9.5196e-08 -6.88843e-08 2.47915e-24 -3.39368e-08 -2.03789e-22 0)
(1.33741e-07 -8.02029e-08 0 -5.3312e-08 0 0)
(1.70323e-07 -8.6543e-08 -3.71719e-22 -7.15634e-08 -5.51323e-23 0)
(2.04041e-07 -8.88553e-08 6.2447e-23 -8.79974e-08 3.1992e-22 0)
(2.35021e-07 -8.8712e-08 4.66662e-24 -1.02695e-07 1.72099e-23 0)
(2.62339e-07 -8.62941e-08 -1.99942e-22 -1.15617e-07 -5.81607e-22 0)
(2.87692e-07 -8.43297e-08 1.46816e-22 -1.26606e-07 2.28046e-23 0)
(5.54264e-09 -2.40834e-08 -1.66747e-22 6.90745e-09 -4.07843e-23 -9.0389e-39)
(4.16346e-08 -6.64055e-08 2.67551e-22 2.42956e-09 2.83637e-22 0)
(9.03555e-08 -9.61495e-08 2.80005e-22 -1.99607e-08 5.86026e-23 0)
(1.38262e-07 -1.16084e-07 1.45098e-23 -4.77166e-08 -1.96535e-22 0)
(1.82361e-07 -1.27115e-07 0 -7.33536e-08 0 0)
(2.21179e-07 -1.32306e-07 -4.16002e-22 -9.58391e-08 -1.08553e-22 0)
(2.54903e-07 -1.32974e-07 -5.67438e-22 -1.14743e-07 -1.58865e-22 0)
(2.84544e-07 -1.30866e-07 3.75304e-22 -1.30658e-07 2.2946e-22 0)
(3.0922e-07 -1.26275e-07 2.27384e-24 -1.43656e-07 7.32594e-24 0)
(3.32208e-07 -1.22369e-07 -3.37551e-22 -1.54223e-07 -2.13372e-22 0)
(8.60158e-09 -5.42487e-08 4.35549e-22 2.7553e-08 -1.56085e-22 3.38243e-37)
(6.81161e-08 -1.14216e-07 6.61059e-23 5.11981e-09 -2.38281e-22 0)
(1.30083e-07 -1.45525e-07 3.07709e-22 -2.72863e-08 6.00987e-23 0)
(1.86622e-07 -1.63068e-07 0 -6.32661e-08 0 0)
(2.35604e-07 -1.70378e-07 -5.24693e-22 -9.4653e-08 1.95363e-22 0)
(2.76579e-07 -1.71747e-07 5.95414e-24 -1.21199e-07 4.83471e-22 0)
(3.10486e-07 -1.68855e-07 -2.58997e-23 -1.42652e-07 -2.59692e-22 0)
(3.39111e-07 -1.63447e-07 -7.48358e-23 -1.60037e-07 -4.00817e-22 0)
(3.61481e-07 -1.55947e-07 1.71309e-22 -1.73491e-07 5.55858e-23 0)
(3.82493e-07 -1.4956e-07 3.19749e-22 -1.84059e-07 1.19931e-22 0)
(1.66284e-08 -9.69072e-08 -5.8823e-22 5.63021e-08 3.88632e-22 7.50509e-37)
(1.05448e-07 -1.66286e-07 -5.40443e-22 4.56346e-09 3.62133e-22 0)
(1.80708e-07 -1.9446e-07 -3.2762e-22 -4.1418e-08 -9.63276e-23 0)
(2.44587e-07 -2.06157e-07 -8.86715e-23 -8.63087e-08 3.54456e-22 0)
(2.9681e-07 -2.06974e-07 -3.48506e-24 -1.22904e-07 2.18616e-23 0)
(3.38589e-07 -2.02415e-07 5.05435e-22 -1.52706e-07 -1.35555e-22 0)
(3.71667e-07 -1.94437e-07 2.20095e-22 -1.75915e-07 5.77554e-23 0)
(3.98528e-07 -1.84641e-07 0 -1.94087e-07 0 0)
(4.18144e-07 -1.73652e-07 -2.34876e-22 -2.07465e-07 -3.09002e-22 0)
(4.36829e-07 -1.64266e-07 9.3729e-23 -2.17623e-07 2.27552e-23 0)
(3.42348e-08 -1.53015e-07 -4.43151e-22 8.86758e-08 -5.71842e-22 -1.18609e-36)
(1.5491e-07 -2.19106e-07 2.20745e-22 6.28706e-10 -4.29623e-22 0)
(2.42748e-07 -2.38498e-07 -2.70453e-22 -6.08273e-08 -2.9179e-22 0)
(3.12122e-07 -2.41349e-07 5.961e-23 -1.14438e-07 -1.65038e-22 0)
(3.65562e-07 -2.33924e-07 5.72433e-22 -1.5519e-07 1.91453e-22 0)
(4.06371e-07 -2.22378e-07 -5.52407e-22 -1.87084e-07 6.14664e-23 0)
(4.37223e-07 -2.08671e-07 -6.37236e-25 -2.11026e-07 1.46499e-23 0)
(4.61202e-07 -1.94109e-07 -4.30082e-22 -2.2913e-07 -2.96168e-22 0)
(4.77352e-07 -1.79526e-07 9.01868e-25 -2.4188e-07 5.74819e-24 0)
(4.93035e-07 -1.66994e-07 -4.69655e-22 -2.51135e-07 -2.14668e-22 0)
(6.65825e-08 -2.21969e-07 2.08642e-22 1.17806e-07 -3.3502e-22 2.39308e-38)
(2.16928e-07 -2.70559e-07 1.22187e-23 -8.06171e-09 -1.84803e-23 0)
(3.1506e-07 -2.75001e-07 -8.95288e-27 -8.49772e-08 1.5256e-26 0)
(3.87448e-07 -2.6602e-07 -5.84651e-22 -1.46507e-07 -4.09632e-22 0)
(4.39849e-07 -2.48976e-07 -9.94742e-23 -1.90196e-07 2.65359e-22 0)
(4.7774e-07 -2.29884e-07 -5.35858e-22 -2.22963e-07 -2.18001e-22 0)
(5.04838e-07 -2.10296e-07 9.63246e-22 -2.46533e-07 4.29305e-22 0)
(5.2467e-07 -1.91051e-07 -1.25799e-25 -2.63661e-07 1.15036e-23 0)
(5.36586e-07 -1.73119e-07 1.89609e-22 -2.75125e-07 -7.60541e-25 0)
(5.48422e-07 -1.57557e-07 -2.56891e-22 -2.82954e-07 -1.22312e-22 0)
(1.18459e-07 -3.01208e-07 1.18227e-21 1.37218e-07 -3.92608e-22 1.41347e-36)
(2.91298e-07 -3.18627e-07 3.14697e-22 -2.21118e-08 -3.7544e-22 0)
(3.95353e-07 -3.02228e-07 -1.21459e-22 -1.118e-07 1.61565e-22 0)
(4.67418e-07 -2.78761e-07 7.42741e-23 -1.79268e-07 -1.15536e-22 0)
(5.16282e-07 -2.51165e-07 6.62382e-27 -2.24267e-07 -1.29741e-26 0)
(5.49302e-07 -2.24435e-07 6.22013e-22 -2.56598e-07 5.26474e-23 0)
(5.7123e-07 -1.99274e-07 4.67887e-23 -2.78816e-07 -2.02371e-22 0)
(5.85764e-07 -1.75878e-07 -1.56804e-23 -2.94134e-07 1.66523e-22 0)
(5.92895e-07 -1.5518e-07 2.14785e-24 -3.03998e-07 8.31475e-23 0)
(6.00032e-07 -1.36999e-07 1.96302e-22 -3.09851e-07 1.83387e-22 0)
(1.93655e-07 -3.86094e-07 5.27708e-22 1.40846e-07 4.63648e-22 -1.29624e-36)
(3.77485e-07 -3.61316e-07 -1.0195e-22 -4.25091e-08 6.88332e-22 0)
(4.8115e-07 -3.19374e-07 -1.17385e-26 -1.39895e-07 1.22886e-26 0)
(5.48737e-07 -2.79431e-07 8.0477e-22 -2.10227e-07 1.88853e-22 0)
(5.9132e-07 -2.4079e-07 6.14534e-22 -2.5447e-07 3.06714e-22 0)
(6.1752e-07 -2.06708e-07 5.5442e-22 -2.84992e-07 2.76802e-22 0)
(6.32938e-07 -1.76545e-07 -6.06757e-23 -3.048e-07 1.73931e-22 0)
(6.41123e-07 -1.49869e-07 -6.67585e-22 -3.17741e-07 -3.72981e-22 0)
(6.43076e-07 -1.27116e-07 4.09929e-22 -3.25523e-07 9.71521e-23 0)
(6.44968e-07 -1.06834e-07 1.83836e-22 -3.29909e-07 1.09238e-22 0)
(2.94237e-07 -4.7046e-07 -4.9802e-23 1.2436e-07 4.4006e-23 1.41238e-39)
(4.74376e-07 -3.96519e-07 -2.04028e-22 -6.96899e-08 1.50452e-22 0)
(5.69801e-07 -3.26297e-07 -3.95122e-22 -1.67746e-07 -1.84159e-22 0)
(6.2807e-07 -2.68909e-07 1.71189e-21 -2.36871e-07 4.00915e-22 0)
(6.61377e-07 -2.19291e-07 1.04845e-23 -2.77907e-07 -1.19048e-23 0)
(6.78802e-07 -1.7839e-07 -5.45221e-22 -3.05063e-07 -3.09503e-22 0)
(6.8645e-07 -1.44003e-07 -5.8426e-22 -3.2155e-07 -9.20717e-23 0)
(6.8738e-07 -1.15014e-07 -2.20122e-22 -3.31186e-07 -1.31639e-22 0)
(6.84355e-07 -9.14753e-08 2.44594e-23 -3.3738e-07 -1.82145e-22 0)
(6.7935e-07 -7.11446e-08 1.10077e-22 -3.3792e-07 2.30298e-22 0)
(2.7704e-07 -2.74163e-08 2.53649e-22 -1.2066e-07 1.55276e-22 1.00878e-37)
(2.99631e-07 -2.44705e-08 2.02361e-22 -1.29918e-07 2.94963e-23 4.21632e-38)
(3.20377e-07 -2.19034e-08 -1.60506e-22 -1.38503e-07 -1.89762e-22 -1.58286e-37)
(3.39035e-07 -1.95736e-08 -9.20194e-23 -1.46272e-07 -6.77837e-23 -2.48214e-39)
(3.55867e-07 -1.7415e-08 -2.93346e-22 -1.53263e-07 -4.95884e-23 1.07885e-37)
(3.70954e-07 -1.54806e-08 0 -1.59563e-07 0 0)
(3.84478e-07 -1.37082e-08 0 -1.65204e-07 0 0)
(3.96536e-07 -1.21086e-08 1.08451e-22 -1.7025e-07 6.76415e-23 -1.91355e-39)
(4.07267e-07 -1.06429e-08 9.75455e-23 -1.74743e-07 1.82205e-23 1.3477e-38)
(4.16754e-07 -9.29966e-09 2.28589e-22 -1.78725e-07 1.36942e-22 -6.57313e-39)
(4.2509e-07 -8.05048e-09 2.95707e-22 -1.8223e-07 5.63789e-23 1.26364e-37)
(4.32335e-07 -6.87682e-09 -9.92708e-23 -1.85285e-07 -1.90144e-23 1.42778e-38)
(4.38538e-07 -5.75588e-09 3.00202e-22 -1.8791e-07 5.75786e-23 1.30366e-37)
(4.43733e-07 -4.67082e-09 -3.66843e-22 -1.90118e-07 -2.13411e-22 -9.70373e-39)
(4.47931e-07 -3.60789e-09 2.17418e-23 -1.91917e-07 5.25002e-23 -4.07064e-38)
(4.51157e-07 -2.5655e-09 -2.16342e-30 -1.93314e-07 -1.26212e-30 -2.31685e-55)
(4.53399e-07 -1.5585e-09 -1.25386e-22 -1.94303e-07 -7.34514e-23 -6.08392e-40)
(4.5474e-07 -6.44002e-10 1.2591e-22 -1.949e-07 7.41072e-23 -4.4048e-40)
(4.55172e-07 5.71263e-11 6.26931e-23 -1.95083e-07 -9.12118e-23 -2.1367e-37)
(4.55026e-07 2.24863e-10 -2.94655e-22 -1.94818e-07 -2.61567e-22 -5.70591e-37)
(3.08545e-07 -7.85344e-08 3.58942e-22 -1.36492e-07 4.41333e-22 0)
(3.25296e-07 -7.07049e-08 2.32829e-22 -1.43569e-07 6.37861e-23 0)
(3.41296e-07 -6.37951e-08 1.75303e-23 -1.50078e-07 -1.00816e-22 0)
(3.55659e-07 -5.73501e-08 5.28708e-22 -1.5605e-07 4.76484e-22 0)
(3.68882e-07 -5.13143e-08 -1.01627e-22 -1.61384e-07 -2.40062e-23 0)
(3.80823e-07 -4.58549e-08 -4.31136e-22 -1.66278e-07 -4.36778e-22 0)
(3.91696e-07 -4.08058e-08 2.19887e-22 -1.70673e-07 8.134e-23 0)
(4.01488e-07 -3.6217e-08 0 -1.74666e-07 0 0)
(4.10326e-07 -3.19853e-08 1.04777e-22 -1.7826e-07 3.71021e-23 0)
(4.18236e-07 -2.80902e-08 2.15421e-22 -1.81499e-07 8.30047e-23 0)
(4.25294e-07 -2.44596e-08 6.46094e-22 -1.84399e-07 3.33677e-22 0)
(4.31537e-07 -2.105e-08 2.91594e-24 -1.86983e-07 3.33207e-24 0)
(4.37008e-07 -1.78059e-08 8.3849e-23 -1.89261e-07 -6.50872e-23 0)
(4.41737e-07 -1.46878e-08 1.23331e-22 -1.91242e-07 1.41017e-22 0)
(4.45744e-07 -1.1665e-08 1.2653e-22 -1.92919e-07 1.45049e-22 0)
(4.49051e-07 -8.73618e-09 -1.25347e-22 -1.94275e-07 -1.44425e-22 0)
(4.51639e-07 -5.93616e-09 -1.26061e-22 -1.95264e-07 -1.46067e-22 0)
(4.53537e-07 -3.38629e-09 -2.53168e-22 -1.95806e-07 -2.9507e-22 0)
(4.54596e-07 -1.27215e-09 -1.91562e-24 -1.95714e-07 -2.0959e-24 0)
(4.54862e-07 -1.42455e-10 -3.19324e-23 -1.94683e-07 1.83623e-22 7.08145e-38)
(3.48268e-07 -1.13685e-07 9.82198e-23 -1.62361e-07 1.34366e-22 0)
(3.58826e-07 -1.03009e-07 1.34052e-22 -1.66575e-07 4.78182e-23 0)
(3.69724e-07 -9.34184e-08 -3.11383e-22 -1.70104e-07 -3.92083e-22 0)
(3.79295e-07 -8.45131e-08 -2.79438e-23 -1.73445e-07 7.15592e-23 0)
(3.88456e-07 -7.60377e-08 5.68151e-22 -1.76304e-07 4.72827e-22 0)
(3.96767e-07 -6.83346e-08 -4.51315e-22 -1.79034e-07 -4.30702e-22 0)
(4.0455e-07 -6.11351e-08 -1.20147e-22 -1.81498e-07 -1.39088e-22 0)
(4.11653e-07 -5.4552e-08 2.29639e-22 -1.83821e-07 2.6107e-22 0)
(4.18216e-07 -4.84436e-08 1.02788e-24 -1.85975e-07 -1.69417e-22 0)
(4.24198e-07 -4.28018e-08 -2.43005e-22 -1.87998e-07 -2.73108e-22 0)
(4.29664e-07 -3.75371e-08 2.32862e-22 -1.89891e-07 2.60763e-22 0)
(4.34615e-07 -3.26021e-08 3.59837e-22 -1.91665e-07 4.03172e-22 0)
(4.39084e-07 -2.793e-08 2.75337e-24 -1.93315e-07 3.033e-24 0)
(4.43083e-07 -2.34729e-08 -1.23215e-22 -1.94834e-07 -1.38851e-22 0)
(4.46616e-07 -1.91894e-08 1.21978e-22 -1.96191e-07 1.38289e-22 0)
(4.49685e-07 -1.50634e-08 1.79815e-29 -1.97333e-07 2.00154e-29 0)
(4.52227e-07 -1.11048e-08 -1.25679e-22 -1.9815e-07 -1.44285e-22 0)
(4.54208e-07 -7.37578e-09 1.70518e-23 -1.98463e-07 1.0419e-22 0)
(4.55308e-07 -3.9909e-09 -4.13117e-22 -1.97903e-07 -5.33051e-23 0)
(4.55499e-07 -1.09927e-09 1.17306e-25 -1.96047e-07 2.40017e-25 -1.93792e-43)
(3.93836e-07 -1.38441e-07 0 -1.90611e-07 0 0)
(3.97972e-07 -1.26207e-07 1.43319e-22 -1.9219e-07 5.22039e-23 0)
(4.03695e-07 -1.14918e-07 1.12165e-22 -1.92895e-07 1.28168e-22 0)
(4.08259e-07 -1.04614e-07 1.23106e-22 -1.93769e-07 1.42494e-22 0)
(4.13147e-07 -9.45999e-08 0 -1.94203e-07 0 0)
(4.17549e-07 -8.54952e-08 1.66492e-23 -1.94775e-07 -7.18891e-23 0)
(4.21968e-07 -7.68823e-08 -3.68462e-22 -1.95265e-07 -2.26187e-22 0)
(4.2609e-07 -6.89682e-08 -2.35151e-22 -1.9584e-07 -2.55417e-22 0)
(4.30095e-07 -6.1575e-08 -1.32195e-22 -1.96453e-07 -6.10074e-23 0)
(4.33868e-07 -5.47205e-08 -7.41917e-25 -1.97141e-07 1.63263e-22 0)
(4.37466e-07 -4.83082e-08 -1.16267e-22 -1.97893e-07 3.58144e-23 0)
(4.40854e-07 -4.22948e-08 2.43244e-22 -1.98708e-07 1.04331e-22 0)
(4.44045e-07 -3.66095e-08 2.309e-22 -1.9957e-07 1.15618e-23 0)
(4.47025e-07 -3.11989e-08 5.64014e-24 -2.00454e-07 8.73002e-23 0)
(4.49774e-07 -2.60106e-08 9.9859e-24 -2.0131e-07 9.25546e-23 0)
(4.52266e-07 -2.10044e-08 -1.24257e-22 -2.02056e-07 -1.39745e-22 0)
(4.54394e-07 -1.61543e-08 -2.65388e-29 -2.02547e-07 -2.98642e-29 0)
(4.56097e-07 -1.14289e-08 2.65011e-22 -2.02571e-07 3.88505e-22 0)
(4.56969e-07 -6.86658e-09 -1.34999e-23 -2.01716e-07 -1.02156e-22 0)
(4.57022e-07 -2.13676e-09 -2.97251e-22 -1.99547e-07 -5.18031e-22 -9.49303e-37)
(4.43256e-07 -1.51251e-07 1.08861e-23 -2.22152e-07 1.78982e-22 0)
(4.40733e-07 -1.38961e-07 -1.5573e-22 -2.21033e-07 -6.80387e-23 0)
(4.41252e-07 -1.2698e-07 -3.91604e-22 -2.1868e-07 -3.19032e-22 0)
(4.40677e-07 -1.16412e-07 2.57824e-22 -2.16987e-07 1.75445e-22 0)
(4.41221e-07 -1.05822e-07 6.7094e-22 -2.14849e-07 4.40561e-22 0)
(4.41567e-07 -9.62292e-08 -1.23249e-22 -2.131e-07 -1.28781e-22 0)
(4.42476e-07 -8.70191e-08 0 -2.11442e-07 0 0)
(4.43439e-07 -7.85089e-08 1.2003e-22 -2.10078e-07 1.24859e-22 0)
(4.44697e-07 -7.04941e-08 -3.86278e-22 -2.0896e-07 -1.65046e-22 0)
(4.46059e-07 -6.30226e-08 -2.50592e-22 -2.0812e-07 -1.84622e-22 0)
(4.4758e-07 -5.60048e-08 1.40042e-23 -2.07545e-07 -1.42402e-22 0)
(4.49186e-07 -4.94063e-08 -1.26305e-22 -2.07225e-07 -2.13401e-22 0)
(4.50873e-07 -4.31601e-08 -1.28019e-23 -2.07136e-07 2.24063e-22 0)
(4.52601e-07 -3.7208e-08 2.46887e-22 -2.0724e-07 3.47785e-22 0)
(4.54327e-07 -3.14861e-08 1.20186e-22 -2.07474e-07 5.12428e-23 0)
(4.56004e-07 -2.59234e-08 -4.55028e-24 -2.07743e-07 -8.66988e-23 0)
(4.57501e-07 -2.04549e-08 2.32971e-22 -2.07891e-07 9.58453e-23 0)
(4.58743e-07 -1.49461e-08 1.14584e-22 -2.07705e-07 4.60039e-23 0)
(4.5932e-07 -9.38722e-09 4.70343e-22 -2.06798e-07 3.7138e-22 0)
(4.5927e-07 -3.04799e-09 1.30543e-22 -2.04774e-07 3.93787e-22 -4.11133e-37)
(4.94383e-07 -1.52754e-07 9.17974e-23 -2.53466e-07 1.26117e-22 0)
(4.85138e-07 -1.41993e-07 2.21068e-24 -2.50046e-07 4.84131e-24 0)
(4.80611e-07 -1.30287e-07 -2.83132e-22 -2.44813e-07 -1.96183e-22 0)
(4.74909e-07 -1.20496e-07 -6.79941e-22 -2.40756e-07 -5.08712e-22 0)
(4.71187e-07 -1.10197e-07 2.65626e-22 -2.36237e-07 1.80916e-22 0)
(4.67482e-07 -1.00896e-07 2.50021e-22 -2.32282e-07 2.48113e-22 0)
(4.64873e-07 -9.18039e-08 -1.22495e-22 -2.28581e-07 -1.21742e-22 0)
(4.62633e-07 -8.3332e-08 -1.96575e-23 -2.25327e-07 5.45363e-23 0)
(4.61067e-07 -7.52787e-08 5.37393e-22 -2.22492e-07 3.20024e-22 0)
(4.59916e-07 -6.77119e-08 -3.59225e-22 -2.201e-07 -3.66325e-22 0)
(4.59229e-07 -6.05619e-08 -1.27779e-22 -2.18144e-07 -1.31934e-22 0)
(4.58905e-07 -5.38036e-08 3.47388e-22 -2.16613e-07 5.14246e-22 0)
(4.58923e-07 -4.73803e-08 -5.07399e-22 -2.15482e-07 -1.51211e-22 0)
(4.59223e-07 -4.12325e-08 -3.61681e-22 -2.14715e-07 -3.86198e-22 0)
(4.59749e-07 -3.52901e-08 8.72522e-25 -2.14249e-07 -7.79625e-23 0)
(4.6044e-07 -2.94554e-08 -4.87332e-22 -2.13997e-07 -3.72747e-22 0)
(4.61166e-07 -2.3633e-08 -3.54772e-24 -2.13819e-07 -3.33393e-24 0)
(4.6185e-07 -1.76004e-08 4.7901e-22 -2.13533e-07 4.57671e-22 0)
(4.6215e-07 -1.132e-08 7.56764e-24 -2.12832e-07 9.4413e-23 0)
(4.62081e-07 -3.7557e-09 1.11383e-22 -2.11377e-07 8.23867e-23 2.52557e-39)
(5.44726e-07 -1.42966e-07 -9.62091e-23 -2.82905e-07 -1.23401e-22 0)
(5.29056e-07 -1.35446e-07 1.32972e-22 -2.7782e-07 1.2134e-22 0)
(5.19969e-07 -1.25023e-07 1.64134e-22 -2.70194e-07 8.57337e-23 0)
(5.09389e-07 -1.16996e-07 -1.2973e-22 -2.64064e-07 -1.21597e-22 0)
(5.01653e-07 -1.07908e-07 -3.07302e-22 -2.57497e-07 -1.53486e-22 0)
(4.94066e-07 -9.96433e-08 1.50017e-22 -2.51481e-07 7.4598e-23 0)
(4.88024e-07 -9.13672e-08 4.24589e-22 -2.4585e-07 2.73102e-22 0)
(4.82643e-07 -8.3509e-08 -6.83111e-22 -2.40751e-07 -4.58477e-22 0)
(4.7826e-07 -7.59361e-08 -4.21352e-22 -2.36222e-07 -2.77444e-22 0)
(4.74584e-07 -6.87264e-08 6.61324e-22 -2.32277e-07 4.47651e-22 0)
(4.71648e-07 -6.18537e-08 -2.69697e-22 -2.28928e-07 -1.28976e-22 0)
(4.69333e-07 -5.53064e-08 3.57386e-22 -2.26164e-07 3.65821e-22 0)
(4.67601e-07 -4.90466e-08 3.84781e-22 -2.23967e-07 2.50608e-22 0)
(4.6638e-07 -4.30185e-08 -2.24623e-22 -2.22305e-07 -3.12431e-22 0)
(4.65609e-07 -3.71512e-08 -1.46522e-22 -2.21127e-07 7.58181e-23 0)
(4.65218e-07 -3.13279e-08 6.94501e-24 -2.20365e-07 6.40313e-24 0)
(4.65104e-07 -2.5433e-08 -5.9381e-22 -2.19912e-07 -4.93922e-22 0)
(4.65182e-07 -1.91794e-08 1.17924e-22 -2.19639e-07 1.3239e-22 0)
(4.65239e-07 -1.25165e-08 2.33749e-22 -2.19342e-07 1.82832e-22 0)
(4.65216e-07 -4.20881e-09 5.62257e-23 -2.18768e-07 4.30775e-23 5.18888e-40)
(5.91659e-07 -1.22616e-07 1.15222e-24 -3.07902e-07 3.93078e-24 0)
(5.70315e-07 -1.20004e-07 -1.37479e-22 -3.01979e-07 -1.20886e-22 0)
(5.57436e-07 -1.1195e-07 2.94966e-23 -2.92961e-07 -3.19908e-23 0)
(5.42514e-07 -1.06362e-07 0 -2.85136e-07 0 0)
(5.31171e-07 -9.9304e-08 0 -2.7715e-07 0 0)
(5.20148e-07 -9.26596e-08 -4.11646e-22 -2.69541e-07 -3.22152e-22 0)
(5.10942e-07 -8.58356e-08 3.66251e-22 -2.624e-07 3.4131e-22 0)
(5.02662e-07 -7.91478e-08 7.72148e-22 -2.5577e-07 6.72971e-22 0)
(4.95592e-07 -7.25763e-08 -5.84077e-22 -2.49752e-07 -5.60557e-22 0)
(4.89475e-07 -6.61853e-08 -5.11615e-22 -2.44377e-07 -4.3539e-22 0)
(4.84315e-07 -5.9997e-08 2.35949e-22 -2.39686e-07 2.34474e-22 0)
(4.80003e-07 -5.40181e-08 -2.30499e-23 -2.35692e-07 4.64162e-23 0)
(4.76489e-07 -4.82371e-08 4.03679e-22 -2.32401e-07 1.99516e-22 0)
(4.73699e-07 -4.26123e-08 6.28838e-22 -2.29802e-07 4.34823e-22 0)
(4.71576e-07 -3.70822e-08 8.58406e-24 -2.27874e-07 7.83881e-24 0)
(4.70049e-07 -3.15265e-08 2.86015e-22 -2.26578e-07 -7.79323e-23 0)
(4.69058e-07 -2.58226e-08 0 -2.25865e-07 0 0)
(4.68511e-07 -1.96482e-08 -2.40853e-22 -2.25663e-07 -1.06416e-22 0)
(4.68363e-07 -1.29507e-08 1.15876e-22 -2.25897e-07 4.90647e-23 0)
(4.68445e-07 -4.39489e-09 1.69041e-22 -2.26414e-07 1.34272e-22 4.11322e-39)
(6.33155e-07 -9.36554e-08 -9.0269e-25 -3.26614e-07 -3.43784e-24 0)
(6.06963e-07 -9.68696e-08 1.7062e-22 -3.20465e-07 1.01969e-22 0)
(5.91431e-07 -9.28375e-08 -1.69699e-22 -3.12125e-07 -1.03347e-22 0)
(5.73161e-07 -9.01748e-08 -1.67026e-22 -3.03277e-07 -1.00659e-22 0)
(5.58578e-07 -8.59855e-08 4.58573e-22 -2.9439e-07 3.12753e-22 0)
(5.44625e-07 -8.13642e-08 3.26679e-22 -2.85485e-07 1.95019e-22 0)
(5.32536e-07 -7.6327e-08 -4.33906e-22 -2.77024e-07 -2.90352e-22 0)
(5.21664e-07 -7.10657e-08 5.76193e-23 -2.6907e-07 -6.09146e-23 0)
(5.12147e-07 -6.5724e-08 9.85204e-23 -2.61764e-07 9.13072e-23 0)
(5.03795e-07 -6.03836e-08 -5.34333e-23 -2.55164e-07 7.18348e-23 0)
(4.96571e-07 -5.51128e-08 -4.40504e-22 -2.49318e-07 -2.41555e-22 0)
(4.90378e-07 -4.99418e-08 3.94304e-24 -2.44261e-07 3.80092e-24 0)
(4.85159e-07 -4.48795e-08 -2.01592e-22 -2.40014e-07 -2.74024e-22 0)
(4.80845e-07 -3.99e-08 -6.80845e-24 -2.36589e-07 -6.224e-24 0)
(4.77392e-07 -3.49528e-08 2.57281e-22 -2.33997e-07 1.25313e-22 0)
(4.74734e-07 -2.99231e-08 -5.13312e-24 -2.32238e-07 -4.48371e-24 0)
(4.72867e-07 -2.46906e-08 3.13863e-22 -2.31323e-07 4.20462e-22 0)
(4.71694e-07 -1.89264e-08 -1.18444e-22 -2.31252e-07 -5.30274e-23 0)
(4.71359e-07 -1.25765e-08 -5.55157e-22 -2.32088e-07 -5.49144e-22 0)
(4.71559e-07 -4.29987e-09 -1.66126e-22 -2.33792e-07 -2.9959e-22 -3.03173e-37)
(6.66231e-07 -5.64795e-08 -2.17509e-23 -3.3878e-07 -1.09699e-23 0)
(6.39075e-07 -6.35988e-08 -1.8291e-22 -3.31265e-07 -1.07846e-22 0)
(6.21338e-07 -6.52922e-08 1.4852e-22 -3.25479e-07 1.16588e-22 0)
(6.01751e-07 -6.59874e-08 -3.88787e-22 -3.17424e-07 -3.53863e-22 0)
(5.8455e-07 -6.56621e-08 -3.99963e-22 -3.09015e-07 -3.32388e-22 0)
(5.6832e-07 -6.41799e-08 2.36685e-22 -3.00023e-07 2.4425e-22 0)
(5.53638e-07 -6.18805e-08 2.05758e-22 -2.90966e-07 2.45094e-22 0)
(5.40321e-07 -5.89041e-08 3.58541e-22 -2.82125e-07 3.22971e-22 0)
(5.28427e-07 -5.54572e-08 -4.20625e-22 -2.7373e-07 -3.13952e-22 0)
(5.17864e-07 -5.16956e-08 1.03994e-24 -2.65954e-07 8.6067e-24 0)
(5.08588e-07 -4.77445e-08 -5.11574e-24 -2.58917e-07 -2.56623e-23 0)
(5.00516e-07 -4.36932e-08 -3.28994e-22 -2.52708e-07 -3.21371e-22 0)
(4.93593e-07 -3.95954e-08 0 -2.47392e-07 0 0)
(4.87749e-07 -3.5464e-08 -2.97959e-22 -2.43022e-07 -9.69589e-23 0)
(4.82952e-07 -3.12787e-08 -1.39634e-24 -2.39648e-07 -5.92859e-24 0)
(4.79142e-07 -2.69506e-08 -3.8471e-22 -2.37319e-07 -1.87391e-22 0)
(4.76372e-07 -2.23778e-08 1.05415e-22 -2.36113e-07 1.11137e-22 0)
(4.74543e-07 -1.72565e-08 2.42616e-22 -2.36109e-07 1.11097e-22 0)
(4.74004e-07 -1.15383e-08 3.01512e-24 -2.37517e-07 -2.43013e-25 0)
(4.74335e-07 -3.9645e-09 -1.09522e-22 -2.40423e-07 -9.5227e-23 -8.41107e-40)
(6.8244e-07 -2.58551e-08 1.88223e-22 -3.39817e-07 1.65527e-22 0)
(6.57645e-07 -2.97134e-08 -1.74068e-22 -3.33486e-07 -1.09448e-22 0)
(6.38518e-07 -3.67398e-08 -1.00871e-22 -3.29437e-07 -8.37056e-23 0)
(6.19045e-07 -4.01099e-08 1.67255e-22 -3.22892e-07 1.02263e-22 0)
(6.00993e-07 -4.2466e-08 -3.30543e-22 -3.15215e-07 -1.5035e-22 0)
(5.83876e-07 -4.35344e-08 -2.22921e-22 -3.06794e-07 -1.05382e-22 0)
(5.68084e-07 -4.35807e-08 -2.77977e-22 -2.97982e-07 -2.01681e-22 0)
(5.53529e-07 -4.27845e-08 3.34546e-23 -2.8915e-07 -2.32161e-23 0)
(5.40322e-07 -4.13078e-08 5.61859e-22 -2.80566e-07 3.58166e-22 0)
(5.28415e-07 -3.93187e-08 -1.93315e-23 -2.72453e-07 -2.07671e-23 0)
(5.17807e-07 -3.69492e-08 3.00286e-22 -2.64979e-07 1.70124e-22 0)
(5.08445e-07 -3.4309e-08 -1.4822e-23 -2.58277e-07 -1.67758e-23 0)
(5.00299e-07 -3.14741e-08 1.09767e-36 -2.52454e-07 1.1139e-36 0)
(4.93319e-07 -2.84841e-08 -1.32006e-22 -2.47603e-07 -6.58076e-23 0)
(4.87501e-07 -2.5345e-08 1.2904e-22 -2.43819e-07 6.28727e-23 0)
(4.828e-07 -2.20034e-08 -5.79795e-24 -2.41197e-07 -8.36344e-24 0)
(4.79324e-07 -1.83871e-08 2.04764e-23 -2.39883e-07 -5.43361e-23 0)
(4.76973e-07 -1.42608e-08 1.17141e-24 -2.4002e-07 3.88009e-24 0)
(4.76255e-07 -9.58981e-09 -1.19132e-24 -2.41944e-07 1.54416e-24 0)
(4.76649e-07 -3.3059e-09 -1.79937e-24 -2.4586e-07 -8.61829e-25 1.6023e-41)
(6.68918e-07 4.14646e-09 1.74766e-22 -3.27459e-07 1.38182e-22 0)
(6.52382e-07 -2.82911e-10 0 -3.29274e-07 0 0)
(6.35101e-07 -8.87912e-09 -1.36342e-22 -3.26197e-07 -1.20087e-22 0)
(6.17843e-07 -1.45439e-08 1.78215e-36 -3.21232e-07 1.44232e-36 0)
(6.01369e-07 -1.89932e-08 4.0841e-37 -3.14671e-07 2.9622e-37 0)
(5.85471e-07 -2.21502e-08 1.93694e-36 -3.07174e-07 1.44009e-36 0)
(5.70544e-07 -2.41929e-08 2.97121e-36 -2.99099e-07 2.39989e-36 0)
(5.56544e-07 -2.53029e-08 -1.19478e-22 -2.90827e-07 -1.11899e-22 0)
(5.43635e-07 -2.56262e-08 0 -2.82643e-07 0 0)
(5.31813e-07 -2.53221e-08 1.14169e-22 -2.74792e-07 1.10558e-22 0)
(5.21129e-07 -2.45178e-08 -1.63528e-37 -2.67467e-07 -2.74257e-37 0)
(5.11571e-07 -2.33259e-08 -1.09823e-22 -2.60828e-07 -1.10112e-22 0)
(5.03149e-07 -2.18283e-08 1.08015e-22 -2.55011e-07 1.10172e-22 0)
(4.95847e-07 -2.00803e-08 1.55106e-36 -2.50136e-07 1.12954e-36 0)
(4.89696e-07 -1.81032e-08 -1.05127e-22 -2.46332e-07 -1.10793e-22 0)
(4.8468e-07 -1.58806e-08 -9.31917e-37 -2.43729e-07 -8.61118e-37 0)
(4.80955e-07 -1.33628e-08 1.0325e-22 -2.42518e-07 1.12103e-22 0)
(4.78437e-07 -1.04031e-08 1.0271e-22 -2.42885e-07 1.1308e-22 0)
(4.77752e-07 -6.99951e-09 -1.1086e-36 -2.45266e-07 -9.66416e-37 0)
(4.78314e-07 -2.40794e-09 -5.54199e-37 -2.49901e-07 -9.81335e-37 -3.26927e-66)
(6.57224e-07 3.42118e-08 3.23392e-23 -3.14655e-07 5.58919e-23 0)