/*--------------------------------*- C++ -*----------------------------------*\
  =========                 |
  \\      /  F ield         | OpenFOAM: The Open Source CFD Toolbox
   \\    /   O peration     | Website:  https://openfoam.org
    \\  /    A nd           | Version:  9
     \\/     M anipulation  |
\*---------------------------------------------------------------------------*/
FoamFile
{
    format      ascii;
    class       volSymmTensorField;
    location    "1";
    object      epsilon;
}
// * * * * * * * * * * * * * * * * * * * * * * * * * * * * * * * * * * * * * //

dimensions      [0 0 0 0 0 0 0];

internalField   nonuniform List<symmTensor> 
1000
(
(4.20917e-07 -5.47068e-07 7.17859e-20 8.49147e-08 7.85696e-20 2.14457e-34)
(5.80724e-07 -4.2184e-07 -8.68203e-22 -1.03654e-07 4.8635e-22 0)
(6.59013e-07 -3.23068e-07 1.01273e-21 -1.93805e-07 -1.94652e-22 0)
(7.02886e-07 -2.4859e-07 2.60087e-22 -2.57098e-07 -1.86029e-22 0)
(7.24004e-07 -1.88697e-07 -1.09959e-21 -2.92161e-07 8.16218e-23 0)
(7.31068e-07 -1.41886e-07 -1.19032e-22 -3.14608e-07 1.30784e-22 0)
(7.3021e-07 -1.03848e-07 -9.98708e-22 -3.26749e-07 -5.35587e-22 0)
(7.23545e-07 -7.361e-08 6.85479e-22 -3.32944e-07 3.19935e-22 0)
(7.1491e-07 -4.84775e-08 -3.53364e-22 -3.35196e-07 -4.02455e-22 0)
(7.02361e-07 -2.75731e-08 0 -3.35524e-07 0 0)
(5.69775e-07 -6.08166e-07 7.07342e-20 2.35539e-08 9.08109e-20 1.22744e-35)
(6.93656e-07 -4.35379e-07 0 -1.44152e-07 0 0)
(7.46664e-07 -3.10652e-07 8.10468e-22 -2.18424e-07 3.8585e-22 0)
(7.71189e-07 -2.21037e-07 -1.39063e-21 -2.71153e-07 -7.4117e-22 0)
(7.77255e-07 -1.5272e-07 -5.9105e-22 -2.97767e-07 -3.56211e-22 0)
(7.72427e-07 -1.01631e-07 4.11321e-22 -3.14321e-07 4.19562e-22 0)
(7.61923e-07 -6.17439e-08 4.60632e-22 -3.21775e-07 3.08576e-22 0)
(7.47737e-07 -3.14265e-08 1.08308e-21 -3.25146e-07 6.31584e-22 0)
(7.31795e-07 -6.85721e-09 0 -3.24067e-07 0 0)
(7.14955e-07 1.28031e-08 0 -3.24633e-07 0 0)
(7.3656e-07 -6.46729e-07 6.75972e-20 -5.76882e-08 1.01166e-19 0)
(8.10609e-07 -4.34802e-07 0 -1.89911e-07 0 0)
(8.30772e-07 -2.89146e-07 7.72489e-22 -2.4036e-07 3.98777e-22 0)
(8.31368e-07 -1.87682e-07 -2.31828e-22 -2.77776e-07 8.21612e-23 0)
(8.19661e-07 -1.13412e-07 -1.13546e-23 -2.93112e-07 5.07806e-24 0)
(8.01318e-07 -5.99001e-08 -3.83496e-22 -3.02083e-07 -3.96937e-22 0)
(7.80317e-07 -1.97031e-08 5.23756e-22 -3.03838e-07 2.41785e-22 0)
(7.57993e-07 9.65277e-09 -3.88829e-22 -3.03631e-07 -2.87053e-22 0)
(7.35354e-07 3.24719e-08 -3.14317e-23 -2.99449e-07 5.43854e-23 0)
(7.13531e-07 5.10198e-08 -8.21641e-23 -2.99126e-07 -3.52301e-23 0)
(9.15035e-07 -6.5724e-07 5.91767e-20 -1.54223e-07 1.06477e-19 -6.80045e-36)
(9.28655e-07 -4.18402e-07 4.42441e-22 -2.39206e-07 -4.57409e-23 0)
(9.10012e-07 -2.589e-07 -3.53074e-22 -2.59211e-07 -1.99032e-22 0)
(8.82894e-07 -1.50157e-07 -2.23733e-22 -2.77295e-07 4.35463e-23 0)
(8.51203e-07 -7.31935e-08 4.00459e-22 -2.79072e-07 3.87049e-22 0)
(8.18231e-07 -1.9538e-08 -4.82081e-22 -2.79312e-07 -3.18575e-22 0)
(7.86286e-07 1.92608e-08 -4.16486e-22 -2.74997e-07 -2.9623e-22 0)
(7.55948e-07 4.65774e-08 -9.28259e-22 -2.71152e-07 -6.78781e-22 0)
(7.27052e-07 6.67226e-08 -1.33003e-22 -2.64441e-07 -1.62677e-22 0)
(7.00932e-07 8.31241e-08 2.27313e-22 -2.62946e-07 2.01139e-22 0)
(1.09635e-06 -6.34772e-07 4.87895e-20 -2.59798e-07 1.06295e-19 -1.24134e-34)
(1.04396e-06 -3.83946e-07 2.31351e-26 -2.89771e-07 1.10123e-27 0)
(9.82397e-07 -2.19454e-07 -1.14304e-21 -2.74192e-07 -5.59328e-22 0)
(9.24863e-07 -1.09278e-07 1.03879e-22 -2.69771e-07 -3.98317e-24 0)
(8.71679e-07 -3.3853e-08 -1.45613e-22 -2.56238e-07 1.55507e-23 0)
(8.23498e-07 1.69625e-08 3.47107e-22 -2.46995e-07 3.20548e-22 0)
(7.80698e-07 5.22043e-08 -3.8944e-23 -2.36553e-07 1.15882e-23 0)
(7.42735e-07 7.60049e-08 3.66391e-22 -2.29266e-07 2.44643e-22 0)
(7.08439e-07 9.24054e-08 -7.90626e-23 -2.20762e-07 -1.69971e-22 0)
(6.78615e-07 1.05774e-07 -1.44895e-22 -2.18343e-07 -1.17018e-22 0)
(1.27444e-06 -5.781e-07 3.60631e-20 -3.67439e-07 9.98091e-20 -1.30172e-34)
(1.15377e-06 -3.29987e-07 2.1096e-26 -3.38263e-07 4.45417e-27 0)
(1.04673e-06 -1.70248e-07 -1.14144e-26 -2.83501e-07 -1.76364e-27 0)
(9.56988e-07 -6.58258e-08 9.17966e-23 -2.54713e-07 1.12496e-23 0)
(8.81575e-07 2.90362e-09 -4.94659e-22 -2.25169e-07 -3.00441e-22 0)
(8.18332e-07 4.73246e-08 5.64304e-24 -2.06612e-07 -5.42894e-26 0)
(7.6531e-07 7.66555e-08 3.68169e-22 -1.90667e-07 2.49106e-22 0)
(7.20561e-07 9.54391e-08 7.82822e-22 -1.80614e-07 5.72172e-22 0)
(6.81858e-07 1.07221e-07 1.41808e-22 -1.71203e-07 1.03994e-22 0)
(6.49103e-07 1.16845e-07 -2.47562e-22 -1.6827e-07 -1.94963e-22 0)
(1.43735e-06 -4.83627e-07 2.60067e-20 -4.68578e-07 8.81339e-20 -2.79859e-34)
(1.25167e-06 -2.52522e-07 3.30877e-22 -3.79574e-07 1.32729e-22 0)
(1.09742e-06 -1.09829e-07 3.49941e-22 -2.83033e-07 1.58684e-22 0)
(9.7549e-07 -2.02693e-08 -7.5454e-23 -2.29947e-07 -2.2523e-23 0)
(8.79092e-07 3.53729e-08 3.57647e-22 -1.85714e-07 2.38947e-22 0)
(8.02615e-07 6.92455e-08 -3.29116e-22 -1.59592e-07 -2.26414e-22 0)
(7.41297e-07 9.0209e-08 9.37695e-23 -1.39905e-07 5.70726e-24 0)
(6.91432e-07 1.02595e-07 -2.93876e-22 -1.28471e-07 -1.92419e-22 0)
(6.49805e-07 1.09217e-07 -2.04092e-23 -1.19374e-07 2.59056e-24 0)
(6.15108e-07 1.14729e-07 -1.4895e-22 -1.16567e-07 -9.71078e-23 0)
(1.58991e-06 -3.51078e-07 1.58803e-20 -5.55808e-07 7.12034e-20 -1.14303e-35)
(1.33412e-06 -1.47595e-07 -8.82668e-22 -4.03544e-07 -3.17252e-22 0)
(1.13092e-06 -3.72823e-08 6.83369e-24 -2.64578e-07 3.75236e-24 0)
(9.79418e-07 2.48202e-08 1.10337e-22 -1.9165e-07 5.60145e-23 0)
(8.65481e-07 6.00911e-08 8.17889e-22 -1.37551e-07 4.06123e-22 0)
(7.79382e-07 7.95357e-08 -4.83928e-23 -1.08051e-07 -1.52155e-23 0)
(7.12773e-07 9.05299e-08 1.20566e-27 -8.78911e-08 2.40701e-28 0)
(6.60117e-07 9.60911e-08 -2.87613e-22 -7.7266e-08 -1.51543e-22 0)
(6.17294e-07 9.79275e-08 7.00826e-24 -6.99576e-08 3.01017e-25 0)
(5.81771e-07 9.97035e-08 2.15516e-23 -6.80211e-08 1.05837e-23 0)
(1.70767e-06 -1.6404e-07 6.75538e-21 -6.07009e-07 5.01166e-20 1.17366e-34)
(1.37436e-06 -1.49064e-08 -9.7229e-22 -3.83546e-07 -4.07472e-22 0)
(1.12468e-06 3.76095e-08 1.0157e-22 -2.10649e-07 8.65402e-23 0)
(9.54436e-07 5.72959e-08 9.54739e-23 -1.31885e-07 7.55898e-23 0)
(8.34585e-07 6.71992e-08 -3.99636e-23 -8.04622e-08 -2.44435e-23 0)
(7.4721e-07 7.06157e-08 3.1859e-22 -5.56548e-08 1.15429e-22 0)
(6.81114e-07 7.23214e-08 1.74318e-23 -4.01869e-08 5.40129e-24 0)
(6.29234e-07 7.23499e-08 5.13851e-22 -3.31516e-08 1.96207e-22 0)
(5.87346e-07 7.11224e-08 1.13444e-22 -2.89954e-08 4.37691e-23 0)
(5.52136e-07 7.05172e-08 6.35258e-23 -2.84576e-08 2.54104e-23 0)
(1.81251e-06 1.47183e-07 1.61359e-21 -5.60042e-07 2.8295e-20 1.22289e-34)
(1.34002e-06 1.64183e-07 -7.44043e-23 -2.52493e-07 -1.29034e-22 0)
(1.07766e-06 1.08295e-07 3.3781e-22 -1.05713e-07 1.43284e-22 0)
(9.14171e-07 7.01353e-08 1.7374e-23 -5.21611e-08 2.44406e-23 0)
(8.04201e-07 5.52904e-08 5.93909e-28 -2.45234e-08 5.5461e-28 0)
(7.23126e-07 4.70189e-08 3.23106e-22 -1.34402e-08 5.76856e-23 0)
(6.61544e-07 4.40794e-08 5.01725e-24 -7.53316e-09 1.49542e-24 0)
(6.12085e-07 4.23769e-08 2.476e-22 -5.55408e-09 4.66157e-23 0)
(5.71658e-07 4.10453e-08 -2.74717e-24 -4.67667e-09 -2.07914e-25 0)
(5.36687e-07 4.01491e-08 -4.16439e-24 -5.01154e-09 -8.72044e-25 0)
(-2.46303e-09 1.13639e-09 3.88061e-20 1.01599e-10 2.02818e-20 1.78252e-34)
(1.42048e-09 -4.72633e-09 -2.09308e-23 -1.51164e-10 1.85125e-20 1.56846e-36)
(2.05589e-08 -1.45378e-08 -2.3829e-22 -9.40709e-09 1.77755e-20 1.95456e-35)
(5.07367e-08 -2.23834e-08 -2.17378e-24 -2.32042e-08 1.80232e-20 0)
(8.5498e-08 -2.7216e-08 -3.33613e-23 -3.85407e-08 1.76359e-20 -1.5678e-36)
(1.21839e-07 -2.99618e-08 -3.26214e-22 -5.43189e-08 1.79657e-20 3.27774e-35)
(1.57343e-07 -3.10308e-08 7.06839e-23 -6.95542e-08 1.83395e-20 1.56657e-36)
(1.91194e-07 -3.11049e-08 -2.17234e-22 -8.39434e-08 1.81039e-20 2.97919e-35)
(2.22246e-07 -3.02729e-08 1.71945e-22 -9.71855e-08 1.81675e-20 -1.29322e-35)
(2.51013e-07 -2.96279e-08 5.17033e-22 -1.09108e-07 1.80767e-20 -3.90133e-35)
(2.96866e-09 -5.07676e-09 3.97206e-20 -1.21473e-09 4.98681e-21 4.95128e-35)
(2.19256e-08 -2.67998e-08 2.61518e-22 2.1718e-10 2.86892e-22 0)
(5.65079e-08 -5.07809e-08 -2.4476e-22 -1.41682e-08 -2.45818e-22 0)
(9.49721e-08 -6.9101e-08 2.53635e-24 -3.35805e-08 -2.03642e-22 0)
(1.33565e-07 -8.03614e-08 0 -5.2933e-08 0 0)
(1.70169e-07 -8.66684e-08 -3.71635e-22 -7.11671e-08 -5.49368e-23 0)
(2.03893e-07 -8.89353e-08 6.23767e-23 -8.75743e-08 3.19764e-22 0)
(2.34881e-07 -8.87716e-08 4.66278e-24 -1.02251e-07 1.72029e-23 0)
(2.62182e-07 -8.63104e-08 -1.99786e-22 -1.15151e-07 -5.81468e-22 0)
(2.87535e-07 -8.43468e-08 1.46792e-22 -1.26116e-07 2.26986e-23 0)
(5.05559e-09 -2.43854e-08 4.04557e-20 7.45925e-09 8.03983e-21 -2.19872e-36)
(4.13494e-08 -6.66926e-08 2.67474e-22 2.73079e-09 2.83396e-22 0)
(9.0176e-08 -9.63948e-08 2.79969e-22 -1.96344e-08 5.84746e-23 0)
(1.38112e-07 -1.16287e-07 1.45414e-23 -4.73916e-08 -1.96396e-22 0)
(1.82232e-07 -1.27239e-07 0 -7.2979e-08 0 0)
(2.21045e-07 -1.32384e-07 -4.15873e-22 -9.54286e-08 -1.08327e-22 0)
(2.54754e-07 -1.33e-07 -5.67246e-22 -1.14288e-07 -1.58531e-22 0)
(2.84394e-07 -1.30868e-07 3.75163e-22 -1.30173e-07 2.29203e-22 0)
(3.09034e-07 -1.2623e-07 2.27186e-24 -1.43132e-07 7.325e-24 0)
(3.32027e-07 -1.2233e-07 -3.37424e-22 -1.53675e-07 -2.13159e-22 0)
(8.20394e-09 -5.46472e-08 4.22518e-20 2.80767e-08 1.1637e-20 -3.87805e-35)
(6.79487e-08 -1.14509e-07 6.61513e-23 5.3531e-09 -2.38145e-22 0)
(1.29987e-07 -1.45731e-07 3.07669e-22 -2.6987e-08 5.9981e-23 0)
(1.8653e-07 -1.63228e-07 0 -6.29542e-08 0 0)
(2.35505e-07 -1.70462e-07 -5.24567e-22 -9.42602e-08 1.95437e-22 0)
(2.76455e-07 -1.71793e-07 5.91808e-24 -1.20754e-07 4.83261e-22 0)
(3.10329e-07 -1.68855e-07 -2.58638e-23 -1.42144e-07 -2.59619e-22 0)
(3.38947e-07 -1.63428e-07 -7.47685e-23 -1.59492e-07 -4.00743e-22 0)
(3.61264e-07 -1.55889e-07 1.71249e-22 -1.72896e-07 5.54682e-23 0)
(3.8229e-07 -1.49513e-07 3.19645e-22 -1.8344e-07 1.19702e-22 0)
(1.63646e-08 -9.73914e-08 4.22359e-20 5.67318e-08 1.61877e-20 8.30729e-35)
(1.05401e-07 -1.66563e-07 -5.40417e-22 4.73136e-09 3.61951e-22 0)
(1.80684e-07 -1.94611e-07 -3.27564e-22 -4.11364e-08 -9.61992e-23 0)
(2.44551e-07 -2.06259e-07 -8.86339e-23 -8.60095e-08 3.54254e-22 0)
(2.9674e-07 -2.07004e-07 -3.48319e-24 -1.22501e-07 2.18529e-23 0)
(3.38478e-07 -2.02414e-07 5.05264e-22 -1.52241e-07 -1.35718e-22 0)
(3.71507e-07 -1.94401e-07 2.20017e-22 -1.75375e-07 5.76299e-23 0)
(3.98358e-07 -1.8459e-07 0 -1.93506e-07 0 0)
(4.17901e-07 -1.73573e-07 -2.34736e-22 -2.06821e-07 -3.08928e-22 0)
(4.36613e-07 -1.64201e-07 9.36998e-23 -2.1696e-07 2.26799e-23 0)
(3.41446e-08 -1.53553e-07 4.55821e-20 8.89638e-08 2.06472e-20 -9.51283e-35)
(1.54973e-07 -2.19335e-07 2.20658e-22 7.49862e-10 -4.29306e-22 0)
(2.42767e-07 -2.38573e-07 -2.70413e-22 -6.05256e-08 -2.91577e-22 0)
(3.12111e-07 -2.41381e-07 5.95673e-23 -1.14105e-07 -1.64962e-22 0)
(3.65495e-07 -2.33898e-07 5.72242e-22 -1.5473e-07 1.91181e-22 0)
(4.06255e-07 -2.22335e-07 -5.52195e-22 -1.8656e-07 6.17123e-23 0)
(4.37048e-07 -2.0861e-07 -6.37486e-25 -2.10423e-07 1.46511e-23 0)
(4.61015e-07 -1.9404e-07 -4.29917e-22 -2.28486e-07 -2.95922e-22 0)
(4.77082e-07 -1.79445e-07 9.00081e-25 -2.41172e-07 5.75074e-24 0)
(4.92808e-07 -1.66929e-07 -4.69494e-22 -2.50416e-07 -2.14329e-22 0)
(6.66941e-08 -2.22517e-07 5.19054e-20 1.17911e-07 2.8617e-20 -7.82213e-35)
(2.17086e-07 -2.70725e-07 1.22103e-23 -7.97643e-09 -1.84652e-23 0)
(3.15098e-07 -2.75005e-07 -8.94699e-27 -8.4642e-08 1.52507e-26 0)
(3.87444e-07 -2.6599e-07 -5.84498e-22 -1.46133e-07 -4.09297e-22 0)
(4.39771e-07 -2.48904e-07 -9.93889e-23 -1.89682e-07 2.65349e-22 0)
(4.77607e-07 -2.29808e-07 -5.35659e-22 -2.22388e-07 -2.17711e-22 0)
(5.04645e-07 -2.10217e-07 9.62883e-22 -2.4588e-07 4.28725e-22 0)
(5.24464e-07 -1.90968e-07 -1.26005e-25 -2.62973e-07 1.1509e-23 0)
(5.36292e-07 -1.73041e-07 1.89565e-22 -2.74374e-07 -9.68813e-25 0)
(5.48185e-07 -1.57488e-07 -2.56804e-22 -2.82204e-07 -1.22122e-22 0)
(1.1878e-07 -3.01714e-07 5.97061e-20 1.37135e-07 3.87119e-20 -1.29056e-34)
(2.91526e-07 -3.18719e-07 3.14412e-22 -2.20323e-08 -3.75106e-22 0)
(3.95383e-07 -3.0217e-07 -1.21368e-22 -1.11403e-07 1.61526e-22 0)
(4.67394e-07 -2.78682e-07 7.42048e-23 -1.78826e-07 -1.15514e-22 0)
(5.16173e-07 -2.51062e-07 6.61817e-27 -2.23678e-07 -1.29767e-26 0)
(5.49137e-07 -2.24342e-07 6.21743e-22 -2.55957e-07 5.22629e-23 0)
(5.7101e-07 -1.99191e-07 4.67714e-23 -2.7811e-07 -2.02497e-22 0)
(5.85529e-07 -1.75791e-07 -1.56782e-23 -2.93397e-07 1.66657e-22 0)
(5.92582e-07 -1.55119e-07 2.11753e-24 -3.03215e-07 8.32339e-23 0)
(5.99784e-07 -1.36935e-07 1.9622e-22 -3.09074e-07 1.83349e-22 0)
(1.94174e-07 -3.86503e-07 6.53226e-20 1.40586e-07 5.15425e-20 1.51641e-34)
(3.77762e-07 -3.61333e-07 -1.01501e-22 -4.24164e-08 6.87648e-22 0)
(4.81156e-07 -3.19275e-07 -1.17289e-26 -1.3943e-07 1.22871e-26 0)
(5.48681e-07 -2.79326e-07 8.04396e-22 -2.09718e-07 1.88513e-22 0)
(5.91176e-07 -2.40675e-07 6.14296e-22 -2.53817e-07 3.0638e-22 0)
(6.17322e-07 -2.06614e-07 5.54201e-22 -2.84303e-07 2.76477e-22 0)
(6.32697e-07 -1.7647e-07 -6.06519e-23 -3.04059e-07 1.741e-22 0)
(6.40864e-07 -1.49793e-07 -6.67327e-22 -3.16984e-07 -3.72548e-22 0)
(6.42759e-07 -1.27079e-07 4.09841e-22 -3.24731e-07 9.6679e-23 0)
(6.44716e-07 -1.0677e-07 1.83773e-22 -3.29147e-07 1.09114e-22 0)
(2.94918e-07 -4.70725e-07 6.9427e-20 1.23968e-07 6.42676e-20 2.00096e-35)
(4.74677e-07 -3.9647e-07 -2.0378e-22 -6.95593e-08 1.50295e-22 0)
(5.6977e-07 -3.26184e-07 -3.94973e-22 -1.67207e-07 -1.83954e-22 0)
(6.27967e-07 -2.68803e-07 1.71103e-21 -2.36295e-07 4.00105e-22 0)
(6.61182e-07 -2.19189e-07 1.04764e-23 -2.77194e-07 -1.19144e-23 0)
(6.78553e-07 -1.78317e-07 -5.44999e-22 -3.0433e-07 -3.09172e-22 0)
(6.86172e-07 -1.43953e-07 -5.84041e-22 -3.20786e-07 -9.14975e-23 0)
(6.87067e-07 -1.14969e-07 -2.20032e-22 -3.30399e-07 -1.31489e-22 0)
(6.84031e-07 -9.1471e-08 2.45394e-23 -3.36612e-07 -1.82465e-22 0)
(6.79038e-07 -7.10951e-08 1.09995e-22 -3.37141e-07 2.30547e-22 0)
(2.76912e-07 -2.74839e-08 8.1893e-22 -1.20195e-07 1.83258e-20 -1.16157e-35)
(2.99479e-07 -2.45224e-08 9.28497e-22 -1.29434e-07 1.80756e-20 -2.55329e-35)
(3.20209e-07 -2.19483e-08 5.24734e-22 -1.38008e-07 1.76211e-20 -1.48995e-35)
(3.38848e-07 -1.96133e-08 5.65192e-22 -1.45765e-07 1.78526e-20 -6.54102e-37)
(3.55661e-07 -1.74481e-08 3.31432e-22 -1.52743e-07 1.78765e-20 3.88626e-35)
(3.70728e-07 -1.55102e-08 5.93142e-22 -1.59033e-07 1.79636e-20 0)
(3.84235e-07 -1.37336e-08 5.59395e-22 -1.64661e-07 1.79521e-20 0)
(3.96274e-07 -1.21312e-08 6.35682e-22 -1.69697e-07 1.8077e-20 5.0538e-37)
(4.06988e-07 -1.06625e-08 5.88959e-22 -1.74179e-07 1.79677e-20 -1.32141e-35)
(4.16458e-07 -9.31687e-09 6.88051e-22 -1.78152e-07 1.81963e-20 8.57543e-37)
(4.2478e-07 -8.06666e-09 7.18107e-22 -1.81648e-07 1.80259e-20 -4.00444e-35)
(4.32009e-07 -6.89142e-09 2.85849e-22 -1.84695e-07 1.78674e-20 1.34161e-35)
(4.38199e-07 -5.76914e-09 6.5109e-22 -1.87311e-07 1.8013e-20 -4.04541e-35)
(4.43382e-07 -4.68332e-09 -5.67805e-23 -1.89514e-07 1.74644e-20 -8.12444e-37)
(4.47571e-07 -3.62024e-09 2.99389e-22 -1.91307e-07 1.7991e-20 1.38542e-35)
(4.50787e-07 -2.57773e-09 2.4e-22 -1.92698e-07 1.78809e-20 -3.28007e-45)
(4.53022e-07 -1.57148e-09 7.65561e-23 -1.93683e-07 1.77298e-20 -1.48006e-37)
(4.54358e-07 -6.56862e-10 2.91442e-22 -1.94277e-07 1.80218e-20 1.0621e-37)
(4.54788e-07 4.42613e-11 1.89125e-22 -1.94459e-07 1.76885e-20 -4.18601e-35)
(4.54642e-07 2.0948e-10 3.36877e-20 -1.94197e-07 1.74483e-20 -8.57465e-35)
(3.08387e-07 -7.85355e-08 3.5879e-22 -1.35999e-07 4.41156e-22 0)
(3.25111e-07 -7.0685e-08 2.32796e-22 -1.43054e-07 6.36022e-23 0)
(3.41107e-07 -6.37714e-08 1.75687e-23 -1.49553e-07 -1.00904e-22 0)
(3.55453e-07 -5.73232e-08 5.28514e-22 -1.55517e-07 4.76305e-22 0)
(3.68663e-07 -5.12813e-08 -1.01625e-22 -1.60839e-07 -2.39064e-23 0)
(3.80588e-07 -4.58236e-08 -4.30936e-22 -1.65725e-07 -4.36722e-22 0)
(3.91448e-07 -4.07725e-08 2.19879e-22 -1.7011e-07 8.11378e-23 0)
(4.01224e-07 -3.61859e-08 0 -1.74095e-07 0 0)
(4.10049e-07 -3.19544e-08 1.04779e-22 -1.7768e-07 3.69959e-23 0)
(4.17945e-07 -2.80618e-08 2.15423e-22 -1.80912e-07 8.27898e-23 0)
(4.24991e-07 -2.44339e-08 6.46028e-22 -1.83805e-07 3.33149e-22 0)
(4.31221e-07 -2.10278e-08 2.91384e-24 -1.86382e-07 3.33256e-24 0)
(4.3668e-07 -1.77869e-08 8.39515e-23 -1.88654e-07 -6.53347e-23 0)
(4.41399e-07 -1.46723e-08 1.23238e-22 -1.90629e-07 1.41034e-22 0)
(4.45396e-07 -1.16536e-08 1.26432e-22 -1.92301e-07 1.45064e-22 0)
(4.48694e-07 -8.72951e-09 -1.25249e-22 -1.93653e-07 -1.44436e-22 0)
(4.51273e-07 -5.9343e-09 -1.2596e-22 -1.94639e-07 -1.46075e-22 0)
(4.53163e-07 -3.38918e-09 -2.52963e-22 -1.95177e-07 -2.95079e-22 0)
(4.54216e-07 -1.27966e-09 -1.9142e-24 -1.95083e-07 -2.09571e-24 0)
(4.54478e-07 -1.57249e-10 3.41237e-20 -1.94057e-07 4.86746e-22 7.57967e-35)
(3.48081e-07 -1.13625e-07 9.81677e-23 -1.61813e-07 1.34332e-22 0)
(3.586e-07 -1.02929e-07 1.34012e-22 -1.66004e-07 4.77179e-23 0)
(3.69501e-07 -9.33363e-08 -3.11198e-22 -1.69521e-07 -3.92071e-22 0)
(3.79052e-07 -8.44331e-08 -2.79734e-23 -1.72861e-07 7.16642e-23 0)
(3.88208e-07 -7.5952e-08 5.67895e-22 -1.75709e-07 4.72653e-22 0)
(3.96504e-07 -6.82551e-08 -4.51078e-22 -1.78438e-07 -4.30644e-22 0)
(4.04279e-07 -6.10556e-08 -1.20067e-22 -1.80894e-07 -1.39111e-22 0)
(4.11369e-07 -5.44788e-08 2.29484e-22 -1.83214e-07 2.61115e-22 0)
(4.17922e-07 -4.83738e-08 1.15774e-24 -1.85363e-07 -1.69684e-22 0)
(4.23892e-07 -4.27382e-08 -2.42834e-22 -1.87382e-07 -2.73158e-22 0)
(4.29349e-07 -3.74793e-08 2.32695e-22 -1.89271e-07 2.60809e-22 0)
(4.34289e-07 -3.25513e-08 3.59573e-22 -1.9104e-07 4.03238e-22 0)
(4.38749e-07 -2.78858e-08 2.75137e-24 -1.92686e-07 3.03335e-24 0)
(4.42739e-07 -2.34364e-08 -1.23122e-22 -1.94201e-07 -1.38869e-22 0)
(4.46262e-07 -1.91604e-08 1.21884e-22 -1.95556e-07 1.38304e-22 0)
(4.49324e-07 -1.50426e-08 1.79679e-29 -1.96695e-07 2.00162e-29 0)
(4.51857e-07 -1.1092e-08 -1.25579e-22 -1.97508e-07 -1.44293e-22 0)
(4.53831e-07 -7.37055e-09 1.69484e-23 -1.9782e-07 1.04319e-22 0)
(4.54924e-07 -3.99412e-09 -4.13234e-22 -1.97258e-07 -5.26771e-23 0)
(4.55111e-07 -1.11366e-09 3.42246e-20 -1.95409e-07 4.87672e-22 5.65019e-38)
(3.93623e-07 -1.3837e-07 0 -1.89993e-07 0 0)
(3.97708e-07 -1.26121e-07 1.43275e-22 -1.91549e-07 5.20915e-23 0)
(4.03443e-07 -1.14826e-07 1.12096e-22 -1.92243e-07 1.28161e-22 0)
(4.07983e-07 -1.04526e-07 1.23023e-22 -1.93124e-07 1.425e-22 0)
(4.12874e-07 -9.45021e-08 0 -1.93549e-07 0 0)
(4.1726e-07 -8.5405e-08 1.66945e-23 -1.94126e-07 -7.20157e-23 0)
(4.21676e-07 -7.67894e-08 -3.6833e-22 -1.94613e-07 -2.25974e-22 0)
(4.25787e-07 -6.88819e-08 -2.34988e-22 -1.9519e-07 -2.55459e-22 0)
(4.29787e-07 -6.14912e-08 -1.32166e-22 -1.95803e-07 -6.0894e-23 0)
(4.33549e-07 -5.46433e-08 -8.7755e-25 -1.9649e-07 1.63546e-22 0)
(4.37141e-07 -4.8237e-08 -1.16324e-22 -1.97241e-07 3.60758e-23 0)
(4.4052e-07 -4.22307e-08 2.43212e-22 -1.98055e-07 1.04091e-22 0)
(4.43703e-07 -3.65528e-08 2.30956e-22 -1.98916e-07 1.11765e-23 0)
(4.46675e-07 -3.11507e-08 5.55686e-24 -1.99797e-07 8.7441e-23 0)
(4.49416e-07 -2.59705e-08 9.89706e-24 -2.00651e-07 9.26942e-23 0)
(4.51901e-07 -2.09732e-08 -1.2416e-22 -2.01395e-07 -1.39757e-22 0)
(4.5402e-07 -1.61323e-08 -2.65178e-29 -2.01883e-07 -2.98653e-29 0)
(4.55717e-07 -1.14161e-08 2.64708e-22 -2.01908e-07 3.88644e-22 0)
(4.56583e-07 -6.86641e-09 -1.33983e-23 -2.01052e-07 -1.02284e-22 0)
(4.56629e-07 -2.15062e-09 3.37368e-20 -1.9889e-07 1.24163e-22 -1.09518e-34)
(4.43024e-07 -1.51162e-07 1.08526e-23 -2.21487e-07 1.79088e-22 0)
(4.40434e-07 -1.38866e-07 -1.55675e-22 -2.20345e-07 -6.79224e-23 0)
(4.40974e-07 -1.26873e-07 -3.91401e-22 -2.17977e-07 -3.18898e-22 0)
(4.40369e-07 -1.16317e-07 2.57703e-22 -2.16295e-07 1.75319e-22 0)
(4.40922e-07 -1.05712e-07 6.70642e-22 -2.14149e-07 4.40219e-22 0)
(4.4125e-07 -9.61295e-08 -1.23163e-22 -2.12406e-07 -1.28794e-22 0)
(4.42162e-07 -8.69147e-08 0 -2.10747e-07 0 0)
(4.43113e-07 -7.8412e-08 1.19944e-22 -2.09388e-07 1.24878e-22 0)
(4.44369e-07 -7.03992e-08 -3.86194e-22 -2.08271e-07 -1.64677e-22 0)
(4.45722e-07 -6.29344e-08 -2.50476e-22 -2.07433e-07 -1.84521e-22 0)
(4.47239e-07 -5.59231e-08 1.41345e-23 -2.06859e-07 -1.42695e-22 0)
(4.48838e-07 -4.93322e-08 -1.26137e-22 -2.0654e-07 -2.1357e-22 0)
(4.5052e-07 -4.30933e-08 -1.30209e-23 -2.06451e-07 2.24504e-22 0)
(4.52241e-07 -3.71496e-08 2.46618e-22 -2.06554e-07 3.47967e-22 0)
(4.53961e-07 -3.14371e-08 1.20173e-22 -2.06787e-07 5.11125e-23 0)
(4.55632e-07 -2.58843e-08 -4.46299e-24 -2.07056e-07 -8.68419e-23 0)
(4.57121e-07 -2.04266e-08 2.32956e-22 -2.07202e-07 9.55792e-23 0)
(4.58357e-07 -1.4928e-08 1.14579e-22 -2.07018e-07 4.58701e-23 0)
(4.58927e-07 -9.38377e-09 4.70133e-22 -2.0611e-07 3.71105e-22 0)
(4.58869e-07 -3.06131e-09 3.47536e-20 -2.0409e-07 1.1724e-21 1.08468e-34)
(4.9413e-07 -1.52665e-07 9.17451e-23 -2.52743e-07 1.26119e-22 0)
(4.84805e-07 -1.41909e-07 2.20757e-24 -2.49304e-07 4.84447e-24 0)
(4.80313e-07 -1.30183e-07 -2.82998e-22 -2.44054e-07 -1.96043e-22 0)
(4.74572e-07 -1.20412e-07 -6.79582e-22 -2.40012e-07 -5.08436e-22 0)
(4.70866e-07 -1.10091e-07 2.65501e-22 -2.35487e-07 1.80787e-22 0)
(4.67139e-07 -1.00801e-07 2.49841e-22 -2.3154e-07 2.48129e-22 0)
(4.64538e-07 -9.17023e-08 -1.22409e-22 -2.27843e-07 -1.21756e-22 0)
(4.62286e-07 -8.32363e-08 -1.9707e-23 -2.24595e-07 5.46787e-23 0)
(4.60722e-07 -7.51846e-08 5.37198e-22 -2.21766e-07 3.19661e-22 0)
(4.59564e-07 -6.76232e-08 -3.58958e-22 -2.19378e-07 -3.66384e-22 0)
(4.58875e-07 -6.04786e-08 -1.27683e-22 -2.17427e-07 -1.31956e-22 0)
(4.58545e-07 -5.37276e-08 3.46973e-22 -2.15898e-07 5.14608e-22 0)
(4.58559e-07 -4.73117e-08 -5.07396e-22 -2.1477e-07 -1.5053e-22 0)
(4.58854e-07 -4.11722e-08 -3.614e-22 -2.14003e-07 -3.86249e-22 0)
(4.59374e-07 -3.52392e-08 9.54508e-25 -2.13537e-07 -7.8112e-23 0)
(4.60059e-07 -2.94136e-08 -4.87113e-22 -2.13285e-07 -3.72496e-22 0)
(4.6078e-07 -2.36025e-08 -3.54549e-24 -2.13106e-07 -3.33306e-24 0)
(4.61458e-07 -1.75802e-08 4.78706e-22 -2.1282e-07 4.57543e-22 0)
(4.61751e-07 -1.13163e-08 7.4692e-24 -2.12116e-07 9.45493e-23 0)
(4.61672e-07 -3.7683e-09 3.49163e-20 -2.10663e-07 9.49934e-22 -7.85323e-37)
(5.44452e-07 -1.42879e-07 -9.61556e-23 -2.82143e-07 -1.23411e-22 0)
(5.28694e-07 -1.35382e-07 1.32885e-22 -2.77041e-07 1.21319e-22 0)
(5.19657e-07 -1.24927e-07 1.64073e-22 -2.69401e-07 8.56047e-23 0)
(5.09026e-07 -1.16929e-07 -1.2964e-22 -2.63285e-07 -1.21587e-22 0)
(5.01315e-07 -1.07816e-07 -3.07202e-22 -2.56714e-07 -1.53221e-22 0)
(4.93701e-07 -9.95622e-08 1.49971e-22 -2.50702e-07 7.44644e-23 0)
(4.87669e-07 -9.12787e-08 4.24408e-22 -2.45077e-07 2.72848e-22 0)
(4.82276e-07 -8.34232e-08 -6.82804e-22 -2.39982e-07 -4.58102e-22 0)
(4.77894e-07 -7.58501e-08 -4.21173e-22 -2.35458e-07 -2.77198e-22 0)
(4.74214e-07 -6.86432e-08 6.61039e-22 -2.31519e-07 4.47283e-22 0)
(4.71277e-07 -6.17744e-08 -2.6964e-22 -2.28176e-07 -1.28704e-22 0)
(4.68959e-07 -5.52321e-08 3.57109e-22 -2.25417e-07 3.65878e-22 0)
(4.67225e-07 -4.89788e-08 3.84641e-22 -2.23224e-07 2.50351e-22 0)
(4.66001e-07 -4.29577e-08 -2.24362e-22 -2.21565e-07 -3.12622e-22 0)
(4.65226e-07 -3.70994e-08 -1.4666e-22 -2.20389e-07 7.62704e-23 0)
(4.64831e-07 -3.12853e-08 6.94065e-24 -2.19626e-07 6.40162e-24 0)
(4.64711e-07 -2.54019e-08 -5.93503e-22 -2.19174e-07 -4.9366e-22 0)
(4.64783e-07 -1.91579e-08 1.17826e-22 -2.18899e-07 1.32395e-22 0)
(4.64832e-07 -1.25121e-08 2.33646e-22 -2.18598e-07 1.82683e-22 0)
(4.64799e-07 -4.22033e-09 3.50265e-20 -2.18021e-07 9.55108e-22 -3.2168e-37)
(5.91361e-07 -1.2253e-07 1.15111e-24 -3.07107e-07 3.93489e-24 0)
(5.69922e-07 -1.19964e-07 -1.37389e-22 -3.01163e-07 -1.20859e-22 0)
(5.57109e-07 -1.11866e-07 2.9515e-23 -2.92143e-07 -3.21128e-23 0)
(5.42126e-07 -1.06304e-07 0 -2.84319e-07 0 0)
(5.30816e-07 -9.92239e-08 0 -2.76339e-07 0 0)
(5.19766e-07 -9.25845e-08 -4.11409e-22 -2.68734e-07 -3.22021e-22 0)
(5.10572e-07 -8.57563e-08 3.65993e-22 -2.61603e-07 3.41326e-22 0)
(5.02282e-07 -7.90704e-08 7.71642e-22 -2.54979e-07 6.72891e-22 0)
(4.95214e-07 -7.25004e-08 -5.83643e-22 -2.48969e-07 -5.60616e-22 0)
(4.89094e-07 -6.61125e-08 -5.11299e-22 -2.436e-07 -4.35301e-22 0)
(4.83933e-07 -5.9928e-08 2.35767e-22 -2.38915e-07 2.34508e-22 0)
(4.79617e-07 -5.39539e-08 -2.31131e-23 -2.34925e-07 4.65736e-23 0)
(4.76101e-07 -4.81786e-08 4.03611e-22 -2.31638e-07 1.9909e-22 0)
(4.73309e-07 -4.25598e-08 6.28595e-22 -2.29042e-07 4.34426e-22 0)
(4.71183e-07 -3.70374e-08 8.57858e-24 -2.27115e-07 7.83723e-24 0)
(4.69653e-07 -3.14896e-08 2.86239e-22 -2.25819e-07 -7.87037e-23 0)
(4.68658e-07 -2.57963e-08 0 -2.25105e-07 0 0)
(4.68105e-07 -1.96304e-08 -2.40843e-22 -2.24898e-07 -1.06115e-22 0)
(4.67948e-07 -1.29485e-08 1.15875e-22 -2.25126e-07 4.89134e-23 0)
(4.6802e-07 -4.40616e-09 3.54771e-20 -2.25635e-07 1.04706e-21 -8.53894e-37)
(6.32854e-07 -9.35878e-08 -9.01615e-25 -3.25821e-07 -3.44281e-24 0)
(6.06554e-07 -9.68555e-08 1.7056e-22 -3.19629e-07 1.01834e-22 0)
(5.91104e-07 -9.27898e-08 -1.69643e-22 -3.11316e-07 -1.03222e-22 0)
(5.72762e-07 -9.01432e-08 -1.66966e-22 -3.02444e-07 -1.00525e-22 0)
(5.58204e-07 -8.59438e-08 4.58378e-22 -2.93564e-07 3.12477e-22 0)
(5.44226e-07 -8.13162e-08 3.26565e-22 -2.84652e-07 1.94748e-22 0)
(5.32142e-07 -7.62738e-08 -4.33721e-22 -2.76195e-07 -2.90071e-22 0)
(5.21262e-07 -7.10069e-08 5.77185e-23 -2.68246e-07 -6.12144e-23 0)
(5.11747e-07 -6.56621e-08 9.84477e-23 -2.60946e-07 9.13096e-23 0)
(5.03395e-07 -6.03213e-08 -5.35474e-23 -2.54354e-07 7.21507e-23 0)
(4.96172e-07 -5.50518e-08 -4.40398e-22 -2.48516e-07 -2.41123e-22 0)
(4.89978e-07 -4.98832e-08 3.94006e-24 -2.43466e-07 3.80114e-24 0)
(4.8476e-07 -4.48251e-08 -2.01342e-22 -2.39225e-07 -2.74223e-22 0)
(4.80446e-07 -3.98513e-08 -6.80393e-24 -2.35805e-07 -6.22308e-24 0)
(4.76991e-07 -3.4911e-08 2.57254e-22 -2.33216e-07 1.25015e-22 0)
(4.74332e-07 -2.98889e-08 -5.13013e-24 -2.31458e-07 -4.48211e-24 0)
(4.7246e-07 -2.46668e-08 3.13499e-22 -2.30542e-07 4.20662e-22 0)
(4.71281e-07 -1.89101e-08 -1.18442e-22 -2.30466e-07 -5.28737e-23 0)
(4.70938e-07 -1.25751e-08 -5.54774e-22 -2.31295e-07 -5.49005e-22 0)
(4.71128e-07 -4.31052e-09 3.50209e-20 -2.32985e-07 5.53937e-22 -6.44662e-35)
(6.65889e-07 -5.64675e-08 -2.1747e-23 -3.37994e-07 -1.09457e-23 0)
(6.38643e-07 -6.36201e-08 -1.82862e-22 -3.30412e-07 -1.0767e-22 0)
(6.20989e-07 -6.5304e-08 1.48453e-22 -3.24676e-07 1.16536e-22 0)
(6.01358e-07 -6.59871e-08 -3.88517e-22 -3.16599e-07 -3.53872e-22 0)
(5.8417e-07 -6.5663e-08 -3.99738e-22 -3.08197e-07 -3.32302e-22 0)
(5.67924e-07 -6.41728e-08 2.36472e-22 -2.99201e-07 2.44339e-22 0)
(5.5324e-07 -6.18693e-08 2.05522e-22 -2.90145e-07 2.45264e-22 0)
(5.39915e-07 -5.88865e-08 3.58287e-22 -2.81305e-07 3.22959e-22 0)
(5.28018e-07 -5.54342e-08 -4.20428e-22 -2.72912e-07 -3.13746e-22 0)
(5.17453e-07 -5.16682e-08 1.02755e-24 -2.65141e-07 8.62804e-24 0)
(5.08176e-07 -4.77146e-08 -5.08071e-24 -2.58108e-07 -2.57193e-23 0)
(5.00103e-07 -4.36623e-08 -3.28734e-22 -2.51904e-07 -3.21398e-22 0)
(4.9318e-07 -3.95647e-08 0 -2.46592e-07 0 0)
(4.87335e-07 -3.54355e-08 -2.98011e-22 -2.42225e-07 -9.64753e-23 0)
(4.82539e-07 -3.12537e-08 -1.38883e-24 -2.38853e-07 -5.93964e-24 0)
(4.78728e-07 -2.69302e-08 -3.84695e-22 -2.36524e-07 -1.86917e-22 0)
(4.75956e-07 -2.23648e-08 1.05329e-22 -2.35315e-07 1.11142e-22 0)
(4.74122e-07 -1.72481e-08 2.42623e-22 -2.35304e-07 1.10771e-22 0)
(4.73575e-07 -1.15411e-08 3.01752e-24 -2.36703e-07 -2.50676e-25 0)
(4.73896e-07 -3.97489e-09 3.53238e-20 -2.39592e-07 5.00564e-22 -2.72918e-37)
(6.82045e-07 -2.59017e-08 1.88106e-22 -3.39043e-07 1.65516e-22 0)
(6.57216e-07 -2.97197e-08 -1.74018e-22 -3.32668e-07 -1.0928e-22 0)
(6.38134e-07 -3.67677e-08 -1.00816e-22 -3.28644e-07 -8.36757e-23 0)
(6.1865e-07 -4.01105e-08 1.67217e-22 -3.22091e-07 1.021e-22 0)
(6.00605e-07 -4.24651e-08 -3.30551e-22 -3.14411e-07 -1.49858e-22 0)
(5.83479e-07 -4.35266e-08 -2.22923e-22 -3.05989e-07 -1.05067e-22 0)
(5.67688e-07 -4.35684e-08 -2.77866e-22 -2.97174e-07 -2.01519e-22 0)
(5.53127e-07 -4.2769e-08 3.35188e-23 -2.88341e-07 -2.33865e-23 0)
(5.39917e-07 -4.12888e-08 5.61716e-22 -2.79756e-07 3.57682e-22 0)
(5.28006e-07 -3.9298e-08 -1.9313e-23 -2.71645e-07 -2.07758e-23 0)
(5.17397e-07 -3.69275e-08 3.00245e-22 -2.64173e-07 1.69803e-22 0)
(5.08034e-07 -3.42871e-08 -1.48069e-23 -2.57473e-07 -1.67836e-23 0)
(4.99887e-07 -3.14531e-08 1.09676e-36 -2.51652e-07 1.11408e-36 0)
(4.92906e-07 -2.84654e-08 -1.32003e-22 -2.46803e-07 -6.56427e-23 0)
(4.87087e-07 -2.53293e-08 1.29041e-22 -2.43018e-07 6.27074e-23 0)
(4.82382e-07 -2.19915e-08 -5.78968e-24 -2.40393e-07 -8.36978e-24 0)
(4.78905e-07 -1.83807e-08 2.05732e-23 -2.39076e-07 -5.45193e-23 0)
(4.76548e-07 -1.42581e-08 1.16649e-24 -2.39204e-07 3.88647e-24 0)
(4.75821e-07 -9.5956e-09 -1.19461e-24 -2.41116e-07 1.55081e-24 0)
(4.76207e-07 -3.31524e-09 3.57031e-20 -2.45012e-07 1.87965e-22 3.17979e-37)
(6.68544e-07 4.09904e-09 1.74689e-22 -3.26699e-07 1.38094e-22 0)
(6.51977e-07 -2.88786e-10 0 -3.28505e-07 0 0)
(6.34709e-07 -8.89146e-09 -1.36258e-22 -3.25408e-07 -1.20067e-22 0)
(6.17436e-07 -1.45361e-08 1.78121e-36 -3.20433e-07 1.44165e-36 0)
(6.00965e-07 -1.89826e-08 4.08254e-37 -3.1386e-07 2.95932e-37 0)
(5.85057e-07 -2.21361e-08 1.93612e-36 -3.06357e-07 1.43887e-36 0)
(5.7013e-07 -2.41768e-08 2.96964e-36 -2.98278e-07 2.39872e-36 0)
(5.56125e-07 -2.52866e-08 -1.19388e-22 -2.90004e-07 -1.11905e-22 0)
(5.43213e-07 -2.5609e-08 0 -2.8182e-07 0 0)
(5.3139e-07 -2.53053e-08 1.14078e-22 -2.73971e-07 1.10568e-22 0)
(5.20705e-07 -2.45015e-08 -1.63204e-37 -2.66648e-07 -2.74623e-37 0)
(5.11147e-07 -2.33108e-08 -1.09732e-22 -2.60013e-07 -1.10127e-22 0)
(5.02724e-07 -2.18151e-08 1.07924e-22 -2.54198e-07 1.10187e-22 0)
(4.95423e-07 -2.00694e-08 1.55051e-36 -2.49326e-07 1.12846e-36 0)
(4.89272e-07 -1.80953e-08 -1.05036e-22 -2.45522e-07 -1.10811e-22 0)
(4.84255e-07 -1.58761e-08 -9.31318e-37 -2.42916e-07 -8.60918e-37 0)
(4.80528e-07 -1.33621e-08 1.03159e-22 -2.41701e-07 1.1212e-22 0)
(4.78004e-07 -1.04047e-08 1.02617e-22 -2.42058e-07 1.13097e-22 0)
(4.77313e-07 -7.00546e-09 -1.10802e-36 -2.44428e-07 -9.65913e-37 0)