/*--------------------------------*- C++ -*----------------------------------*\
  =========                 |
  \\      /  F ield         | OpenFOAM: The Open Source CFD Toolbox
   \\    /   O peration     | Website:  https://openfoam.org
    \\  /    A nd           | Version:  9
     \\/     M anipulation  |
\*---------------------------------------------------------------------------*/
FoamFile
{
    format      ascii;
    class       volScalarField;
    location    "1";
    object      epsilonEq;
}
// * * * * * * * * * * * * * * * * * * * * * * * * * * * * * * * * * * * * * //

dimensions      [0 0 0 0 0 0 0];

internalField   nonuniform List<scalar> 
1000
(
6.81987e-07
6.47054e-07
6.36901e-07
6.41613e-07
6.42179e-07
6.40775e-07
6.36281e-07
6.2947e-07
6.21874e-07
6.124e-07
7.9481e-07
7.21294e-07
6.85669e-07
6.74599e-07
6.64731e-07
6.56326e-07
6.46588e-07
6.3628e-07
6.24619e-07
6.14324e-07
9.05075e-07
7.92816e-07
7.29826e-07
7.00774e-07
6.78756e-07
6.62048e-07
6.46174e-07
6.31462e-07
6.16001e-07
6.03637e-07
1.01063e-06
8.60734e-07
7.69498e-07
7.20758e-07
6.85094e-07
6.59025e-07
6.36382e-07
6.1697e-07
5.9783e-07
5.83279e-07
1.10817e-06
9.23419e-07
8.03916e-07
7.34385e-07
6.83871e-07
6.47532e-07
6.17629e-07
5.93233e-07
5.70627e-07
5.53746e-07
1.19816e-06
9.80378e-07
8.32593e-07
7.41608e-07
6.75411e-07
6.28279e-07
5.90894e-07
5.61466e-07
5.35606e-07
5.16326e-07
1.27554e-06
1.02787e-06
8.51466e-07
7.39369e-07
6.58046e-07
6.00791e-07
5.56664e-07
5.22808e-07
4.94346e-07
4.7288e-07
1.34828e-06
1.06384e-06
8.56961e-07
7.25884e-07
6.31703e-07
5.66589e-07
5.17689e-07
4.80939e-07
4.51122e-07
4.28163e-07
1.39871e-06
1.06745e-06
8.30112e-07
6.8769e-07
5.90181e-07
5.24072e-07
4.75439e-07
4.38988e-07
4.0989e-07
3.86606e-07
1.44206e-06
1.00634e-06
7.66417e-07
6.32761e-07
5.48223e-07
4.89645e-07
4.46473e-07
4.12831e-07
3.85598e-07
3.62451e-07
2.12929e-09
5.54857e-09
2.43913e-08
5.07412e-08
7.97568e-08
1.0976e-07
1.38928e-07
1.66738e-07
1.92281e-07
2.15956e-07
6.36711e-09
3.41936e-08
7.28182e-08
1.10878e-07
1.44661e-07
1.74696e-07
2.00916e-07
2.24383e-07
2.4453e-07
2.63471e-07
2.8499e-08
8.15081e-08
1.30237e-07
1.74399e-07
2.11243e-07
2.4188e-07
2.66786e-07
2.87691e-07
3.04064e-07
3.19566e-07
6.5266e-08
1.39234e-07
1.94189e-07
2.40767e-07
2.77863e-07
3.07629e-07
3.30761e-07
3.4929e-07
3.62565e-07
3.75343e-07
1.17404e-07
2.04247e-07
2.62798e-07
3.09741e-07
3.45101e-07
3.72492e-07
3.92882e-07
4.08487e-07
4.18585e-07
4.28598e-07
1.84726e-07
2.73435e-07
3.32027e-07
3.77619e-07
4.0999e-07
4.3407e-07
4.51077e-07
4.63336e-07
4.70192e-07
4.77294e-07
2.65856e-07
3.45637e-07
4.00003e-07
4.42387e-07
4.7077e-07
4.90901e-07
5.04107e-07
5.12746e-07
5.1634e-07
5.20365e-07
3.58838e-07
4.19863e-07
4.65095e-07
5.02e-07
5.25365e-07
5.41031e-07
5.50246e-07
5.55148e-07
5.55761e-07
5.56536e-07
4.61073e-07
4.95406e-07
5.26561e-07
5.55445e-07
5.7261e-07
5.83282e-07
5.8824e-07
5.89404e-07
5.87182e-07
5.85151e-07
5.69807e-07
5.71447e-07
5.83877e-07
6.0197e-07
6.11521e-07
6.16422e-07
6.16808e-07
6.13871e-07
6.09758e-07
6.03269e-07
2.37278e-07
2.5561e-07
2.72614e-07
2.8799e-07
3.01893e-07
3.14403e-07
3.25634e-07
3.35671e-07
3.44614e-07
3.52533e-07
3.59499e-07
3.6556e-07
3.70755e-07
3.75112e-07
3.78641e-07
3.81359e-07
3.83256e-07
3.84394e-07
3.84756e-07
3.84535e-07
2.78122e-07
2.88798e-07
2.9958e-07
3.09601e-07
3.19003e-07
3.27743e-07
3.35821e-07
3.43233e-07
3.50004e-07
3.5614e-07
3.61668e-07
3.66599e-07
3.70951e-07
3.74736e-07
3.77956e-07
3.80612e-07
3.82665e-07
3.84091e-07
3.84699e-07
3.84362e-07
3.28227e-07
3.31638e-07
3.36017e-07
3.40243e-07
3.44543e-07
3.48829e-07
3.53068e-07
3.57189e-07
3.61174e-07
3.6497e-07
3.68566e-07
3.71931e-07
3.75057e-07
3.77924e-07
3.80504e-07
3.82761e-07
3.84591e-07
3.85881e-07
3.86237e-07
3.85427e-07
3.7904e-07
3.76394e-07
3.75255e-07
3.74353e-07
3.73946e-07
3.73972e-07
3.74426e-07
3.75197e-07
3.7627e-07
3.77547e-07
3.79004e-07
3.80573e-07
3.8222e-07
3.83894e-07
3.85535e-07
3.87071e-07
3.88348e-07
3.89215e-07
3.89203e-07
3.88101e-07
4.27915e-07
4.20282e-07
4.14399e-07
4.0909e-07
4.04541e-07
4.00702e-07
3.97642e-07
3.95205e-07
3.93422e-07
3.92166e-07
3.91414e-07
3.91077e-07
3.91107e-07
3.9143e-07
3.91964e-07
3.92612e-07
3.93198e-07
3.93562e-07
3.93248e-07
3.92084e-07
4.72746e-07
4.61142e-07
4.51333e-07
4.42329e-07
4.34312e-07
4.27121e-07
4.20992e-07
4.15673e-07
4.11272e-07
4.07629e-07
4.04741e-07
4.02512e-07
4.00889e-07
3.99792e-07
3.99133e-07
3.98812e-07
3.98664e-07
3.98536e-07
3.98071e-07
3.97112e-07
5.12462e-07
4.97873e-07
4.85082e-07
4.73033e-07
4.62258e-07
4.52205e-07
4.43419e-07
4.35531e-07
4.28748e-07
4.22902e-07
4.18011e-07
4.13977e-07
4.10756e-07
4.08266e-07
4.0643e-07
4.0515e-07
4.043e-07
4.0375e-07
4.03284e-07
4.02747e-07
5.45965e-07
5.29287e-07
5.1468e-07
5.00123e-07
4.87329e-07
4.75053e-07
4.64159e-07
4.5418e-07
4.45363e-07
4.37574e-07
4.30846e-07
4.25117e-07
4.20357e-07
4.16506e-07
4.13507e-07
4.11285e-07
4.09773e-07
4.08865e-07
4.08525e-07
4.08582e-07
5.73154e-07
5.54611e-07
5.4003e-07
5.23719e-07
5.09378e-07
4.95294e-07
4.82533e-07
4.70754e-07
4.6017e-07
4.50707e-07
4.4239e-07
4.35182e-07
4.29064e-07
4.23996e-07
4.19952e-07
4.16883e-07
4.14791e-07
4.13606e-07
4.13484e-07
4.14228e-07
5.93401e-07
5.73564e-07
5.59943e-07
5.43781e-07
5.2882e-07
5.13955e-07
4.99894e-07
4.86678e-07
4.74508e-07
4.63448e-07
4.53557e-07
4.4485e-07
4.37338e-07
4.3101e-07
4.25874e-07
4.21916e-07
4.19209e-07
4.17727e-07
4.17824e-07
4.19296e-07
6.01254e-07
5.8267e-07
5.69209e-07
5.53999e-07
5.39064e-07
5.24213e-07
5.09892e-07
4.96237e-07
4.83475e-07
4.71708e-07
4.61042e-07
4.51527e-07
4.43211e-07
4.36119e-07
4.30301e-07
4.25777e-07
4.22698e-07
4.21066e-07
4.21398e-07
4.23485e-07
5.85812e-07
5.76259e-07
5.63924e-07
5.5071e-07
5.37222e-07
5.236e-07
5.10263e-07
4.97359e-07
4.85139e-07
4.73728e-07
4.63265e-07
4.53829e-07
4.45505e-07
4.38349e-07
4.32449e-07
4.27863e-07
4.24791e-07
4.23273e-07
4.23943e-07
4.26565e-07
5.73391e-07
5.66134e-07
5.56685e-07
5.45365e-07
5.33618e-07
5.21308e-07
5.09052e-07
4.96972e-07
4.85379e-07
4.74415e-07
4.64253e-07
4.55e-07
4.4677e-07
4.39649e-07
4.33755e-07
4.29182e-07
4.2617e-07
4.2477e-07
4.25687e-07
4.28671e-07
5.58593e-07
5.54229e-07
5.47137e-07
5.37658e-07
5.27574e-07
5.16602e-07
5.05497e-07
4.94357e-07
4.83538e-07
4.73192e-07
4.63516e-07
4.54636e-07
4.46687e-07
4.39776e-07
4.3404e-07
4.29605e-07
4.26704e-07
4.25461e-07
4.26628e-07
4.29808e-07
5.41737e-07
5.39653e-07
5.34787e-07
5.27243e-07
5.18935e-07
5.09464e-07
4.99676e-07
4.89648e-07
4.79777e-07
4.70221e-07
4.61201e-07
4.5286e-07
4.45347e-07
4.3879e-07
4.33322e-07
4.29127e-07
4.26325e-07
4.25405e-07
4.25988e-07
4.29906e-07
5.23797e-07
5.23747e-07
5.20884e-07
5.15158e-07
5.08522e-07
5.00538e-07
4.92083e-07
4.83229e-07
4.74391e-07
4.65736e-07
4.575e-07
4.4983e-07
4.4289e-07
4.36812e-07
4.31755e-07
4.2785e-07
4.25368e-07
4.24446e-07
4.25661e-07
4.28728e-07
5.05088e-07
5.06714e-07
5.05601e-07
5.01575e-07
4.96529e-07
4.9002e-07
4.82917e-07
4.75291e-07
4.67562e-07
4.59901e-07
4.52548e-07
4.45659e-07
4.39402e-07
4.33908e-07
4.29337e-07
4.25808e-07
4.23585e-07
4.22718e-07
4.2384e-07
4.26721e-07
4.85992e-07
4.89007e-07
4.89419e-07
4.8693e-07
4.83347e-07
4.78248e-07
4.72466e-07
4.66078e-07
4.59494e-07
4.52886e-07
4.46492e-07
4.4047e-07
4.34984e-07
4.3016e-07
4.2615e-07
4.23057e-07
4.21108e-07
4.20362e-07
4.21344e-07
4.23832e-07
4.66676e-07
4.70794e-07
4.725e-07
4.71383e-07
4.69142e-07
4.65385e-07
4.60892e-07
4.55743e-07
4.50331e-07
4.4482e-07
4.39447e-07
4.34362e-07
4.29723e-07
4.25645e-07
4.22266e-07
4.19666e-07
4.18034e-07
4.17393e-07
4.18186e-07
4.20208e-07
4.47225e-07
4.52207e-07
4.55008e-07
4.55108e-07
4.54094e-07
4.51604e-07
4.48361e-07
4.44442e-07
4.40213e-07
4.35837e-07
4.31532e-07
4.27441e-07
4.23712e-07
4.20447e-07
4.1776e-07
4.15712e-07
4.14436e-07
4.13935e-07
4.14517e-07
4.15994e-07
4.27607e-07
4.33253e-07
4.36974e-07
4.38161e-07
4.38282e-07
4.37003e-07
4.34981e-07
4.32289e-07
4.29262e-07
4.26052e-07
4.2286e-07
4.19815e-07
4.17051e-07
4.14656e-07
4.12719e-07
4.11279e-07
4.10412e-07
4.10084e-07
4.10463e-07
4.11377e-07
4.0773e-07
4.13891e-07
4.18403e-07
4.20583e-07
4.21775e-07
4.21673e-07
4.20863e-07
4.19407e-07
4.17609e-07
4.15599e-07
4.13561e-07
4.11609e-07
4.09859e-07
4.08385e-07
4.0725e-07
4.06472e-07
4.06067e-07
4.05968e-07
4.06186e-07
4.06558e-07
3.87401e-07
3.93988e-07
3.99216e-07
4.02346e-07
4.04592e-07
4.05672e-07
4.06097e-07
4.05914e-07
4.05385e-07
4.04625e-07
4.03789e-07
4.02977e-07
4.02286e-07
4.01774e-07
4.01486e-07
4.01416e-07
4.01529e-07
4.01724e-07
4.01853e-07
4.01748e-07
3.66433e-07
3.73429e-07
3.7936e-07
3.83456e-07
3.86793e-07
3.89103e-07
3.90819e-07
3.91972e-07
3.92778e-07
3.93326e-07
3.93747e-07
3.9412e-07
3.94524e-07
3.95007e-07
3.95593e-07
3.96265e-07
3.96945e-07
3.97499e-07
3.97638e-07
3.97165e-07
3.44496e-07
3.5198e-07
3.58694e-07
3.63859e-07
3.68397e-07
3.72052e-07
3.75172e-07
3.77766e-07
3.80002e-07
3.81942e-07
3.83686e-07
3.85295e-07
3.86829e-07
3.88325e-07
3.89797e-07
3.91219e-07
3.92492e-07
3.93459e-07
3.93721e-07
3.9303e-07
3.2147e-07
3.29626e-07
3.37288e-07
3.43704e-07
3.49616e-07
3.54781e-07
3.59456e-07
3.63624e-07
3.67401e-07
3.70822e-07
3.73955e-07
3.76841e-07
3.79524e-07
3.82031e-07
3.8437e-07
3.86519e-07
3.88377e-07
3.89781e-07
3.90273e-07
3.89538e-07
2.96899e-07
3.06083e-07
3.1502e-07
3.23006e-07
3.30579e-07
3.37509e-07
3.4396e-07
3.49886e-07
3.55354e-07
3.6037e-07
3.64973e-07
3.69184e-07
3.73031e-07
3.76533e-07
3.79695e-07
3.82505e-07
3.84881e-07
3.86683e-07
3.87477e-07
3.86888e-07
2.71273e-07
2.81962e-07
2.92579e-07
3.025e-07
3.12045e-07
3.20993e-07
3.29418e-07
3.37252e-07
3.44516e-07
3.51197e-07
3.57305e-07
3.62846e-07
3.67834e-07
3.72278e-07
3.76182e-07
3.79545e-07
3.82316e-07
3.84402e-07
3.85475e-07
3.85163e-07
2.44086e-07
2.5708e-07
2.70043e-07
2.82454e-07
2.94416e-07
3.05727e-07
3.1639e-07
3.26322e-07
3.35517e-07
3.43947e-07
3.51612e-07
3.58503e-07
3.64622e-07
3.69968e-07
3.74531e-07
3.78307e-07
3.81262e-07
3.83377e-07
3.84499e-07
3.84475e-07
2.18518e-07
2.3447e-07
2.50227e-07
2.65381e-07
2.79917e-07
2.93634e-07
3.0651e-07
3.1846e-07
3.29473e-07
3.39521e-07
3.48606e-07
3.56716e-07
3.63846e-07
3.69983e-07
3.75097e-07
3.79161e-07
3.8212e-07
3.83997e-07
3.84739e-07
3.84619e-07
3.42902e-07
3.66095e-07
4.05618e-07
4.49112e-07
4.92359e-07
5.30412e-07
5.61213e-07
5.83298e-07
5.9699e-07
5.99831e-07
3.24778e-07
3.46402e-07
3.8288e-07
4.23993e-07
4.66307e-07
5.05126e-07
5.38351e-07
5.63855e-07
5.81556e-07
5.88506e-07
3.08546e-07
3.29166e-07
3.63107e-07
4.0162e-07
4.41938e-07
4.79737e-07
5.13254e-07
5.40704e-07
5.62124e-07
5.75333e-07
2.93699e-07
3.13646e-07
3.45485e-07
3.8169e-07
4.20146e-07
4.56845e-07
4.90058e-07
5.18093e-07
5.40538e-07
5.57553e-07
2.79771e-07
2.99257e-07
3.29309e-07
3.63339e-07
3.99809e-07
4.35134e-07
4.67736e-07
4.96275e-07
5.19435e-07
5.38629e-07
2.66695e-07
2.85889e-07
3.1447e-07
3.46571e-07
3.8112e-07
4.14893e-07
4.46373e-07
4.74668e-07
4.9784e-07
5.18449e-07
2.5423e-07
2.73223e-07
3.00559e-07
3.30939e-07
3.63684e-07
3.95932e-07
4.26219e-07
4.54037e-07
4.76874e-07
4.97939e-07
2.42335e-07
2.61167e-07
2.87426e-07
3.16256e-07
3.47286e-07
3.77969e-07
4.06912e-07
4.33955e-07
4.56287e-07
4.77372e-07
2.30927e-07
2.49595e-07
2.74888e-07
3.02308e-07
3.31734e-07
3.60893e-07
3.88479e-07
4.14565e-07
4.36237e-07
4.56958e-07
2.20008e-07
2.38456e-07
2.62828e-07
2.88908e-07
3.1679e-07
3.44423e-07
3.70626e-07
3.95626e-07
4.16569e-07
4.36727e-07
2.09601e-07
2.27729e-07
2.51157e-07
2.75911e-07
3.02271e-07
3.28373e-07
3.53181e-07
3.76999e-07
3.97141e-07
4.16601e-07
1.99792e-07
2.17437e-07
2.39815e-07
2.63173e-07
2.87967e-07
3.1249e-07
3.35869e-07
3.58434e-07
3.77732e-07
3.96428e-07
1.90744e-07
2.07656e-07
2.2875e-07
2.50527e-07
2.73624e-07
2.96477e-07
3.18375e-07
3.3963e-07
3.58046e-07
3.75949e-07
1.82702e-07
1.98501e-07
2.17938e-07
2.37836e-07
2.59019e-07
2.80056e-07
3.00391e-07
3.20281e-07
3.37794e-07
3.54909e-07
1.76141e-07
1.90163e-07
2.07235e-07
2.24723e-07
2.4364e-07
2.62671e-07
2.81357e-07
2.99864e-07
3.16497e-07
3.32885e-07
1.71618e-07
1.82729e-07
1.96491e-07
2.10957e-07
2.27196e-07
2.44006e-07
2.6096e-07
2.78085e-07
2.939e-07
3.09665e-07
1.70377e-07
1.76381e-07
1.84894e-07
1.95272e-07
2.08336e-07
2.22784e-07
2.38063e-07
2.53972e-07
2.692e-07
2.84608e-07
1.72633e-07
1.69923e-07
1.71555e-07
1.77266e-07
1.86908e-07
1.98997e-07
2.12776e-07
2.27739e-07
2.42711e-07
2.58104e-07
1.81482e-07
1.61779e-07
1.52416e-07
1.52421e-07
1.59036e-07
1.69509e-07
1.82646e-07
1.97528e-07
2.13082e-07
2.29241e-07
1.85036e-07
1.4168e-07
1.26154e-07
1.21728e-07
1.26867e-07
1.36882e-07
1.50516e-07
1.66401e-07
1.83502e-07
2.01296e-07
)
;

boundaryField
{
    left
    {
        type            calculated;
        value           nonuniform List<scalar> 
30
(
3.38993e-07
3.21079e-07
3.05045e-07
2.90372e-07
2.76635e-07
2.63768e-07
2.51553e-07
2.39959e-07
2.28922e-07
2.18458e-07
2.08612e-07
1.99486e-07
1.91262e-07
1.84212e-07
1.78833e-07
1.75855e-07
1.76762e-07
1.8334e-07
2.01768e-07
2.30384e-07
1.53532e-06
9.85188e-07
7.4171e-07
6.16526e-07
5.38539e-07
4.8318e-07
4.41668e-07
4.08695e-07
3.81776e-07
3.58536e-07
)
;
    }
    right
    {
        type            calculated;
        value           nonuniform List<scalar> 
30
(
3.8447e-07
3.84363e-07
3.85392e-07
3.88045e-07
3.92015e-07
3.97046e-07
4.02695e-07
4.08559e-07
4.14235e-07
4.19351e-07
4.23557e-07
4.26686e-07
4.28807e-07
4.29954e-07
4.29943e-07
4.28853e-07
4.26854e-07
4.23944e-07
4.20293e-07
4.1605e-07
4.11404e-07
4.06558e-07
4.01727e-07
3.97129e-07
3.9299e-07
3.89502e-07
3.86867e-07
3.8516e-07
3.84491e-07
3.84544e-07
)
;
    }
    down
    {
        type            calculated;
        value           nonuniform List<scalar> 
30
(
2.20524e-09
1.10749e-09
1.72866e-08
4.28243e-08
7.2241e-08
1.02994e-07
1.33039e-07
1.61687e-07
1.87964e-07
2.12308e-07
2.34225e-07
2.53322e-07
2.70865e-07
2.86638e-07
3.00866e-07
3.13617e-07
3.25047e-07
3.35235e-07
3.44301e-07
3.52316e-07
3.59358e-07
3.65476e-07
3.70714e-07
3.751e-07
3.78645e-07
3.81367e-07
3.83258e-07
3.84388e-07
3.84752e-07
3.84629e-07
)
;
    }
    up
    {
        type            calculated;
        value           nonuniform List<scalar> 
30
(
1.8225e-07
1.39992e-07
1.25288e-07
1.20783e-07
1.25786e-07
1.35651e-07
1.49192e-07
1.6505e-07
1.82137e-07
2.00003e-07
2.1728e-07
2.33359e-07
2.49268e-07
2.64549e-07
2.79216e-07
2.93045e-07
3.0603e-07
3.18073e-07
3.29172e-07
3.39294e-07
3.48443e-07
3.56608e-07
3.63783e-07
3.69956e-07
3.75095e-07
3.79173e-07
3.82134e-07
3.84003e-07
3.84731e-07
3.84676e-07
)
;
    }
    hole
    {
        type            calculated;
        value           nonuniform List<scalar> 
20
(
6.86883e-07
8.05581e-07
9.21577e-07
1.03258e-06
1.13508e-06
1.22968e-06
1.31124e-06
1.38989e-06
1.4503e-06
1.52084e-06
2.55441e-10
2.427e-10
1.43025e-08
4.68633e-08
9.76334e-08
1.66167e-07
2.50199e-07
3.47358e-07
4.546e-07
5.68882e-07
)
;
    }
    frontAndBack
    {
        type            empty;
    }
}


// ************************************************************************* //
