/*--------------------------------*- C++ -*----------------------------------*\
  =========                 |
  \\      /  F ield         | OpenFOAM: The Open Source CFD Toolbox
   \\    /   O peration     | Website:  https://openfoam.org
    \\  /    A nd           | Version:  9
     \\/     M anipulation  |
\*---------------------------------------------------------------------------*/
FoamFile
{
    format      ascii;
    class       volScalarField;
    location    "1";
    object      sigmaEq;
}
// * * * * * * * * * * * * * * * * * * * * * * * * * * * * * * * * * * * * * //

dimensions      [1 -1 -2 0 0 0 0];

internalField   nonuniform List<scalar> 
1000
(
171203
161902
158958
158880
158267
157203
155610
153538
151394
148761
199811
181519
172663
168696
165467
162552
159556
156477
153248
150209
227732
200506
185416
177134
170943
165895
161300
157006
152757
149032
254424
218605
197194
184299
174864
167467
161134
155561
150300
145888
279057
235384
207767
190116
177248
167346
159191
152283
146053
140926
301787
250776
217074
194607
178200
165724
155724
147489
140337
134490
321370
263931
224212
197078
177324
162470
150825
141419
133499
126999
340180
274856
228828
197444
174795
158030
145146
134903
126481
119504
354397
279384
227003
192795
169108
151789
138678
128268
119792
112626
372353
273988
219541
185977
163751
147231
134693
124554
116247
109033
3217.19
2905.38
5732.82
11700.7
18697.8
26059.5
33268.3
40165.1
46507.2
52404.9
2942.77
7750.56
16973.4
26114.4
34305.6
41638.8
48092.1
53904.2
58914
63661.9
6514.87
18977.2
30745.5
41306.8
50166.4
57563.4
63628.9
68766.7
72825.7
76724.2
15064.2
32857.6
46150.7
57260.3
66144.9
73280.2
78866.3
83384.4
86650.2
89864.8
27949.8
48659.9
62748.2
73870.8
82293.5
88810.3
93692.5
97467.1
99929
102456
44900.4
65744.7
79713.5
90396.9
98039.6
103704
107726
110655
112294
114098
65463.6
83850.2
96634.4
106384
112978
117616
120666
122674
123481
124515
89093
102747
113173
121408
126680
130144
132156
133202
133226
133441
115087
122226
129153
135246
138893
141030
141927
141982
141255
140705
142721
142040
144438
147736
149410
150017
149703
148680
147387
145729
57704
62287.8
66531.2
70365
73831.6
76948
79745.8
82244.7
84471.1
86441.6
88174.7
89681.8
90973.2
92055.1
92930.5
93604.3
94073.1
94354
94443.6
94401.4
67329.9
70073.6
72836.7
75387.6
77783.6
79998.6
82045.3
83917.3
85625.5
87169.5
88558.4
89795.1
90885.1
91832
92636.5
93301.7
93819.9
94191
94375.5
94362.7
78938.6
79934.7
81191.1
82371
83575
84747.5
85901.3
87006.9
88068.5
89069.3
90010.2
90883.9
91689.3
92423.1
93081.6
93658
94133.2
94488.8
94641.3
94559.7
90856.3
90358.9
90295.1
90235.1
90320.4
90478.5
90738.1
91052.8
91430.2
91839.8
92279.7
92733
93193
93649.4
94089.3
94500.3
94850.5
95113.1
95187.7
95048.8
102366
100613
99410.6
98271.4
97365.3
96595.9
96021.4
95576.2
95280.6
95093.7
95015.8
95021.9
95103.2
95242.2
95421.9
95623.2
95809.1
95950.3
95946
95779.2
113045
110251
108094
106030
104281
102695
101380
100243
99321.7
98567.7
97983.7
97542.2
97233.1
97035.9
96932.2
96900.8
96905.4
96918.1
96858.2
96707.6
122621
118994
116096
113254
110818
108527
106564
104806
103312
102031
100968
100097
99406.6
98876.5
98488.8
98222.2
98049.1
97941.8
97853.3
97757.1
130853
126585
123200
119705
116741
113889
111395
109121
107128
105377
103872
102595
101536
100680
100011
99512.2
99166.7
98952.4
98860.7
98853.8
137721
132863
129363
125396
122004
118691
115725
113004
110576
108415
106522
104885
103496
102343
101417
100703
100204
99897.4
99821.9
99924.7
142992
137850
134384
130372
126729
123164
119836
116739
113910
111355
109081
107084
105361
103907
102717
101785
101125
100725
100669
100893
145320
140488
136929
133072
129375
125759
122325
119084
116084
113335
110855
108648
106721
105071
103707
102627
101861
101403
101374
101701
141875
139027
135749
132356
128996
125664
122453
119380
116496
113819
111376
109177
107237
105562
104167
103060
102284
101836
101867
102296
139193
136836
134227
131251
128278
125231
122254
119355
116602
114015
111629
109462
107533
105856
104454
103340
102566
102134
102210
102705
135823
134120
132072
129521
126935
124194
121479
118793
116212
113761
111481
109393
107522
105887
104515
103426
102672
102270
102395
102927
131922
130759
129249
127150
124979
122585
120173
117740
115374
113102
110970
109002
107228
105671
104357
103321
102585
102257
102241
102955
127700
127033
126012
124349
122577
120533
118435
116276
114151
112088
110136
108322
106681
105234
104016
103047
102389
102059
102201
102717
123250
123011
122425
121176
119787
118097
116320
114452
112588
110758
109013
107383
105901
104592
103488
102611
102018
101711
101841
102324
118663
118794
118594
117727
116698
115350
113893
112322
110731
109152
107635
106210
104912
103763
102795
102026
101506
101238
101350
101765
113987
114428
114563
114046
113353
112337
111195
109924
108617
107301
106029
104829
103734
102765
101951
101306
100871
100645
100732
101065
109245
109946
110375
110175
109795
109097
108264
107296
106277
105237
104224
103264
102388
101617
100974
100468
100131
99955.4
100018
100257
104439
105357
106041
106133
106047
105658
105131
104467
103744
102989
102245
101539
100899
100340
99882.1
99531.2
99304.1
99190.3
99231.8
99378.2
99548.5
100654
101565
101930
102127
102042
101821
101466
101047
100587
100126
99686.8
99292.9
98959.8
98700.2
98516.4
98414
98374.7
98406.7
98467.3
94538.8
95812.5
96936.5
97566.3
98045.2
98266.1
98359.9
98324.7
98220.8
98068.5
97902.2
97741.3
97605.7
97508.2
97457.2
97451.8
97485.6
97535.9
97574.8
97565.6
89366.2
90807
92142.6
93044.2
93815
94356.3
94779.9
95079.9
95307.8
95478.7
95620.6
95749.2
95881.5
96027
96191.3
96370.8
96550.4
96703.3
96770
96712.5
83969.2
85595.6
87162.4
88360.9
89449.8
90338.8
91118.4
91779.6
92361.9
92875.2
93340.9
93771.1
94178.7
94571.2
94951.8
95316.5
95646.4
95910.4
96026
95949
78305.6
80163.4
82002.2
83541.5
84991
86267.5
87439.6
88493.7
89457.5
90334.8
91140.9
91882.5
92569.8
93208.4
93801
94344
94817.9
95193.1
95374.5
95307.9
72309.6
74479.1
76662.5
78614.4
80488.7
82210.5
83824.1
85312
86690.1
87956.3
89119.8
90183
91152.4
92032
92823.9
93527.4
94126.7
94597.6
94851.5
94823.3
66030.3
68626.7
71252.7
73705.8
76080.3
78309.2
80413.8
82373.3
84192.7
85866.4
87397
88784.7
90032.1
91141.5
92114.6
92951.7
93644.5
94177.8
94487.5
94508.2
59473.5
62670.3
65883.1
68955.2
71924
74730.7
77379.9
79847.1
82133.2
84228.7
86133.9
87846.6
89367.2
90694
91827
92764.1
93499.4
94031.6
94331.6
94381.6
53125.6
57088.6
61006.3
64772.7
68386.8
71796.7
74998.8
77969.8
80708.1
83206.9
85465.2
87481.8
89254.2
90779.2
92049.9
93059
93792.3
94256.3
94438.8
94417.4
102940
106434
113071
120504
128142
134882
140265
143909
145848
145606
97334.6
100628
106873
114072
121780
128951
135116
139740
142714
143336
92281.4
95414.2
101257
108050
115464
122539
128882
134062
138018
140291
87649.8
90683.9
96226.4
102696
109881
116878
123296
128727
132982
136192
83302.9
86255.4
91514.7
97637.8
104514
111328
117723
123385
127907
131757
79216.8
82118.3
87156.3
92983
99565.9
106159
112409
118114
122709
126978
75310.8
78170.6
83013.7
88564.6
94858.1
101220
107301
112997
117598
122069
71565.9
74392.5
79070.9
84375.9
90393.6
96507.2
102378
107985
112543
117098
67944.6
70736.7
75265.8
80344.6
86100.4
91967.4
97621
103095
107578
112120
64436.7
67186.6
71573.4
76436.9
81938.9
87553.6
92978.9
98284.2
102673
107147
61033.4
63724.5
67962.6
72610.3
77859.5
83216.9
88409.3
93520.5
97799.4
102169
57742.6
60348.4
64415.6
68830.8
73815.8
78901.8
83852.3
88750.9
92908.4
97152.3
54589.1
57065.8
60915.2
65060.5
69751.4
74545.3
79240.7
83911.5
87939.1
92049.1
51620.9
53896.9
57448.7
61260.3
65609
70077.4
74498.7
78929.5
82822.6
86798.2
48934.2
50882.2
53988.9
57356.2
61287.1
65388.1
69515.9
73700.8
77464.2
81319.3
46664.3
48043.5
50489.2
53274.4
56694.8
60380
64196.3
68137.4
71787.2
75546.4
45084.4
45434.1
46801.2
48779.8
51580.4
54818.5
58334.1
62067
65653.4
69376.7
44363.1
42815.7
42686.6
43700.2
45817.6
48606.7
51863.2
55452.4
59056
62827.1
45217.1
39831.7
37334.4
37181.7
38709.1
41213.8
44398.5
48034.2
51837.5
55826.7
45559.4
34186.1
30282.9
29162.7
30425
32896.1
36266.9
40201.1
44436.2
48854
)
;

boundaryField
{
    left
    {
        type            calculated;
        value           nonuniform List<scalar> 
30
(
102037
96451
91415.1
86792.1
82457.3
78385.7
74502.5
70790.5
67216.2
63772.5
60454.2
57274
54260.7
51469.3
49002.2
47038.7
45926.8
46240.4
49705.3
57278
396000
266806
212372
181481
161205
145617
133575
123632
115411
108162
)
;
    }
    right
    {
        type            calculated;
        value           nonuniform List<scalar> 
30
(
94382.5
94362.8
94549.6
95032.7
95760
96689.6
97743.7
98848.6
99928.4
100910
101722
102330
102743
102968
102965
102753
102362
101797
101091
100275
99388.4
98470.3
97562.3
96704.9
95939.2
95298.9
94818
94507.6
94386.4
94395.8
)
;
    }
    down
    {
        type            calculated;
        value           nonuniform List<scalar> 
30
(
3023.13
2680.84
4122.27
9903.2
17059.2
24629.7
32053.9
39143.3
45651.5
51683.9
57115.8
61850
66199.3
70110.3
73638.6
76800.4
79634.7
82161.6
84410
86398.1
88144.6
89662.1
90961.4
92049
92928.2
93603.5
94072.6
94353.1
94443.2
94412.4
)
;
    }
    up
    {
        type            calculated;
        value           nonuniform List<scalar> 
30
(
44236.2
33773.7
30137.2
29023.4
30259.7
32700
36050.6
39976.4
44207.6
48634.5
52915.7
56901.2
60844.9
64633.2
68270
71699.3
74919.3
77905.7
80658.1
83168.5
85437.4
87462.8
89242.2
90773.1
92047.8
93059.6
93793.7
94257.3
94437.9
94424.5
)
;
    }
    hole
    {
        type            calculated;
        value           nonuniform List<scalar> 
20
(
170232
199696
228442
255907
281231
304578
324679
344066
358940
376349
2870.91
2870.11
3363.06
10688.1
23261.4
40383.2
61394.7
85668.7
112424
140890
)
;
    }
    frontAndBack
    {
        type            empty;
    }
}


// ************************************************************************* //
