/*--------------------------------*- C++ -*----------------------------------*\
  =========                 |
  \\      /  F ield         | OpenFOAM: The Open Source CFD Toolbox
   \\    /   O peration     | Website:  https://openfoam.org
    \\  /    A nd           | Version:  9
     \\/     M anipulation  |
\*---------------------------------------------------------------------------*/
FoamFile
{
    format      ascii;
    class       volSymmTensorField;
    location    "1";
    object      sigma;
}
// * * * * * * * * * * * * * * * * * * * * * * * * * * * * * * * * * * * * * //

dimensions      [1 -1 -2 0 0 0 0];

internalField   nonuniform List<symmTensor> 
1000
(
(123019 -84197.5 -7.77819e-11 71477.3 -7.66692e-11 19463.9)
(144290 -64931.8 -6.92387e-11 39037.4 -6.30643e-11 19169.9)
(154980 -49732.8 -6.12899e-11 23750.7 -5.25305e-11 19138.8)
(159501 -38271.7 -5.55305e-11 11736.7 -4.45853e-11 18738.9)
(161154 -29053.9 -5.06077e-11 4714.52 -3.82472e-11 18428.2)
(160477 -21849.4 -4.68156e-11 -526.01 -3.33018e-11 18015.5)
(158856 -15994.7 -4.36559e-11 -3900.32 -2.93007e-11 17644.8)
(156355 -11339.9 -4.11643e-11 -6340.91 -2.61268e-11 17252.4)
(153779 -7471.18 -3.90553e-11 -7944.63 -2.34972e-11 16910.8)
(150370 -4252.92 -3.73889e-11 -9481.88 -2.13087e-11 16489.9)
(155979 -93608.8 -8.21498e-11 72108.5 -8.29545e-11 22604.7)
(170005 -67020.3 -6.90706e-11 41154.5 -6.44596e-11 21781.4)
(175733 -47824.9 -5.86117e-11 27236.5 -5.12693e-11 21407.2)
(176271 -34032.7 -5.14643e-11 15840.8 -4.17732e-11 20689.2)
(174851 -23518 -4.57809e-11 9361.24 -3.45774e-11 20134.5)
(171656 -15654 -4.16544e-11 4337.39 -2.91966e-11 19501.5)
(167980 -9513.97 -3.83869e-11 1114.4 -2.50105e-11 18947.4)
(163782 -4846.94 -3.59814e-11 -1433.13 -2.18293e-11 18384.2)
(159623 -1064.46 -3.39927e-11 -2982.11 -1.92621e-11 17894.5)
(155031 1962.3 -3.25837e-11 -5079.92 -1.71945e-11 17316.1)
(191474 -99551.9 -8.46715e-11 69444.7 -8.68395e-11 25762.2)
(196199 -66936.3 -6.76359e-11 42317.3 -6.43737e-11 24381.5)
(195844 -44517.4 -5.50271e-11 31038.8 -4.90724e-11 23648.2)
(191715 -28900.2 -4.67376e-11 21013 -3.83814e-11 22600)
(186816 -17468.1 -4.04875e-11 15525.7 -3.05926e-11 21793.8)
(180859 -9230.52 -3.61818e-11 10988 -2.49744e-11 20935.9)
(175017 -3042.7 -3.29356e-11 8090.21 -2.07658e-11 20199.2)
(169041 1476.66 -3.07035e-11 5568.7 -1.76884e-11 19466.5)
(163438 4990.13 -2.89434e-11 4082.96 -1.53064e-11 18841.2)
(157607 7845.96 -2.77497e-11 1649 -1.33499e-11 18117.3)
(228359 -101178 -8.47859e-11 64005.2 -8.77647e-11 28872.3)
(222284 -64416.6 -6.47782e-11 42653.1 -6.26329e-11 26925.5)
(215006 -39864.6 -5.05922e-11 35112.2 -4.59764e-11 25828.3)
(205652 -23125.4 -4.15383e-11 27104.5 -3.45764e-11 24440.9)
(196941 -11277.5 -3.50054e-11 22968.9 -2.65398e-11 23375.2)
(188055 -3017.44 -3.07239e-11 19097.9 -2.09244e-11 22287.4)
(179968 2955.89 -2.76643e-11 16574.4 -1.68715e-11 21362.5)
(172255 7161.87 -2.57038e-11 14108.1 -1.40091e-11 20465.2)
(165258 10263.9 -2.42762e-11 12582.1 -1.19062e-11 19700.4)
(158406 12789.2 -2.33647e-11 9967.95 -1.01711e-11 18862.4)
(264973 -97728.2 -8.19886e-11 56455.5 -8.52335e-11 31831.8)
(247491 -59117.9 -6.02874e-11 42331.7 -5.90101e-11 29355.1)
(232771 -33795.3 -4.52838e-11 39439.1 -4.19339e-11 27903.9)
(217831 -16833.8 -3.59769e-11 33993.6 -3.04417e-11 26177.7)
(205103 -5221.53 -2.95414e-11 31508 -2.26015e-11 24850.9)
(193218 2602.29 -2.55596e-11 28439.8 -1.73003e-11 23533.6)
(182916 8028.24 -2.28933e-11 26315.2 -1.36273e-11 22422.8)
(173546 11693.4 -2.13462e-11 23896.6 -1.11335e-11 21366.5)
(165303 14219.3 -2.03628e-11 22230.5 -9.41823e-12 20467.4)
(157559 16278 -1.98157e-11 19437.2 -7.99589e-12 19527)
(300492 -89013.1 -7.60288e-11 47979.5 -7.9142e-11 34653.4)
(271463 -50816.7 -5.39564e-11 41936.1 -5.33667e-11 31682.1)
(249029 -26223.1 -3.90029e-11 44368.8 -3.68931e-11 29891.6)
(228232 -10145.5 -3.0116e-11 41779.8 -2.60596e-11 27815.2)
(211368 437.091 -2.42726e-11 41047.6 -1.89526e-11 26218.1)
(196503 7277.2 -2.09425e-11 38753 -1.43333e-11 24667)
(184082 11794.3 -1.89085e-11 36932.3 -1.12826e-11 23369.8)
(173205 14687 -1.79276e-11 34476 -9.3108e-12 22160.7)
(163878 16502.2 -1.74845e-11 32544.3 -8.07123e-12 21132.4)
(155403 17984.7 -1.73673e-11 29550.5 -7.03488e-12 20102.6)
(332689 -74478.8 -6.65208e-11 39508.6 -6.91384e-11 37198.2)
(293066 -38896.3 -4.53514e-11 42105.5 -4.53011e-11 33850.6)
(262747 -16924.2 -3.15868e-11 50362.6 -3.07138e-11 31729.1)
(236088 -3132.5 -2.40145e-11 50612.8 -2.14829e-11 29290.7)
(215268 5436.48 -1.94117e-11 51420.6 -1.57673e-11 27417.3)
(197711 10653.6 -1.71646e-11 49637.7 -1.22555e-11 25635.7)
(183488 13882.9 -1.60254e-11 47868.2 -1.0076e-11 24160.4)
(171390 15791.4 -1.57586e-11 45192.3 -8.76554e-12 22810.6)
(161239 16812.1 -1.59198e-11 42837.2 -8.05495e-12 21665.3)
(152225 17661.5 -1.62682e-11 39584.4 -7.44133e-12 20559.7)
(363718 -54082.7 -5.29684e-11 33601.6 -5.52363e-11 39867.9)
(312523 -22748 -3.37369e-11 45175.4 -3.44451e-11 36064.4)
(273918 -5757.01 -2.26861e-11 59227.8 -2.3334e-11 33554.4)
(241584 3809.04 -1.77825e-11 61415.8 -1.69945e-11 30689.5)
(217176 9243.41 -1.52476e-11 62858.2 -1.34083e-11 28498.2)
(197416 12240.1 -1.45446e-11 60873.4 -1.13926e-11 26474.1)
(181819 13934.8 -1.45146e-11 58618.6 -1.02402e-11 24819.3)
(168875 14792.7 -1.50338e-11 55401 -9.62889e-12 23339.6)
(158193 15076.8 -1.5778e-11 52424.1 -9.40405e-12 22091)
(148855 15351.3 -1.65544e-11 48840 -9.17199e-12 20924.9)
(389562 -25296.4 -3.34944e-11 33408.9 -3.57988e-11 42535.4)
(325709 -2323.46 -1.86812e-11 55244.9 -2.08495e-11 38240.5)
(278494 5772.98 -1.31374e-11 73081.3 -1.58131e-11 35130)
(241774 8810.96 -1.26751e-11 74673.2 -1.38671e-11 31752.8)
(215458 10340.3 -1.29162e-11 74706.2 -1.28886e-11 29243.4)
(194806 10869.5 -1.40275e-11 71304.7 -1.25101e-11 27008.5)
(178802 11134.4 -1.51009e-11 67840.5 -1.22996e-11 25212.4)
(165651 11140.5 -1.62987e-11 63742.6 -1.22462e-11 23639.7)
(154855 10952.9 -1.74555e-11 60021.8 -1.23255e-11 22320.2)
(145440 10860.7 -1.85182e-11 56096.3 -1.23345e-11 21118.1)
(423308 22609 2.12684e-12 58250.6 -3.92652e-12 48002.6)
(331662 25249.2 3.678e-12 86689.8 -2.84296e-12 41401.4)
(277983 16658.6 -2.92402e-12 95994.6 -8.90087e-12 36903.1)
(240150 10791.2 -9.04908e-12 91551.9 -1.2844e-11 32896.4)
(213738 8510.01 -1.24819e-11 86300.1 -1.43354e-11 29948.4)
(193193 7239.25 -1.51642e-11 79919.4 -1.51146e-11 27483.9)
(177298 6788.76 -1.69862e-11 74394.4 -1.53482e-11 25536.4)
(164213 6528.16 -1.85071e-11 69210.3 -1.54543e-11 23885.5)
(153433 6324.5 -1.97783e-11 64773.3 -1.55317e-11 22512.7)
(143980 6187.39 -2.09008e-11 60639.1 -1.5567e-11 21290.8)
(-563.908 197.345 -4.02202e-11 -319.207 -1.87696e-11 2750.4)
(450.108 -705.11 -4.06919e-11 60.9496 -1.93825e-11 2870.13)
(4528.82 -2216.28 -4.15057e-11 -227.619 -2.0387e-11 3228.43)
(11055.6 -3425.3 -4.20063e-11 -465.588 -2.11841e-11 3827.38)
(18639 -4170.87 -4.21477e-11 -589.511 -2.16694e-11 4539.57)
(26597.2 -4594.9 -4.20577e-11 -649.72 -2.19384e-11 5294.9)
(34393.4 -4761.15 -4.18037e-11 -660.02 -2.20351e-11 6040.23)
(41842.5 -4773.84 -4.14632e-11 -632.358 -2.20298e-11 6756.38)
(48671.2 -4647.15 -4.10651e-11 -618.819 -2.19316e-11 7412.91)
(55037.5 -4549.06 -4.06926e-11 -512.895 -2.18551e-11 8031.92)
(743.875 -759.501 -4.07285e-11 -47.6816 -1.94165e-11 2889.64)
(6005.12 -4103.52 -4.2239e-11 2528.73 -2.17049e-11 3566.4)
(13643.8 -7796.59 -4.42175e-11 2638.9 -2.41792e-11 4280.77)
(21748.7 -10618.2 -4.57524e-11 1840.94 -2.60492e-11 4976.89)
(29897.1 -12353.4 -4.65894e-11 1074.74 -2.7188e-11 5687.34)
(37641.5 -13325.9 -4.69496e-11 381.109 -2.78152e-11 6369.98)
(44823 -13676.2 -4.69179e-11 -151.375 -2.80277e-11 7015.38)
(51468.4 -13652.3 -4.66501e-11 -532.699 -2.79919e-11 7623.56)
(57328 -13274.7 -4.61859e-11 -859.761 -2.77203e-11 8163.04)
(62885.6 -12973.7 -4.57407e-11 -889.972 -2.75061e-11 8695.67)
(2301.64 -3731.33 -4.21729e-11 2534.57 -2.14617e-11 3214.48)
(11511.1 -10244.8 -4.54671e-11 5448.66 -2.58831e-11 4272.84)
(22060.3 -14819.1 -4.7945e-11 5050.08 -2.89357e-11 5221.24)
(31749.8 -17883.2 -4.97288e-11 3093.17 -3.09449e-11 5979.3)
(40666.2 -19571.5 -5.06507e-11 1282.18 -3.20315e-11 6684.17)
(48518.4 -20365.3 -5.10206e-11 -294.571 -3.25221e-11 7311.17)
(55412.9 -20461.6 -5.0936e-11 -1490.9 -3.25519e-11 7880.32)
(61556.4 -20134.6 -5.05686e-11 -2354.21 -3.23042e-11 8405.85)
(66693.2 -19422 -4.99716e-11 -3004.94 -3.18027e-11 8853.76)
(71665.7 -18822.6 -4.93879e-11 -3193.58 -3.1386e-11 9320.35)
(5521.31 -8389.01 -4.41278e-11 8463.78 -2.46998e-11 3941.45)
(18958.3 -17606 -4.92567e-11 9227.02 -3.08945e-11 5222.12)
(31910.8 -22414.8 -5.19418e-11 7661.74 -3.40793e-11 6310.39)
(42969.6 -25111 -5.3604e-11 4482.55 -3.58156e-11 7109.24)
(52533.5 -26226.8 -5.4276e-11 1688.61 -3.64978e-11 7805.37)
(60494.7 -26433.8 -5.43884e-11 -732.441 -3.65775e-11 8382.72)
(67142.5 -25983.2 -5.4064e-11 -2592.92 -3.62276e-11 8881.56)
(72843.1 -25149.3 -5.34688e-11 -3969.29 -3.563e-11 9329.18)
(77303.9 -23989.7 -5.26753e-11 -5008.56 -3.48218e-11 9685.87)
(81747.6 -23009.2 -5.19057e-11 -5424.61 -3.41451e-11 10087.2)
(11014.4 -14967.7 -4.68019e-11 17142.2 -2.92775e-11 5082.07)
(28950.8 -25619.8 -5.32893e-11 13383.7 -3.63473e-11 6439.5)
(43906.7 -29941 -5.58783e-11 9696 -3.9161e-11 7561.71)
(55909.5 -31737.1 -5.715e-11 4959.18 -4.02613e-11 8338.88)
(65741.7 -31854.4 -5.73229e-11 1137.17 -4.02519e-11 8989.55)
(73542.2 -31150.2 -5.69776e-11 -2069.36 -3.97042e-11 9498.14)
(79762.6 -29918.4 -5.62579e-11 -4497.9 -3.88185e-11 9918.31)
(84898.1 -28409.7 -5.53194e-11 -6289.41 -3.776e-11 10285)
(88624 -26714.7 -5.4263e-11 -7625.48 -3.65871e-11 10552.4)
(92492.3 -25272.9 -5.32494e-11 -8198.79 -3.55984e-11 10889.8)
(19505.9 -23612.2 -5.03504e-11 27896.9 -3.5278e-11 6653.45)
(41816.8 -33744.5 -5.71874e-11 18033.6 -4.18782e-11 7969.18)
(58363.4 -36710.3 -5.92336e-11 11632.4 -4.37269e-11 9046.87)
(70838.1 -37146.4 -5.98677e-11 5178.14 -4.3879e-11 9748.15)
(80516.5 -35997.3 -5.93836e-11 378.348 -4.29994e-11 10318.6)
(87814.1 -34219.7 -5.84764e-11 -3504.61 -4.17175e-11 10735.2)
(93350.8 -32108.6 -5.72952e-11 -6387.8 -4.02327e-11 11061.4)
(97719.3 -29867 -5.59721e-11 -8494.32 -3.86766e-11 11335.8)
(100583 -27621.2 -5.46383e-11 -10061.4 -3.71303e-11 11507)
(103752 -25695.5 -5.33643e-11 -10738.5 -3.58149e-11 11772.9)
(31589.2 -34227.7 -5.48671e-11 39471 -4.26136e-11 8617.61)
(57511.2 -41657 -6.07959e-11 22852.6 -4.7264e-11 9784.31)
(75034.8 -42321.2 -6.17631e-11 13477.3 -4.75067e-11 10745.6)
(87407.4 -40937.8 -6.15032e-11 5234.74 -4.64013e-11 11313.9)
(96466.6 -38310.3 -6.02394e-11 -475.623 -4.45107e-11 11766.2)
(102879 -35373 -5.87195e-11 -4932.64 -4.24391e-11 12062.4)
(107449 -32359.2 -5.70567e-11 -8149.68 -4.03422e-11 12276.9)
(110815 -29397.1 -5.53535e-11 -10472.9 -3.82988e-11 12443.8)
(112687 -26638.4 -5.37591e-11 -12182.4 -3.64064e-11 12512.8)
(114989 -24244.8 -5.22375e-11 -12920.4 -3.47769e-11 12694.2)
(47804.6 -46419.6 -6.02483e-11 50676.4 -5.09962e-11 10938.5)
(75909.3 -49047.5 -6.39488e-11 27657.5 -5.22925e-11 11861.3)
(93544.8 -46505.8 -6.3271e-11 15528.9 -5.03263e-11 12646.4)
(105147 -42894.9 -6.18673e-11 5646.86 -4.76924e-11 13031.8)
(113104 -38645.9 -5.97332e-11 -824.878 -4.46981e-11 13332.1)
(118256 -34534.7 -5.75899e-11 -5728.68 -4.18305e-11 13481.8)
(121592 -30664.7 -5.54735e-11 -9180.25 -3.91551e-11 13566.4)
(123742 -27063.8 -5.3438e-11 -11628.1 -3.66815e-11 13611.6)
(124513 -23882.2 -5.16451e-11 -13461.9 -3.45044e-11 13568.5)
(125780 -21083.5 -4.99144e-11 -14209.7 -3.26035e-11 13653)
(68469.7 -59473.3 -6.61987e-11 60315.9 -5.99221e-11 13560.7)
(96752.6 -55610.1 -6.65119e-11 32117.4 -5.67527e-11 14152.3)
(113389 -49142.2 -6.36897e-11 17873.7 -5.2106e-11 14708.5)
(123457 -42997 -6.09324e-11 6701.1 -4.77452e-11 14866.7)
(129814 -37050.3 -5.78672e-11 -292.235 -4.36009e-11 14985.8)
(133340 -31808.7 -5.51244e-11 -5499.53 -3.997e-11 14964.7)
(135206 -27169.8 -5.26026e-11 -9054.36 -3.67778e-11 14905.8)
(135920 -23064 -5.03265e-11 -11597.9 -3.39654e-11 14809.8)
(135542 -19567.9 -4.8391e-11 -13468.8 -3.15778e-11 14655.9)
(135565 -16441.9 -4.65416e-11 -14432.9 -2.94551e-11 14607)
(93640.5 -72440.9 -7.22462e-11 67466.1 -6.8736e-11 16425.8)
(119692 -61022.5 -6.83333e-11 35987.6 -6.04237e-11 16607.5)
(134030 -50209 -6.30163e-11 20616.1 -5.28345e-11 16888.5)
(141732 -41380.4 -5.87703e-11 8691.13 -4.66575e-11 16781.5)
(145963 -33745.6 -5.47606e-11 1490.15 -4.1377e-11 16693.1)
(147517 -27455.6 -5.14574e-11 -3825.99 -3.70415e-11 16482.1)
(147678 -22166.5 -4.86025e-11 -7385.87 -3.3415e-11 16264)
(146818 -17705.4 -4.61648e-11 -9875.57 -3.03671e-11 16023.7)
(145290 -14088.5 -4.42284e-11 -11902 -2.78975e-11 15748.7)
(143892 -10951.6 -4.24029e-11 -12619.9 -2.5775e-11 15582.3)
(60728.5 -4219.91 -4.022e-11 -512.842 -2.16229e-11 8579.84)
(65736.6 -3765.15 -3.9682e-11 -398.742 -2.13087e-11 9071.87)
(70326.5 -3369.98 -3.9206e-11 -317.242 -2.10353e-11 9520.86)
(74448.3 -3011.16 -3.87787e-11 -257.139 -2.07867e-11 9923.13)
(78168.5 -2678.67 -3.83861e-11 -197.833 -2.05567e-11 10286.6)
(81498.2 -2380.93 -3.8037e-11 -154.242 -2.03507e-11 10611.3)
(84483.8 -2107.9 -3.7719e-11 -112.722 -2.01619e-11 10902.6)
(87143.1 -1861.88 -3.7435e-11 -80.8126 -1.99917e-11 11161.7)
(89509.6 -1636.16 -3.71777e-11 -52.6194 -1.98357e-11 11392.3)
(91600.3 -1429.56 -3.6946e-11 -30.3729 -1.96927e-11 11595.9)
(93436.7 -1237.26 -3.6736e-11 -12.4269 -1.95602e-11 11774.6)
(95031.4 -1056.71 -3.65456e-11 0.952876 -1.94358e-11 11929.8)
(96395.4 -884.318 -3.63717e-11 9.66037 -1.93172e-11 12062.5)
(97536.2 -717.405 -3.62118e-11 14.2265 -1.92025e-11 12173.4)
(98456.7 -553.832 -3.60656e-11 14.3327 -1.90907e-11 12262.8)
(99162.6 -393.601 -3.59313e-11 10.6692 -1.89814e-11 12331.3)
(99650.4 -238.581 -3.58119e-11 3.02356 -1.88761e-11 12378.6)
(99941.8 -98.1278 -3.57094e-11 -2.97611 -1.87805e-11 12407)
(100037 9.85144 -3.56362e-11 -2.23279 -1.87077e-11 12416.9)
(100028 35.3762 -3.56128e-11 51.8174 -1.86917e-11 12420.4)
(67358.2 -12079.9 -4.50029e-11 -1148.12 -2.68911e-11 9111.13)
(71047.6 -10872.3 -4.40601e-11 -1119.07 -2.60712e-11 9475.6)
(74604.8 -9808.64 -4.32053e-11 -1023.82 -2.535e-11 9831.38)
(77779.2 -8816.65 -4.2421e-11 -975.454 -2.46768e-11 10146.4)
(80722.2 -7887.33 -4.16801e-11 -884.928 -2.40469e-11 10442.1)
(83369.1 -7047.55 -4.10153e-11 -825.356 -2.34775e-11 10706.3)
(85787.3 -6270.45 -4.03985e-11 -753.254 -2.29508e-11 10949.1)
(87959.9 -5564.84 -3.98419e-11 -698.991 -2.24725e-11 11166.6)
(89922.7 -4913.89 -3.93291e-11 -646.322 -2.20312e-11 11363.4)
(91675.7 -4314.93 -3.8861e-11 -605.97 -2.16252e-11 11538.7)
(93239.3 -3756.86 -3.84288e-11 -571.989 -2.12471e-11 11695.2)
(94619.4 -3232.73 -3.80281e-11 -547.672 -2.08918e-11 11833.1)
(95827.4 -2734.13 -3.76526e-11 -529.885 -2.0554e-11 11953.8)
(96870.6 -2254.91 -3.72979e-11 -517.461 -2.02296e-11 12058.1)
(97753.9 -1790.52 -3.696e-11 -506.683 -1.99154e-11 12146.9)
(98486.6 -1340.42 -3.66371e-11 -490.171 -1.96111e-11 12221.6)
(99068 -910.244 -3.63326e-11 -457.836 -1.93209e-11 12282.9)
(99515.3 -518.685 -3.60521e-11 -384.407 -1.90577e-11 12334.2)
(99810 -193.812 -3.58108e-11 -237.176 -1.88412e-11 12375.9)
(99999.4 -20.8852 -3.56471e-11 70.6128 -1.87301e-11 12418.7)
(75049.4 -17483.2 -4.84291e-11 -3534.71 -3.04715e-11 9628.26)
(77400.3 -15837.4 -4.72606e-11 -3449.02 -2.936e-11 9871.85)
(79931 -14361.1 -4.61597e-11 -3137.83 -2.83667e-11 10148.7)
(82119 -12991 -4.51577e-11 -2934.27 -2.74438e-11 10383.6)
(84257 -11686 -4.41865e-11 -2644.16 -2.65661e-11 10620)
(86177.4 -10501.6 -4.33119e-11 -2421.11 -2.57687e-11 10829.4)
(87988.6 -9393.56 -4.24896e-11 -2184.89 -2.50233e-11 11029)
(89631 -8381.26 -4.17419e-11 -1990.99 -2.43422e-11 11208.4)
(91148.9 -7441.78 -4.10481e-11 -1812.97 -2.37097e-11 11374.1)
(92524.4 -6574.61 -4.04117e-11 -1667.54 -2.31257e-11 11523.2)
(93776.5 -5765.3 -3.98221e-11 -1546.43 -2.25806e-11 11658.2)
(94903.7 -5007.04 -3.92744e-11 -1452.51 -2.20695e-11 11778.8)
(95915.3 -4289 -3.87604e-11 -1381.04 -2.15854e-11 11886.3)
(96815.4 -3604.11 -3.82752e-11 -1328.27 -2.11234e-11 11981.5)
(97609.2 -2946.21 -3.78146e-11 -1286.22 -2.06797e-11 12065.5)
(98302.5 -2312.24 -3.73722e-11 -1239.28 -2.02524e-11 12140.1)
(98891.8 -1704.32 -3.69473e-11 -1165.85 -1.98431e-11 12206.5)
(99388.4 -1131.55 -3.654e-11 -1021.49 -1.94592e-11 12269.1)
(99748.6 -611.965 -3.61523e-11 -743.06 -1.91135e-11 12328.5)
(100013 -168.288 -3.57826e-11 -221.513 -1.88238e-11 12396.8)
(84044.9 -21294.5 -5.07758e-11 -5883.03 -3.29778e-11 10284.6)
(84968.2 -19409.2 -4.95264e-11 -5829.67 -3.17073e-11 10390.6)
(86435.3 -17670.7 -4.82837e-11 -5352.61 -3.05426e-11 10580)
(87558.8 -16085.3 -4.71818e-11 -5064.52 -2.94782e-11 10720.9)
(88829.5 -14542.6 -4.60766e-11 -4612.9 -2.84448e-11 10888.1)
(89946.4 -13142.5 -4.50837e-11 -4260.78 -2.75064e-11 11031.9)
(91081.7 -11816.3 -4.41328e-11 -3880.57 -2.66181e-11 11179.1)
(92123.9 -10599.1 -4.32641e-11 -3560.15 -2.58022e-11 11312.1)
(93132.2 -9461.72 -4.2451e-11 -3262.6 -2.50398e-11 11439.5)
(94067.5 -8407.72 -4.17012e-11 -3012.42 -2.43329e-11 11555.7)
(94949.7 -7421.6 -4.10023e-11 -2799.25 -2.36709e-11 11663.5)
(95767.1 -6497.37 -4.03522e-11 -2627.75 -2.30501e-11 11761.5)
(96526.4 -5623.38 -3.97415e-11 -2491.19 -2.24627e-11 11850.9)
(97226.4 -4791.88 -3.91651e-11 -2385.48 -2.19033e-11 11931.9)
(97866.8 -3994.73 -3.86157e-11 -2298.51 -2.13666e-11 12005.7)
(98451.4 -3225.52 -3.80869e-11 -2211.65 -2.08493e-11 12073.8)
(98967.2 -2480.62 -3.75728e-11 -2098.14 -2.03486e-11 12137.1)
(99422.3 -1754.57 -3.70625e-11 -1907.95 -1.98624e-11 12200.4)
(99755.9 -1054.17 -3.65537e-11 -1576.06 -1.93962e-11 12262.6)
(100020 -327.985 -3.59949e-11 -986.339 -1.89175e-11 12338)
(93699.1 -23266.1 -5.1987e-11 -8679.25 -3.4236e-11 10983.2)
(93137.8 -21373.1 -5.08078e-11 -8668.68 -3.29625e-11 10943.7)
(93560.8 -19527.2 -4.95124e-11 -7965.44 -3.17313e-11 11050.9)
(93595.7 -17902.1 -4.84215e-11 -7579.87 -3.0644e-11 11095.2)
(93995.8 -16269.6 -4.72718e-11 -6935.04 -2.95558e-11 11194.2)
(94288.3 -14794.5 -4.62464e-11 -6425.55 -2.85711e-11 11271.6)
(94728.6 -13376.2 -4.52434e-11 -5870.87 -2.76252e-11 11366.1)
(95144.3 -12067.1 -4.43228e-11 -5392.81 -2.67516e-11 11451.6)
(95614.4 -10833.9 -4.3452e-11 -4945.06 -2.59285e-11 11539.5)
(96077.4 -9684.76 -4.26442e-11 -4561.35 -2.51607e-11 11621.3)
(96554.6 -8605.37 -4.18884e-11 -4230.36 -2.44389e-11 11699.9)
(97023.8 -7590.79 -4.11818e-11 -3958.51 -2.376e-11 11772.8)
(97488.6 -6630.74 -4.05177e-11 -3739.55 -2.31164e-11 11840.9)
(97941.9 -5715.85 -3.98905e-11 -3567.79 -2.25025e-11 11903.9)
(98379.6 -4836.52 -3.9291e-11 -3431.29 -2.19121e-11 11962.5)
(98800.1 -3981.77 -3.8711e-11 -3309.75 -2.1338e-11 12018.2)
(99186 -3141.59 -3.8139e-11 -3176.48 -2.07739e-11 12071.3)
(99542.1 -2295.26 -3.75567e-11 -2983.22 -2.02068e-11 12126.1)
(99801.9 -1441.99 -3.69565e-11 -2671.4 -1.96371e-11 12180.9)
(100021 -468.571 -3.62494e-11 -2131.96 -1.89912e-11 12250)
(103844 -23499.8 -5.20325e-11 -11212.3 -3.43276e-11 11761.2)
(101735 -21843.9 -5.10987e-11 -11360.7 -3.32139e-11 11559.5)
(101136 -20038.7 -4.98478e-11 -10460.6 -3.20159e-11 11583.4)
(100060 -18534.2 -4.88791e-11 -10031.8 -3.10126e-11 11523.7)
(99589.3 -16945 -4.77759e-11 -9236.74 -2.99579e-11 11550.4)
(99045.2 -15515 -4.67989e-11 -8600.88 -2.90075e-11 11556.8)
(98774.8 -14114 -4.582e-11 -7901.89 -2.80777e-11 11594)
(98546.8 -12810.8 -4.49121e-11 -7284.08 -2.72115e-11 11628.5)
(98455 -11571.2 -4.40433e-11 -6699.89 -2.63875e-11 11673)
(98421.5 -10407.2 -4.32305e-11 -6187.79 -2.56132e-11 11717.1)
(98464 -9307.5 -4.24645e-11 -5739.89 -2.48805e-11 11763)
(98554 -8267.93 -4.17447e-11 -5364.24 -2.41873e-11 11807.7)
(98690.4 -7280.48 -4.10664e-11 -5057.2 -2.35274e-11 11851.2)
(98860 -6335.4 -4.04224e-11 -4815.46 -2.28952e-11 11892.6)
(99055.8 -5422.25 -3.98051e-11 -4628.72 -2.22835e-11 11932)
(99271.5 -4525.54 -3.92035e-11 -4480.7 -2.16817e-11 11970.4)
(99487.7 -3630.84 -3.86055e-11 -4348.28 -2.10813e-11 12007.5)
(99705.2 -2703.93 -3.79834e-11 -4192.29 -2.04596e-11 12046.8)
(99867.4 -1739.73 -3.73302e-11 -3967.33 -1.98141e-11 12086.4)
(100017 -577.753 -3.65293e-11 -3583.24 -1.90381e-11 12138.2)
(113996 -21995.9 -5.09133e-11 -13333.9 -3.32566e-11 12583.5)
(110346 -20841.2 -5.0412e-11 -13777 -3.24782e-11 12208.1)
(108800 -19231.4 -4.93118e-11 -12757.2 -3.14155e-11 12148.9)
(106647 -17999.7 -4.85672e-11 -12333.4 -3.0598e-11 11983.7)
(105334 -16596.5 -4.76081e-11 -11449.2 -2.96719e-11 11935)
(103981 -15325.6 -4.67544e-11 -10705.2 -2.8832e-11 11871.1)
(103010 -14050 -4.58693e-11 -9882.05 -2.799e-11 11849.8)
(102150 -12840.7 -4.50311e-11 -9128.85 -2.71911e-11 11833.2)
(101495 -11674.6 -4.42162e-11 -8412.61 -2.642e-11 11833.3)
(100962 -10565 -4.34428e-11 -7773.4 -2.56857e-11 11838.8)
(100560 -9507.42 -4.27073e-11 -7209.38 -2.49847e-11 11850.7)
(100257 -8500.33 -4.20114e-11 -6731.53 -2.43155e-11 11865.2)
(100046 -7537.6 -4.13527e-11 -6338.79 -2.36749e-11 11881.7)
(99909.5 -6610.83 -4.07244e-11 -6031.43 -2.30566e-11 11898.6)
(99838.7 -5708.77 -4.01216e-11 -5802.85 -2.24537e-11 11915.6)
(99822.3 -4813.8 -3.95297e-11 -5641.98 -2.18538e-11 11932.7)
(99844.6 -3908.14 -3.89373e-11 -5533.08 -2.12459e-11 11949.5)
(99897.5 -2947.15 -3.83114e-11 -5449.83 -2.06002e-11 11967.8)
(99947.8 -1924.15 -3.7646e-11 -5362.06 -1.99127e-11 11986.6)
(100008 -647.779 -3.68093e-11 -5209.05 -1.90558e-11 12013.1)
(123745 -18865.8 -4.86615e-11 -14650.6 -3.1106e-11 13440.1)
(118662 -18470 -4.87716e-11 -15523.7 -3.08335e-11 12889.1)
(116258 -17222.7 -4.79519e-11 -14568 -3.00158e-11 12740.3)
(113130 -16366 -4.7496e-11 -14186.4 -2.94517e-11 12475.6)
(111010 -15275.5 -4.67783e-11 -13338.3 -2.87371e-11 12344.7)
(108916 -14252.9 -4.61124e-11 -12561.1 -2.80665e-11 12210.5)
(107268 -13201.4 -4.53949e-11 -11697 -2.73773e-11 12125.7)
(105803 -12171.6 -4.46881e-11 -10865.8 -2.67018e-11 12056)
(104598 -11160 -4.39831e-11 -10058.8 -2.60375e-11 12009)
(103573 -10176.3 -4.32979e-11 -9315.48 -2.53907e-11 11974.4)
(102727 -9223.98 -4.26348e-11 -8646.17 -2.47633e-11 11951)
(102028 -8304.28 -4.19979e-11 -8067.28 -2.41557e-11 11934.6)
(101463 -7414.92 -4.13895e-11 -7585.02 -2.3567e-11 11923.5)
(101013 -6549.89 -4.08047e-11 -7206.25 -2.2992e-11 11915.4)
(100665 -5699.82 -4.02406e-11 -6930.79 -2.24253e-11 11909.1)
(100405 -4845.74 -3.96845e-11 -6757.33 -2.18538e-11 11903.4)
(100221 -3969.08 -3.91239e-11 -6678.28 -2.12655e-11 11898)
(100098 -3019.98 -3.85272e-11 -6686.19 -2.06263e-11 11892.4)
(100032 -1991.64 -3.78878e-11 -6765.09 -1.99324e-11 11887.4)
(99995.1 -676.512 -3.70719e-11 -6893.31 -1.90447e-11 11883.4)
(132761 -14412.5 -4.54491e-11 -14904.6 -2.80854e-11 14316.7)
(126396 -14914.5 -4.62614e-11 -16273.6 -2.84107e-11 13598.7)
(123199 -14287.9 -4.59441e-11 -15813.9 -2.80033e-11 13331.7)
(119288 -13879.6 -4.58256e-11 -15537.9 -2.7741e-11 12980.7)
(116397 -13232.7 -4.54442e-11 -14822.2 -2.73238e-11 12762.6)
(113665 -12519.7 -4.50029e-11 -14030.9 -2.68637e-11 12566.1)
(111391 -11742.6 -4.44855e-11 -13143.5 -2.63607e-11 12421.2)
(109382 -10931.3 -4.3934e-11 -12253.6 -2.58345e-11 12302.2)
(107666 -10108.4 -4.33637e-11 -11381.8 -2.52995e-11 12209.9)
(106182 -9285.72 -4.27917e-11 -10566.3 -2.47631e-11 12135.5)
(104913 -8474 -4.22267e-11 -9823.91 -2.42327e-11 12076.3)
(103831 -7678.19 -4.16771e-11 -9175.36 -2.37104e-11 12027.6)
(102918 -6899.35 -4.11452e-11 -8632.63 -2.31975e-11 11986.9)
(102154 -6133.34 -4.06321e-11 -8207.29 -2.26911e-11 11951.5)
(101524 -5372.94 -4.0134e-11 -7907.09 -2.21856e-11 11919.4)
(101013 -4599.58 -3.96416e-11 -7739.16 -2.16689e-11 11888.7)
(100617 -3795.61 -3.91445e-11 -7707.56 -2.1129e-11 11858.8)
(100310 -2909.46 -3.86114e-11 -7822.62 -2.05307e-11 11827)
(100124 -1934.31 -3.80383e-11 -8085.28 -1.98696e-11 11796.1)
(99982.5 -662.079 -3.72984e-11 -8519.11 -1.90054e-11 11758.5)
(140258 -8699.85 -4.13915e-11 -14369 -2.42336e-11 15116.8)
(133798 -9799.69 -4.25499e-11 -15472 -2.49668e-11 14405.7)
(129708 -10058.3 -4.29747e-11 -15963.9 -2.514e-11 13974.3)
(125357 -10162.5 -4.32554e-11 -16052.6 -2.5217e-11 13549.8)
(121702 -10112 -4.33515e-11 -15770.1 -2.51949e-11 13221.2)
(118369 -9881.87 -4.32803e-11 -15218.7 -2.50565e-11 12945.3)
(115463 -9526.26 -4.308e-11 -14470.1 -2.48363e-11 12726.3)
(112898 -9066.55 -4.27841e-11 -13623 -2.45471e-11 12548.2)
(110667 -8534.54 -4.24197e-11 -12731.2 -2.42094e-11 12406)
(108722 -7954.42 -4.20137e-11 -11853.3 -2.38383e-11 12290.5)
(107039 -7345.43 -4.15845e-11 -11025.9 -2.34468e-11 12196.5)
(105584 -6721.08 -4.11475e-11 -10283 -2.30426e-11 12118.1)
(104335 -6089.91 -4.07117e-11 -9648.43 -2.26313e-11 12051.2)
(103268 -5454.19 -4.02838e-11 -9144.46 -2.22146e-11 11991.7)
(102368 -4810.19 -3.98645e-11 -8787.72 -2.17891e-11 11937.2)
(101612 -4144.54 -3.94489e-11 -8598.54 -2.13459e-11 11883.9)
(101007 -3441.47 -3.90293e-11 -8592.33 -2.08737e-11 11831.4)
(100516 -2653.95 -3.85809e-11 -8800.83 -2.03405e-11 11774.1)
(100210 -1775.41 -3.81003e-11 -9241.09 -1.97413e-11 11717.4)
(99964.6 -610.762 -3.74784e-11 -9983.35 -1.89442e-11 11645.7)
(144496 -3995.27 -3.7974e-11 -12781.1 -2.10864e-11 15677.4)
(138548 -4582.07 -3.87888e-11 -13930.2 -2.14722e-11 15015.5)
(133874 -5666.27 -3.98564e-11 -15050.4 -2.21909e-11 14474.5)
(129386 -6180.11 -4.04613e-11 -15533.7 -2.25367e-11 14003.8)
(125415 -6541.6 -4.0877e-11 -15545.9 -2.27878e-11 13619.7)
(121778 -6704.51 -4.11058e-11 -15251.1 -2.29096e-11 13292.3)
(118546 -6710.12 -4.1179e-11 -14696 -2.29299e-11 13024.7)
(115647 -6586.37 -4.11325e-11 -13994.1 -2.28648e-11 12801.1)
(113084 -6357.98 -4.09914e-11 -13202.4 -2.27304e-11 12617.3)
(110815 -6050.75 -4.07836e-11 -12388.3 -2.25427e-11 12464)
(108824 -5685.25 -4.05286e-11 -11596.7 -2.23148e-11 12336)
(107078 -5278.46 -4.02454e-11 -10869.5 -2.20574e-11 12226.9)
(105558 -4841.86 -3.99469e-11 -10239.1 -2.17777e-11 12132.3)
(104240 -4381.48 -3.96423e-11 -9735.61 -2.14796e-11 12047.6)
(103112 -3898.52 -3.9337e-11 -9386.15 -2.11629e-11 11969.5)
(102151 -3384.55 -3.90309e-11 -9220.81 -2.08216e-11 11893.5)
(101368 -2828.48 -3.87199e-11 -9266.37 -2.04479e-11 11819)
(100720 -2193.83 -3.83907e-11 -9572.88 -2.00161e-11 11738)
(100305 -1476.2 -3.80406e-11 -10173.2 -1.9523e-11 11657.7)
(99960.4 -509.465 -3.7587e-11 -11179.9 -1.88542e-11 11554.9)
(142297 623.649 -3.48816e-11 -11004.8 -1.80127e-11 15634.7)
(137628 -51.4882 -3.58747e-11 -13408.4 -1.84324e-11 14999.3)
(133335 -1375.17 -3.70828e-11 -14569.1 -1.93109e-11 14490)
(129258 -2243.28 -3.79185e-11 -15223.3 -1.98915e-11 14043.3)
(125583 -2927.1 -3.85425e-11 -15352.9 -2.0357e-11 13676.1)
(122167 -3411.81 -3.89818e-11 -15166 -2.06932e-11 13359.5)
(119082 -3725.32 -3.92582e-11 -14709.8 -2.09185e-11 13096.2)
(116267 -3895.31 -3.94077e-11 -14094.4 -2.10497e-11 12872.1)
(113738 -3944.35 -3.94519e-11 -13376.9 -2.11006e-11 12683.8)
(111462 -3896.91 -3.94181e-11 -12623.7 -2.10869e-11 12523.4)
(109432 -3772.76 -3.93258e-11 -11881.5 -2.10206e-11 12386.2)
(107626 -3589.01 -3.91928e-11 -11194.2 -2.0913e-11 12266.7)
(106032 -3358.35 -3.90337e-11 -10597.2 -2.07714e-11 12161)
(104629 -3089.21 -3.88587e-11 -10125.1 -2.06016e-11 12064.4)
(103414 -2785.05 -3.86762e-11 -9808.62 -2.04049e-11 11974.2)
(102365 -2443.07 -3.84896e-11 -9685.01 -2.01789e-11 11885.4)
(101503 -2056.19 -3.82981e-11 -9787.43 -1.99182e-11 11797.8)
(100784 -1600.62 -3.80978e-11 -10175.2 -1.96057e-11 11702.5)
(100324 -1077.56 -3.78908e-11 -10894.9 -1.92414e-11 11607.4)
(99943 -371.417 -3.76297e-11 -12075.9 -1.87447e-11 11485.9)
(140635 5255 -3.17098e-11 -8907.98 -1.49355e-11 15668)
(136335 4192.98 -3.29884e-11 -11699.2 -1.5608e-11 15035.7)
(132701 2632.09 -3.43568e-11 -13138.5 -1.66399e-11 14566.6)
(128947 1478.13 -3.5403e-11 -14093.1 -1.74068e-11 14125.8)
(125566 522.886 -3.62227e-11 -14477.3 -1.80497e-11 13765.7)
(122330 -237.378 -3.68621e-11 -14519.4 -1.85671e-11 13446.9)
(119377 -818.167 -3.73302e-11 -14255.8 -1.89689e-11 13179.8)
(116638 -1249.68 -3.76653e-11 -13802.7 -1.92728e-11 12948.7)
(114149 -1549.17 -3.78863e-11 -13216.6 -1.94899e-11 12752.5)
(111881 -1740 -3.8019e-11 -12568.9 -1.96346e-11 12583.1)
(109837 -1840.5 -3.8082e-11 -11909.4 -1.97183e-11 12436.6)
(108000 -1867.22 -3.80942e-11 -11287 -1.97511e-11 12307.7)
(106361 -1834.08 -3.80698e-11 -10741.3 -1.97418e-11 12192.4)
(104907 -1750.96 -3.8022e-11 -10312 -1.96964e-11 12086.3)
(103635 -1624 -3.79605e-11 -10035.6 -1.96183e-11 11986.3)
(102529 -1456.15 -3.78934e-11 -9954.1 -1.9509e-11 11887.7)
(101614 -1244.07 -3.78229e-11 -10110.5 -1.93651e-11 11789.5)
(100846 -981.74 -3.77576e-11 -10563.8 -1.91816e-11 11683.3)
(100360 -666.355 -3.76951e-11 -11365.6 -1.89556e-11 11577.9)
(99939.3 -230.162 -3.76269e-11 -12677.7 -1.86389e-11 11440.8)
(137717 8843.43 -2.93082e-11 -7148.22 -1.25566e-11 15547.8)
(133994 7758.03 -3.06204e-11 -10254.3 -1.32381e-11 14946.7)
(130974 6124.98 -3.2032e-11 -11867.8 -1.43142e-11 14522.7)
(127640 4835.77 -3.31728e-11 -13020.8 -1.51678e-11 14106.1)
(124634 3702.79 -3.41137e-11 -13580.6 -1.59263e-11 13767.3)
(121677 2745.55 -3.48892e-11 -13785.4 -1.65732e-11 13461.4)
(118949 1954.68 -3.55014e-11 -13668.7 -1.71131e-11 13203.1)
(116378 1309.08 -3.59847e-11 -13346.4 -1.75586e-11 12976.6)
(114013 795.507 -3.63521e-11 -12875.2 -1.79176e-11 12782.1)
(111833 395.396 -3.66285e-11 -12326.3 -1.82011e-11 12612.2)
(109848 92.5732 -3.68291e-11 -11750.1 -1.84194e-11 12463.5)
(108045 -128.33 -3.6973e-11 -11197.6 -1.85815e-11 12331.2)
(106423 -280.142 -3.70742e-11 -10710.7 -1.86959e-11 12211.7)
(104972 -375.426 -3.71474e-11 -10331.9 -1.87698e-11 12100.8)
(103694 -421.665 -3.72021e-11 -10098.8 -1.88075e-11 11995.7)
(102578 -429.549 -3.72532e-11 -10059.1 -1.88158e-11 11891.7)
(101646 -393.2 -3.7301e-11 -10253.6 -1.87896e-11 11787.9)
(100871 -334.132 -3.73711e-11 -10750 -1.87421e-11 11676.1)
(100375 -224.415 -3.74507e-11 -11623.9 -1.86533e-11 11562.9)
(99936.9 -73.6721 -3.75753e-11 -13004 -1.85275e-11 11416.8)
(134049 11824.6 -2.73304e-11 -5405.44 -1.0588e-11 15350.1)
(130910 10724.5 -2.86426e-11 -8638.79 -1.12759e-11 14795.1)
(128501 9101.62 -3.00366e-11 -10368.2 -1.2342e-11 14421)
(125628 7753.62 -3.12191e-11 -11698.4 -1.32309e-11 14034.7)
(123038 6518.67 -3.223e-11 -12427 -1.40543e-11 13722.2)
(120409 5431.93 -3.30968e-11 -12802.2 -1.47844e-11 13433.8)
(117957 4489.79 -3.38153e-11 -12840.7 -1.54229e-11 13189.2)