/*--------------------------------*- C++ -*----------------------------------*\
  =========                 |
  \\      /  F ield         | OpenFOAM: The Open Source CFD Toolbox
   \\    /   O peration     | Website:  https://openfoam.org
    \\  /    A nd           | Version:  9
     \\/     M anipulation  |
\*---------------------------------------------------------------------------*/
FoamFile
{
    format      ascii;
    class       volVectorField;
    location    "1";
    object      D;
}
// * * * * * * * * * * * * * * * * * * * * * * * * * * * * * * * * * * * * * //

dimensions      [0 1 0 0 0 0 0];

internalField   nonuniform List<vector> 
1000
(
(6.78243e-07 2.25565e-07 0)
(6.33126e-07 2.49206e-07 0)
(6.00336e-07 2.69041e-07 0)
(5.76677e-07 2.84494e-07 0)
(5.59831e-07 2.97794e-07 0)
(5.47988e-07 3.09203e-07 0)
(5.40016e-07 3.19457e-07 0)
(5.3501e-07 3.28773e-07 0)
(5.32254e-07 3.37447e-07 0)
(5.31382e-07 3.45656e-07 0)
(6.11211e-07 2.03292e-07 0)
(5.64328e-07 2.2045e-07 0)
(5.30473e-07 2.3545e-07 0)
(5.06147e-07 2.46987e-07 0)
(4.88845e-07 2.57087e-07 0)
(4.76635e-07 2.65742e-07 0)
(4.6831e-07 2.73569e-07 0)
(4.62912e-07 2.80707e-07 0)
(4.59702e-07 2.87312e-07 0)
(4.58187e-07 2.93748e-07 0)
(5.42745e-07 1.80987e-07 0)
(4.95401e-07 1.91234e-07 0)
(4.6141e-07 2.01197e-07 0)
(4.37113e-07 2.08773e-07 0)
(4.19888e-07 2.1573e-07 0)
(4.07728e-07 2.2175e-07 0)
(3.9938e-07 2.27313e-07 0)
(3.93861e-07 2.32449e-07 0)
(3.90428e-07 2.37189e-07 0)
(3.88562e-07 2.41935e-07 0)
(4.73192e-07 1.59012e-07 0)
(4.26753e-07 1.62193e-07 0)
(3.93621e-07 1.67101e-07 0)
(3.70106e-07 1.708e-07 0)
(3.53536e-07 1.74772e-07 0)
(3.41878e-07 1.7835e-07 0)
(3.3387e-07 1.81867e-07 0)
(3.2852e-07 1.85218e-07 0)
(3.2513e-07 1.88334e-07 0)
(3.23127e-07 1.91576e-07 0)
(4.02724e-07 1.37698e-07 0)
(3.58601e-07 1.33947e-07 0)
(3.27374e-07 1.34003e-07 0)
(3.05452e-07 1.34079e-07 0)
(2.90154e-07 1.35359e-07 0)
(2.79473e-07 1.36801e-07 0)
(2.72167e-07 1.38583e-07 0)
(2.67269e-07 1.40441e-07 0)
(2.64139e-07 1.42224e-07 0)
(2.62191e-07 1.44203e-07 0)
(3.31643e-07 1.17198e-07 0)
(2.91143e-07 1.06936e-07 0)
(2.62897e-07 1.02613e-07 0)
(2.43412e-07 9.95286e-08 0)
(2.30021e-07 9.85793e-08 0)
(2.20787e-07 9.83175e-08 0)
(2.14528e-07 9.87663e-08 0)
(2.10336e-07 9.94971e-08 0)
(2.07656e-07 1.00296e-07 0)
(2.05914e-07 1.01319e-07 0)
(2.59682e-07 9.74996e-08 0)
(2.24227e-07 8.14576e-08 0)
(2.00123e-07 7.3568e-08 0)
(1.83976e-07 6.80802e-08 0)
(1.73144e-07 6.55698e-08 0)
(1.65805e-07 6.41756e-08 0)
(1.609e-07 6.37761e-08 0)
(1.57626e-07 6.37954e-08 0)
(1.55533e-07 6.39851e-08 0)
(1.54113e-07 6.43833e-08 0)
(1.87354e-07 7.80413e-08 0)
(1.58136e-07 5.74228e-08 0)
(1.3942e-07 4.73679e-08 0)
(1.27474e-07 4.06417e-08 0)
(1.19739e-07 3.74867e-08 0)
(1.14608e-07 3.56761e-08 0)
(1.11237e-07 3.49769e-08 0)
(1.08988e-07 3.47278e-08 0)
(1.0755e-07 3.46826e-08 0)
(1.0652e-07 3.47934e-08 0)
(1.13051e-07 5.68944e-08 0)
(9.24183e-08 3.41486e-08 0)
(8.05984e-08 2.42972e-08 0)
(7.36005e-08 1.81821e-08 0)
(6.93682e-08 1.55614e-08 0)
(6.66079e-08 1.41181e-08 0)
(6.48341e-08 1.36154e-08 0)
(6.36286e-08 1.34456e-08 0)
(6.28439e-08 1.34285e-08 0)
(6.22315e-08 1.34897e-08 0)
(3.89354e-08 2.98035e-08 0)
(2.93894e-08 1.25669e-08 0)
(2.57599e-08 6.51507e-09 0)
(2.38451e-08 3.48121e-09 0)
(2.27361e-08 2.43637e-09 0)
(2.19639e-08 1.96624e-09 0)
(2.14615e-08 1.90059e-09 0)
(2.10953e-08 1.94e-09 0)
(2.08473e-08 2.01562e-09 0)
(2.06295e-08 2.09845e-09 0)
(1.19593e-06 3.66363e-07 0)
(1.1942e-06 4.11994e-07 0)
(1.19309e-06 4.54493e-07 0)
(1.19338e-06 4.93371e-07 0)
(1.19542e-06 5.29024e-07 0)
(1.19934e-06 5.61901e-07 0)
(1.20517e-06 5.9252e-07 0)
(1.21277e-06 6.21332e-07 0)
(1.2221e-06 6.48692e-07 0)
(1.23292e-06 6.74996e-07 0)
(1.15845e-06 3.63305e-07 0)
(1.1534e-06 4.08802e-07 0)
(1.15003e-06 4.50777e-07 0)
(1.14868e-06 4.88863e-07 0)
(1.14952e-06 5.2355e-07 0)
(1.15245e-06 5.55316e-07 0)
(1.15737e-06 5.84728e-07 0)
(1.16407e-06 6.12263e-07 0)
(1.17246e-06 6.3829e-07 0)
(1.18221e-06 6.63261e-07 0)
(1.1187e-06 3.57144e-07 0)
(1.10969e-06 4.02527e-07 0)
(1.10326e-06 4.43641e-07 0)
(1.09948e-06 4.80487e-07 0)
(1.09842e-06 5.13813e-07 0)
(1.09974e-06 5.44163e-07 0)
(1.10325e-06 5.72145e-07 0)
(1.10862e-06 5.98243e-07 0)
(1.11574e-06 6.22841e-07 0)
(1.12417e-06 6.46401e-07 0)
(1.07573e-06 3.48208e-07 0)
(1.06228e-06 3.93378e-07 0)
(1.05228e-06 4.33438e-07 0)
(1.04564e-06 4.6877e-07 0)
(1.04222e-06 5.00459e-07 0)
(1.04154e-06 5.29134e-07 0)
(1.04331e-06 5.55457e-07 0)
(1.04708e-06 5.79916e-07 0)
(1.05271e-06 6.02911e-07 0)
(1.05963e-06 6.24899e-07 0)
(1.02905e-06 3.36583e-07 0)
(1.01073e-06 3.81179e-07 0)
(9.96913e-07 4.19853e-07 0)
(9.87241e-07 4.53325e-07 0)
(9.81337e-07 4.8306e-07 0)
(9.78543e-07 5.09773e-07 0)
(9.78461e-07 5.34192e-07 0)
(9.80544e-07 5.56801e-07 0)
(9.84614e-07 5.78021e-07 0)
(9.89995e-07 5.98278e-07 0)
(9.78595e-07 3.22538e-07 0)
(9.55131e-07 3.65944e-07 0)
(9.3741e-07 4.02831e-07 0)
(9.2471e-07 4.34125e-07 0)
(9.1634e-07 4.61646e-07 0)
(9.11457e-07 4.86165e-07 0)
(9.0955e-07 5.08478e-07 0)
(9.09975e-07 5.29054e-07 0)
(9.12515e-07 5.48342e-07 0)
(9.16398e-07 5.66714e-07 0)
(9.24491e-07 3.06285e-07 0)
(8.95808e-07 3.47671e-07 0)
(8.74269e-07 3.82264e-07 0)
(8.58675e-07 4.11034e-07 0)
(8.47988e-07 4.36087e-07 0)
(8.4116e-07 4.5821e-07 0)
(8.37558e-07 4.78249e-07 0)
(8.36451e-07 4.9665e-07 0)
(8.37571e-07 5.13881e-07 0)
(8.40078e-07 5.30251e-07 0)
(8.67024e-07 2.88127e-07 0)
(8.33298e-07 3.26532e-07 0)
(8.08182e-07 3.58268e-07 0)
(7.8994e-07 3.84172e-07 0)
(7.77172e-07 4.06536e-07 0)
(7.6862e-07 4.26105e-07 0)
(7.6352e-07 4.43752e-07 0)
(7.61067e-07 4.59875e-07 0)
(7.60923e-07 4.74965e-07 0)
(7.62235e-07 4.89232e-07 0)
(8.06557e-07 2.68375e-07 0)
(7.68237e-07 3.0279e-07 0)
(7.3995e-07 3.31087e-07 0)
(7.19416e-07 3.53788e-07 0)
(7.04885e-07 3.73267e-07 0)
(6.94891e-07 3.90165e-07 0)
(6.88537e-07 4.05345e-07 0)
(6.84963e-07 4.19151e-07 0)
(6.83737e-07 4.32042e-07 0)
(6.8407e-07 4.44181e-07 0)
(7.43492e-07 2.47392e-07 0)
(7.01294e-07 2.76846e-07 0)
(6.70398e-07 3.01151e-07 0)
(6.48024e-07 3.2035e-07 0)
(6.3211e-07 3.36791e-07 0)
(6.20997e-07 3.50951e-07 0)
(6.13671e-07 3.63651e-07 0)
(6.09228e-07 3.75142e-07 0)
(6.07135e-07 3.85873e-07 0)
(6.06771e-07 3.95751e-07 0)
(1.2458e-06 7.00286e-07 0)
(1.26055e-06 7.25378e-07 0)
(1.27641e-06 7.50062e-07 0)
(1.29326e-06 7.74455e-07 0)
(1.31101e-06 7.98684e-07 0)
(1.32957e-06 8.22823e-07 0)
(1.34885e-06 8.46953e-07 0)
(1.36877e-06 8.71132e-07 0)
(1.38927e-06 8.95414e-07 0)
(1.41028e-06 9.19842e-07 0)
(1.43173e-06 9.44453e-07 0)
(1.45358e-06 9.69278e-07 0)
(1.47577e-06 9.94343e-07 0)
(1.49825e-06 1.01967e-06 0)
(1.52096e-06 1.04527e-06 0)
(1.54386e-06 1.07115e-06 0)
(1.5669e-06 1.09731e-06 0)
(1.59002e-06 1.12373e-06 0)
(1.61319e-06 1.15035e-06 0)
(1.63636e-06 1.17711e-06 0)
(1.19563e-06 6.87583e-07 0)
(1.21217e-06 7.12254e-07 0)
(1.22959e-06 7.36539e-07 0)
(1.24773e-06 7.60581e-07 0)
(1.26659e-06 7.84511e-07 0)
(1.28606e-06 8.08394e-07 0)
(1.30612e-06 8.32318e-07 0)
(1.32669e-06 8.56332e-07 0)
(1.34773e-06 8.80491e-07 0)
(1.3692e-06 9.04833e-07 0)
(1.39104e-06 9.29397e-07 0)
(1.41321e-06 9.54209e-07 0)
(1.43569e-06 9.79297e-07 0)
(1.45841e-06 1.00468e-06 0)
(1.48136e-06 1.03037e-06 0)
(1.5045e-06 1.05637e-06 0)
(1.52778e-06 1.08269e-06 0)
(1.55118e-06 1.10929e-06 0)
(1.57465e-06 1.13614e-06 0)
(1.59815e-06 1.16316e-06 0)
(1.13832e-06 6.69995e-07 0)
(1.15717e-06 6.9471e-07 0)
(1.17665e-06 7.19051e-07 0)
(1.19658e-06 7.4314e-07 0)
(1.217e-06 7.67136e-07 0)
(1.23784e-06 7.9109e-07 0)
(1.2591e-06 8.15102e-07 0)
(1.28072e-06 8.39217e-07 0)
(1.30269e-06 8.63496e-07 0)
(1.32497e-06 8.87976e-07 0)
(1.34754e-06 9.12696e-07 0)
(1.37037e-06 9.37684e-07 0)
(1.39344e-06 9.62968e-07 0)
(1.41672e-06 9.88568e-07 0)
(1.44019e-06 1.0145e-06 0)
(1.46384e-06 1.04077e-06 0)
(1.48762e-06 1.06739e-06 0)
(1.51152e-06 1.09434e-06 0)
(1.5355e-06 1.1216e-06 0)
(1.55951e-06 1.14913e-06 0)
(1.07469e-06 6.47908e-07 0)
(1.09629e-06 6.73027e-07 0)
(1.11827e-06 6.97788e-07 0)
(1.1404e-06 7.22248e-07 0)
(1.16281e-06 7.46614e-07 0)
(1.18541e-06 7.70916e-07 0)
(1.20823e-06 7.95272e-07 0)
(1.23126e-06 8.19726e-07 0)
(1.25448e-06 8.44343e-07 0)
(1.2779e-06 8.69164e-07 0)
(1.3015e-06 8.94231e-07 0)
(1.32527e-06 9.19574e-07 0)
(1.34921e-06 9.45224e-07 0)
(1.37331e-06 9.71204e-07 0)
(1.39755e-06 9.97535e-07 0)
(1.42192e-06 1.02423e-06 0)
(1.44641e-06 1.05131e-06 0)
(1.471e-06 1.07877e-06 0)
(1.49566e-06 1.10662e-06 0)
(1.52033e-06 1.13484e-06 0)
(1.00614e-06 6.20901e-07 0)
(1.03081e-06 6.46832e-07 0)
(1.05564e-06 6.72428e-07 0)
(1.08028e-06 6.97626e-07 0)
(1.10498e-06 7.22705e-07 0)
(1.12962e-06 7.47669e-07 0)
(1.15431e-06 7.72658e-07 0)
(1.179e-06 7.97714e-07 0)
(1.20375e-06 8.22914e-07 0)
(1.22854e-06 8.483e-07 0)
(1.25341e-06 8.73922e-07 0)
(1.27834e-06 8.99813e-07 0)
(1.30335e-06 9.2601e-07 0)
(1.32845e-06 9.5254e-07 0)
(1.35363e-06 9.7943e-07 0)
(1.3789e-06 1.00671e-06 0)
(1.40425e-06 1.03439e-06 0)
(1.42967e-06 1.06251e-06 0)
(1.45514e-06 1.0911e-06 0)
(1.48061e-06 1.12016e-06 0)
(9.33782e-07 5.89134e-07 0)
(9.61749e-07 6.16257e-07 0)
(9.89675e-07 6.43072e-07 0)
(1.01706e-06 6.69355e-07 0)
(1.04429e-06 6.9547e-07 0)
(1.0712e-06 7.21395e-07 0)
(1.09796e-06 7.47292e-07 0)
(1.12454e-06 7.73209e-07 0)
(1.15101e-06 7.99228e-07 0)
(1.17738e-06 8.25401e-07 0)
(1.20369e-06 8.51781e-07 0)
(1.22995e-06 8.78412e-07 0)
(1.2562e-06 9.05333e-07 0)
(1.28245e-06 9.32579e-07 0)
(1.30871e-06 9.60186e-07 0)
(1.335e-06 9.88187e-07 0)
(1.36133e-06 1.01662e-06 0)
(1.38768e-06 1.04553e-06 0)
(1.41407e-06 1.07497e-06 0)
(1.44045e-06 1.10498e-06 0)
(8.5881e-07 5.52667e-07 0)
(8.90199e-07 5.81366e-07 0)
(9.21372e-07 6.09775e-07 0)
(9.51657e-07 6.37494e-07 0)
(9.81561e-07 6.64959e-07 0)
(1.01091e-06 6.92144e-07 0)
(1.0399e-06 7.19218e-07 0)
(1.06851e-06 7.46247e-07 0)
(1.09685e-06 7.73318e-07 0)
(1.12493e-06 8.00496e-07 0)
(1.15281e-06 8.2784e-07 0)
(1.18054e-06 8.55401e-07 0)
(1.20813e-06 8.83224e-07 0)
(1.23564e-06 9.11353e-07 0)
(1.26308e-06 9.3983e-07 0)
(1.29048e-06 9.68698e-07 0)
(1.31786e-06 9.98008e-07 0)
(1.34524e-06 1.02781e-06 0)
(1.37262e-06 1.0582e-06 0)
(1.39999e-06 1.08923e-06 0)
(7.82356e-07 5.11831e-07 0)
(8.17177e-07 5.42464e-07 0)
(8.51636e-07 5.72767e-07 0)
(8.8489e-07 6.02247e-07 0)
(9.17541e-07 6.31345e-07 0)
(9.49418e-07 6.60072e-07 0)
(9.80729e-07 6.88586e-07 0)
(1.01149e-06 7.16973e-07 0)
(1.04179e-06 7.45326e-07 0)
(1.07168e-06 7.73719e-07 0)
(1.10124e-06 8.02222e-07 0)
(1.13051e-06 8.30894e-07 0)
(1.15953e-06 8.59788e-07 0)
(1.18837e-06 8.88954e-07 0)
(1.21705e-06 9.18442e-07 0)
(1.24563e-06 9.48303e-07 0)
(1.27412e-06 9.78599e-07 0)
(1.30257e-06 1.00939e-06 0)
(1.33099e-06 1.0408e-06 0)
(1.35941e-06 1.07287e-06 0)
(7.05573e-07 4.67014e-07 0)
(7.43737e-07 4.99957e-07 0)
(7.81395e-07 5.32386e-07 0)
(8.17634e-07 5.63927e-07 0)
(8.53026e-07 5.94892e-07 0)
(8.8746e-07 6.25387e-07 0)
(9.21121e-07 6.55552e-07 0)
(9.54058e-07 6.85502e-07 0)
(9.8637e-07 7.15336e-07 0)
(1.01813e-06 7.45141e-07 0)
(1.0494e-06 7.74991e-07 0)
(1.08026e-06 8.04952e-07 0)
(1.11076e-06 8.35086e-07 0)
(1.14097e-06 8.65446e-07 0)
(1.17094e-06 8.96088e-07 0)
(1.20072e-06 9.27069e-07 0)
(1.23035e-06 9.58457e-07 0)
(1.2599e-06 9.90324e-07 0)
(1.28938e-06 1.02279e-06 0)
(1.31888e-06 1.05593e-06 0)
(6.29366e-07 4.18908e-07 0)
(6.70697e-07 4.54395e-07 0)
(7.11218e-07 4.89014e-07 0)
(7.5037e-07 5.22834e-07 0)
(7.8845e-07 5.55915e-07 0)
(8.25456e-07 5.88418e-07 0)
(8.61504e-07 6.20464e-07 0)
(8.96664e-07 6.52183e-07 0)
(9.31032e-07 6.83685e-07 0)
(9.64689e-07 7.15069e-07 0)
(9.97719e-07 7.46422e-07 0)
(1.0302e-06 7.77818e-07 0)
(1.0622e-06 8.09326e-07 0)
(1.0938e-06 8.41006e-07 0)
(1.12507e-06 8.72918e-07 0)
(1.15606e-06 9.05121e-07 0)
(1.18684e-06 9.37686e-07 0)
(1.21748e-06 9.70687e-07 0)
(1.24802e-06 1.00425e-06 0)
(1.27859e-06 1.03844e-06 0)
(5.70649e-07 3.82768e-07 0)
(6.13736e-07 4.20105e-07 0)
(6.55758e-07 4.55962e-07 0)
(6.96489e-07 4.91078e-07 0)
(7.36093e-07 5.25452e-07 0)
(7.74576e-07 5.59235e-07 0)
(8.12037e-07 5.9254e-07 0)
(8.48537e-07 6.25479e-07 0)
(8.84163e-07 6.58155e-07 0)
(9.18994e-07 6.9066e-07 0)
(9.53112e-07 7.23078e-07 0)
(9.86596e-07 7.55479e-07 0)
(1.01952e-06 7.8793e-07 0)
(1.05197e-06 8.2049e-07 0)
(1.08401e-06 8.53214e-07 0)
(1.11571e-06 8.8616e-07 0)
(1.14715e-06 9.19392e-07 0)
(1.17841e-06 9.52977e-07 0)
(1.20954e-06 9.87023e-07 0)
(1.24072e-06 1.02159e-06 0)
(5.31559e-07 3.61048e-07 0)
(5.74647e-07 3.98374e-07 0)
(6.16677e-07 4.3452e-07 0)
(6.57537e-07 4.70031e-07 0)
(6.97339e-07 5.04895e-07 0)
(7.36071e-07 5.39217e-07 0)
(7.73816e-07 5.73087e-07 0)
(8.10617e-07 6.06594e-07 0)
(8.46548e-07 6.39823e-07 0)
(8.81676e-07 6.72853e-07 0)
(9.16076e-07 7.05755e-07 0)
(9.49819e-07 7.38592e-07 0)
(9.82978e-07 7.71422e-07 0)
(1.01563e-06 8.04298e-07 0)
(1.04784e-06 8.37269e-07 0)
(1.07969e-06 8.70385e-07 0)
(1.11126e-06 9.03699e-07 0)
(1.14262e-06 9.37269e-07 0)
(1.17386e-06 9.71177e-07 0)
(1.20514e-06 1.00547e-06 0)
(4.97068e-07 3.40202e-07 0)
(5.39379e-07 3.77407e-07 0)
(5.80978e-07 4.1365e-07 0)
(6.21522e-07 4.49398e-07 0)
(6.61159e-07 4.84613e-07 0)
(6.99815e-07 5.1936e-07 0)
(7.37562e-07 5.53706e-07 0)
(7.74414e-07 5.87711e-07 0)
(8.10434e-07 6.21444e-07 0)
(8.45672e-07 6.54964e-07 0)
(8.80192e-07 6.88329e-07 0)
(9.14058e-07 7.21589e-07 0)
(9.47336e-07 7.54793e-07 0)
(9.80097e-07 7.87984e-07 0)
(1.01241e-06 8.21201e-07 0)
(1.04435e-06 8.54484e-07 0)
(1.07599e-06 8.87874e-07 0)
(1.10743e-06 9.21413e-07 0)
(1.13873e-06 9.55152e-07 0)
(1.17008e-06 9.89125e-07 0)
(4.66167e-07 3.20135e-07 0)
(5.07464e-07 3.57026e-07 0)
(5.48316e-07 3.93227e-07 0)
(5.88254e-07 4.2911e-07 0)
(6.27444e-07 4.6459e-07 0)
(6.65762e-07 4.99694e-07 0)
(7.03267e-07 5.34456e-07 0)
(7.39952e-07 5.68914e-07 0)
(7.75864e-07 6.03111e-07 0)
(8.11038e-07 6.3709e-07 0)
(8.45528e-07 6.70892e-07 0)
(8.79386e-07 7.04557e-07 0)
(9.12673e-07 7.38121e-07 0)
(9.45452e-07 7.71614e-07 0)
(9.77788e-07 8.05068e-07 0)
(1.00975e-06 8.3851e-07 0)
(1.04142e-06 8.71962e-07 0)
(1.07289e-06 9.05458e-07 0)
(1.10422e-06 9.39016e-07 0)
(1.13562e-06 9.72642e-07 0)
(4.38499e-07 3.01053e-07 0)
(4.78557e-07 3.37518e-07 0)
(5.18408e-07 3.73558e-07 0)
(5.57498e-07 4.09454e-07 0)
(5.96004e-07 4.45085e-07 0)
(6.33762e-07 4.80447e-07 0)
(6.70821e-07 5.1554e-07 0)
(7.0715e-07 5.50376e-07 0)
(7.42783e-07 5.84977e-07 0)
(7.7774e-07 6.19364e-07 0)
(8.12064e-07 6.53564e-07 0)
(8.45797e-07 6.87601e-07 0)
(8.78992e-07 7.21498e-07 0)
(9.11702e-07 7.55275e-07 0)
(9.4399e-07 7.8895e-07 0)
(9.75919e-07 8.22536e-07 0)
(1.00757e-06 8.56044e-07 0)
(1.039e-06 8.89484e-07 0)
(1.07036e-06 9.22831e-07 0)
(1.10178e-06 9.561e-07 0)
(4.13529e-07 2.82947e-07 0)
(4.52226e-07 3.18881e-07 0)
(4.9091e-07 3.54656e-07 0)
(5.28984e-07 3.90466e-07 0)
(5.66628e-07 4.26157e-07 0)
(6.03652e-07 4.61692e-07 0)
(6.40095e-07 4.9704e-07 0)
(6.75908e-07 5.32187e-07 0)
(7.11115e-07 5.67132e-07 0)
(7.45721e-07 6.01876e-07 0)
(7.79759e-07 6.3643e-07 0)
(8.13261e-07 6.70802e-07 0)
(8.4627e-07 7.05001e-07 0)
(8.78836e-07 7.39035e-07 0)
(9.1101e-07 7.72909e-07 0)
(9.42856e-07 8.06623e-07 0)
(9.74435e-07 8.40172e-07 0)
(1.00584e-06 8.73536e-07 0)
(1.03713e-06 9.06685e-07 0)
(1.0685e-06 9.39616e-07 0)
(3.90825e-07 2.65825e-07 0)
(4.28084e-07 3.01168e-07 0)
(4.65484e-07 3.36603e-07 0)
(5.02419e-07 3.72245e-07 0)
(5.39065e-07 4.0791e-07 0)
(5.75219e-07 4.43537e-07 0)
(6.1091e-07 4.79062e-07 0)
(6.46079e-07 5.1445e-07 0)
(6.80736e-07 5.49673e-07 0)
(7.14878e-07 5.84718e-07 0)
(7.48526e-07 6.19574e-07 0)
(7.81705e-07 6.54236e-07 0)
(8.1445e-07 6.88699e-07 0)
(8.468e-07 7.22959e-07 0)
(8.78803e-07 7.57007e-07 0)
(9.10515e-07 7.9083e-07 0)
(9.41989e-07 8.24406e-07 0)
(9.73312e-07 8.57705e-07 0)
(1.00453e-06 8.90664e-07 0)
(1.03582e-06 9.23254e-07 0)
(3.69958e-07 2.49644e-07 0)
(4.05743e-07 2.84357e-07 0)
(4.41789e-07 3.19399e-07 0)
(4.77504e-07 3.54807e-07 0)
(5.13055e-07 3.9038e-07 0)
(5.48237e-07 4.26028e-07 0)
(5.83072e-07 4.61663e-07 0)
(6.17492e-07 4.97225e-07 0)
(6.515e-07 5.32667e-07 0)
(6.85084e-07 5.67954e-07 0)
(7.18257e-07 6.03061e-07 0)
(7.51035e-07 6.37967e-07 0)
(7.83446e-07 6.72654e-07 0)
(8.15522e-07 7.07105e-07 0)
(8.47302e-07 7.41299e-07 0)
(8.78835e-07 7.75211e-07 0)
(9.10166e-07 8.08804e-07 0)
(9.41373e-07 8.42033e-07 0)
(9.72493e-07 8.74814e-07 0)
(1.00368e-06 9.07103e-07 0)
(3.5055e-07 2.34354e-07 0)
(3.84847e-07 2.68428e-07 0)
(4.19498e-07 3.03043e-07 0)
(4.53939e-07 3.38173e-07 0)
(4.88327e-07 3.73599e-07 0)
(5.22463e-07 4.0921e-07 0)
(5.56362e-07 4.44894e-07 0)
(5.89954e-07 4.80569e-07 0)
(6.23234e-07 5.16169e-07 0)
(6.56185e-07 5.51643e-07 0)
(6.88813e-07 5.86948e-07 0)
(7.21127e-07 6.2205e-07 0)
(7.53146e-07 6.56918e-07 0)
(7.84898e-07 6.91523e-07 0)
(8.16412e-07 7.25833e-07 0)
(8.4773e-07 7.59813e-07 0)
(8.78889e-07 7.93413e-07 0)
(9.09952e-07 8.26577e-07 0)
(9.40948e-07 8.59202e-07 0)
(9.72005e-07 8.9123e-07 0)
(3.32247e-07 2.19897e-07 0)
(3.65058e-07 2.5334e-07 0)
(3.98294e-07 2.87513e-07 0)
(4.31428e-07 3.22334e-07 0)
(4.64608e-07 3.57575e-07 0)
(4.97645e-07 3.93101e-07 0)
(5.30551e-07 4.2878e-07 0)
(5.63255e-07 4.64514e-07 0)
(5.95749e-07 5.00218e-07 0)
(6.28009e-07 5.35824e-07 0)
(6.60038e-07 5.71276e-07 0)
(6.91837e-07 6.06525e-07 0)
(7.23421e-07 6.41531e-07 0)
(7.54808e-07 6.76253e-07 0)
(7.86022e-07 7.10649e-07 0)
(8.17095e-07 7.44676e-07 0)
(8.48055e-07 7.78274e-07 0)
(8.78953e-07 8.11379e-07 0)
(9.09808e-07 8.43874e-07 0)
(9.40714e-07 8.75693e-07 0)
(3.14728e-07 2.06213e-07 0)
(3.46058e-07 2.3905e-07 0)
(3.77869e-07 2.72782e-07 0)
(4.09677e-07 3.0728e-07 0)
(4.4162e-07 3.42306e-07 0)
(4.73524e-07 3.77709e-07 0)
(5.05397e-07 4.13341e-07 0)
(5.37173e-07 4.49085e-07 0)
(5.68838e-07 4.84841e-07 0)
(6.00368e-07 5.20528e-07 0)
(6.31758e-07 5.56076e-07 0)
(6.63007e-07 5.91426e-07 0)
(6.94121e-07 6.26526e-07 0)
(7.25114e-07 6.61326e-07 0)
(7.56001e-07 6.95778e-07 0)
(7.86807e-07 7.2983e-07 0)
(8.1755e-07 7.63418e-07 0)
(8.48265e-07 7.96471e-07 0)
(8.78964e-07 8.28867e-07 0)
(9.09706e-07 8.60535e-07 0)
(2.97689e-07 1.93255e-07 0)
(3.27545e-07 2.25522e-07 0)
(3.57926e-07 2.58823e-07 0)
(3.88397e-07 2.92992e-07 0)
(4.19086e-07 3.27785e-07 0)
(4.49836e-07 3.63036e-07 0)
(4.80654e-07 3.9858e-07 0)
(5.11475e-07 4.34291e-07 0)
(5.42286e-07 4.70053e-07 0)
(5.73059e-07 5.05773e-07 0)
(6.03787e-07 5.4137e-07 0)
(6.34463e-07 5.76775e-07 0)
(6.65087e-07 6.11925e-07 0)
(6.95666e-07 6.46767e-07 0)
(7.2621e-07 6.81243e-07 0)
(7.56733e-07 7.15299e-07 0)
(7.87245e-07 7.48867e-07 0)
(8.17768e-07 7.81876e-07 0)
(8.48301e-07 8.14205e-07 0)
(8.78872e-07 8.45784e-07 0)
(2.80839e-07 1.80977e-07 0)
(3.0922e-07 2.12715e-07 0)
(3.38169e-07 2.45604e-07 0)
(3.67297e-07 2.79447e-07 0)
(3.96724e-07 3.13995e-07 0)
(4.2631e-07 3.49069e-07 0)
(4.56062e-07 3.84495e-07 0)
(4.85918e-07 4.20133e-07 0)
(5.15865e-07 4.55858e-07 0)
(5.45872e-07 4.91566e-07 0)
(5.75928e-07 5.27166e-07 0)
(6.06022e-07 5.62581e-07 0)
(6.36148e-07 5.97742e-07 0)
(6.66306e-07 6.32587e-07 0)
(6.96499e-07 6.67058e-07 0)
(7.26732e-07 7.01095e-07 0)
(7.57009e-07 7.34634e-07 0)
(7.87334e-07 7.67606e-07 0)
(8.17699e-07 7.99899e-07 0)
(8.48097e-07 8.31449e-07 0)
(2.6389e-07 1.69359e-07 0)
(2.90791e-07 2.00613e-07 0)
(3.18301e-07 2.3311e-07 0)
(3.46083e-07 2.66631e-07 0)
(3.74248e-07 3.00924e-07 0)
(4.02671e-07 3.358e-07 0)
(4.31359e-07 3.71076e-07 0)
(4.60255e-07 4.06605e-07 0)
(4.89341e-07 4.42251e-07 0)
(5.18588e-07 4.77904e-07 0)
(5.47978e-07 5.13464e-07 0)
(5.77496e-07 5.48847e-07 0)
(6.07129e-07 5.83979e-07 0)
(6.36872e-07 6.18793e-07 0)
(6.66718e-07 6.53227e-07 0)
(6.96665e-07 6.87224e-07 0)
(7.26707e-07 7.20723e-07 0)
(7.56837e-07 7.53661e-07 0)
(7.87037e-07 7.85944e-07 0)
(8.1727e-07 8.17521e-07 0)
(2.46542e-07 1.58371e-07 0)
(2.71947e-07 1.89183e-07 0)
(2.98012e-07 2.21308e-07 0)
(3.24449e-07 2.54513e-07 0)
(3.51356e-07 2.88542e-07 0)
(3.78629e-07 3.232e-07 0)
(4.06268e-07 3.58299e-07 0)
(4.34222e-07 3.93684e-07 0)
(4.6247e-07 4.29214e-07 0)
(4.90979e-07 4.6477e-07 0)
(5.19727e-07 5.0025e-07 0)
(5.48691e-07 5.35561e-07 0)
(5.77854e-07 5.70626e-07 0)
(6.072e-07 6.05375e-07 0)
(6.36717e-07 6.39745e-07 0)
(6.66392e-07 6.73681e-07 0)
(6.96212e-07 7.07125e-07 0)
(7.26157e-07 7.4003e-07 0)
(7.56201e-07 7.72323e-07 0)
(7.86283e-07 8.03972e-07 0)
(2.28489e-07 1.48048e-07 0)
(2.52375e-07 1.78448e-07 0)
(2.76984e-07 2.10212e-07 0)
(3.02079e-07 2.43097e-07 0)
(3.27744e-07 2.76846e-07 0)
(3.53888e-07 3.11261e-07 0)
(3.80509e-07 3.4615e-07 0)
(4.07556e-07 3.81352e-07 0)
(4.35004e-07 4.16725e-07 0)
(4.62816e-07 4.52144e-07 0)
(4.90964e-07 4.87501e-07 0)
(5.19416e-07 5.22702e-07 0)
(5.48148e-07 5.57664e-07 0)
(5.77135e-07 5.92316e-07 0)
(6.06355e-07 6.26595e-07 0)
(6.35786e-07 6.60447e-07 0)
(6.65407e-07 6.93824e-07 0)
(6.95186e-07 7.2669e-07 0)
(7.25091e-07 7.59002e-07 0)
(7.55044e-07 7.90755e-07 0)
(2.09372e-07 1.38335e-07 0)
(2.31712e-07 1.6835e-07 0)
(2.54856e-07 1.99758e-07 0)
(2.78621e-07 2.32318e-07 0)
(3.0307e-07 2.6577e-07 0)
(3.28124e-07 2.99917e-07 0)
(3.53774e-07 3.34564e-07 0)
(3.79969e-07 3.6955e-07 0)
(4.06678e-07 4.04727e-07 0)
(4.33856e-07 4.39971e-07 0)
(4.61467e-07 4.75169e-07 0)
(4.89473e-07 5.10224e-07 0)
(5.17837e-07 5.45053e-07 0)
(5.46524e-07 5.79581e-07 0)
(5.75501e-07 6.13746e-07 0)
(6.04736e-07 6.47496e-07 0)
(6.34195e-07 6.80792e-07 0)
(6.63841e-07 7.1361e-07 0)
(6.93631e-07 7.45939e-07 0)
(7.23485e-07 7.77806e-07 0)
(1.88836e-07 1.29384e-07 0)
(2.096e-07 1.59005e-07 0)
(2.31278e-07 1.90033e-07 0)
(2.53734e-07 2.22234e-07 0)
(2.77006e-07 2.55349e-07 0)
(3.01026e-07 2.89182e-07 0)
(3.25772e-07 3.2354e-07 0)
(3.51191e-07 3.58259e-07 0)
(3.77241e-07 3.93193e-07 0)
(4.03871e-07 4.28214e-07 0)
(4.31034e-07 4.63209e-07 0)
(4.5868e-07 4.98081e-07 0)
(4.86762e-07 5.32742e-07 0)
(5.15232e-07 5.67119e-07 0)
(5.44044e-07 6.01149e-07 0)
(5.73151e-07 6.34781e-07 0)
(6.0251e-07 6.67983e-07 0)
(6.32071e-07 7.00742e-07 0)
(6.61785e-07 7.33076e-07 0)
(6.91572e-07 7.65043e-07 0)
(1.66364e-07 1.20983e-07 0)
(1.85531e-07 1.50203e-07 0)
(2.05757e-07 1.80834e-07 0)
(2.26947e-07 2.12651e-07 0)
(2.49109e-07 2.454e-07 0)
(2.72179e-07 2.78887e-07 0)
(2.96119e-07 3.12919e-07 0)
(3.20869e-07 3.47336e-07 0)
(3.46375e-07 3.81991e-07 0)
(3.72575e-07 4.16757e-07 0)
(3.9941e-07 4.51519e-07 0)
(4.26818e-07 4.86179e-07 0)
(4.54738e-07 5.20651e-07 0)
(4.8311e-07 5.54859e-07 0)
(5.11871e-07 5.8874e-07 0)
(5.4096e-07 6.22246e-07 0)
(5.70316e-07 6.55345e-07 0)
(5.99871e-07 6.88036e-07 0)
(6.29568e-07 7.20354e-07 0)
(6.59326e-07 7.52391e-07 0)
(1.41663e-07 1.1362e-07 0)
(1.59221e-07 1.42345e-07 0)
(1.78029e-07 1.72481e-07 0)
(1.98012e-07 2.03818e-07 0)
(2.19151e-07 2.36106e-07 0)
(2.41372e-07 2.69158e-07 0)
(2.64623e-07 3.02781e-07 0)
(2.88829e-07 3.36818e-07 0)
(3.13923e-07 3.71122e-07 0)
(3.39828e-07 4.05567e-07 0)
(3.66474e-07 4.40039e-07 0)
(3.93783e-07 4.74439e-07 0)
(4.21682e-07 5.08681e-07 0)
(4.50096e-07 5.42691e-07 0)
(4.78945e-07 5.76405e-07 0)
(5.0815e-07 6.09777e-07 0)
(5.3763e-07 6.42777e-07 0)
(5.67293e-07 6.75401e-07 0)
(5.97063e-07 7.07691e-07 0)
(6.26841e-07 7.39747e-07 0)
(1.99534e-08 1.99695e-09 0)
(6.02596e-08 1.26908e-08 0)
(1.03066e-07 3.28461e-08 0)
(1.48914e-07 6.11119e-08 0)
(1.98688e-07 9.67336e-08 0)
(2.52669e-07 1.3845e-07 0)
(3.11082e-07 1.84907e-07 0)
(3.73832e-07 2.34681e-07 0)
(4.40734e-07 2.8633e-07 0)
(5.11437e-07 3.38666e-07 0)
(1.88056e-08 1.77168e-09 0)
(5.68352e-08 1.13565e-08 0)
(9.71226e-08 2.96329e-08 0)
(1.40085e-07 5.5506e-08 0)
(1.86526e-07 8.84094e-08 0)
(2.36705e-07 1.27285e-07 0)
(2.90849e-07 1.70959e-07 0)
(3.48871e-07 2.18179e-07 0)
(4.10562e-07 2.67561e-07 0)
(4.75555e-07 3.18166e-07 0)
(1.77737e-08 1.50527e-09 0)
(5.37623e-08 1.0004e-08 0)
(9.18201e-08 2.65229e-08 0)
(1.32224e-07 5.01631e-08 0)
(1.75688e-07 8.0501e-08 0)
(2.22431e-07 1.16641e-07 0)
(2.72694e-07 1.57563e-07 0)
(3.26443e-07 2.02191e-07 0)
(3.83606e-07 2.4927e-07 0)
(4.43785e-07 2.98134e-07 0)
(1.68292e-08 1.19552e-09 0)
(5.09624e-08 8.64359e-09 0)
(8.70467e-08 2.35741e-08 0)
(1.25231e-07 4.52283e-08 0)
(1.66152e-07 7.32879e-08 0)
(2.09968e-07 1.06981e-07 0)
(2.56904e-07 1.45399e-07 0)
(3.06899e-07 1.8758e-07 0)
(3.59968e-07 2.32337e-07 0)
(4.15632e-07 2.79092e-07 0)
(1.59463e-08 8.39547e-10 0)
(4.83487e-08 7.2288e-09 0)
(8.26214e-08 2.0652e-08 0)
(1.18795e-07 4.04554e-08 0)
(1.57438e-07 6.63982e-08 0)
(1.98656e-07 9.78083e-08 0)
(2.42669e-07 1.33873e-07 0)
(2.89389e-07 1.7374e-07 0)
(3.38924e-07 2.16325e-07 0)
(3.90642e-07 2.61041e-07 0)
(1.51175e-08 4.43307e-10 0)
(4.58992e-08 5.76873e-09 0)
(7.85036e-08 1.77718e-08 0)
(1.12854e-07 3.58758e-08 0)
(1.49463e-07 5.98955e-08 0)
(1.88374e-07 8.92303e-08 0)
(2.29799e-07 1.23138e-07 0)
(2.73608e-07 1.60836e-07 0)
(3.19994e-07 2.01336e-07 0)
(3.68224e-07 2.44013e-07 0)
(1.43262e-08 4.86753e-12 0)
(4.35622e-08 4.2425e-09 0)
(7.45947e-08 1.4873e-08 0)
(1.07252e-07 3.13771e-08 0)
(1.41999e-07 5.36102e-08 0)
(1.78826e-07 8.10274e-08 0)
(2.1794e-07 1.12949e-07 0)
(2.59171e-07 1.48643e-07 0)
(3.0277e-07 1.87217e-07 0)
(3.47931e-07 2.27978e-07 0)
(1.35663e-08 -4.7012e-10 0)
(4.13183e-08 2.6566e-09 0)
(7.0857e-08 1.19576e-08 0)
(1.01925e-07 2.69556e-08 0)
(1.34946e-07 4.75348e-08 0)
(1.69864e-07 7.31884e-08 0)
(2.06877e-07 1.03284e-07 0)
(2.45785e-07 1.37124e-07 0)
(2.86878e-07 1.73903e-07 0)
(3.29326e-07 2.12872e-07 0)
(1.28278e-08 -9.8192e-10 0)
(3.91383e-08 1.00255e-09 0)
(6.72369e-08 8.9982e-09 0)
(9.67884e-08 2.25598e-08 0)
(1.28182e-07 4.1591e-08 0)
(1.61322e-07 6.56122e-08 0)
(1.96401e-07 9.40307e-08 0)
(2.33195e-07 1.26169e-07 0)
(2.72014e-07 1.61298e-07 0)
(3.12036e-07 1.98623e-07 0)
(1.21055e-08 -1.52715e-09 0)
(3.70056e-08 -7.16756e-10 0)
(6.37029e-08 5.99219e-09 0)
(9.17899e-08 1.81787e-08 0)
(1.21626e-07 3.57578e-08 0)
(1.53082e-07 5.82663e-08 0)
(1.86343e-07 8.51403e-08 0)
(2.2118e-07 1.15717e-07 0)
(2.57902e-07 1.49328e-07 0)
(2.95727e-07 1.85154e-07 0)
(1.13934e-08 -2.10552e-09 0)
(3.49034e-08 -2.50535e-09 0)
(6.02237e-08 2.92598e-09 0)
(8.68777e-08 1.37876e-08 0)
(1.15198e-07 2.99976e-08 0)
(1.45031e-07 5.11008e-08 0)
(1.76555e-07 7.65536e-08 0)
(2.09546e-07 1.05702e-07 0)
(2.443e-07 1.37926e-07 0)
(2.80097e-07 1.72396e-07 0)
(1.06877e-08 -2.71612e-09 0)
(3.28212e-08 -4.36376e-09 0)
(5.67778e-08 -2.04461e-10 0)
(8.20136e-08 9.37885e-09 0)
(1.08835e-07 2.42971e-08 0)
(1.37075e-07 4.40956e-08 0)
(1.66903e-07 6.82407e-08 0)
(1.98113e-07 9.60854e-08 0)
(2.30986e-07 1.27044e-07 0)
(2.64871e-07 1.60291e-07 0)
(9.98627e-09 -3.3606e-09 0)
(3.07543e-08 -6.29809e-09 0)
(5.33517e-08 -3.40961e-09 0)
(7.71668e-08 4.9389e-09 0)
(1.02482e-07 1.86392e-08 0)
(1.29124e-07 3.72282e-08 0)
(1.57262e-07 6.01732e-08 0)
(1.86716e-07 8.68311e-08 0)
(2.17749e-07 1.16641e-07 0)
(2.49788e-07 1.48792e-07 0)
(9.28893e-09 -4.04456e-09 0)
(2.87062e-08 -8.3154e-09 0)
(4.99409e-08 -6.69328e-09 0)
(7.23154e-08 4.71388e-10 0)
(9.60891e-08 1.3032e-08 0)
(1.21097e-07 3.05072e-08 0)
(1.47513e-07 5.23563e-08 0)
(1.75192e-07 7.79381e-08 0)
(2.04381e-07 1.0671e-07 0)
(2.3459e-07 1.3788e-07 0)
(8.60197e-09 -4.77848e-09 0)
(2.6702e-08 -1.04338e-08 0)
(4.6564e-08 -1.00716e-08 0)
(6.74551e-08 -4.03445e-09 0)
(8.96173e-08 7.46956e-09 0)
(1.12913e-07 2.39277e-08 0)
(1.37531e-07 4.47826e-08 0)
(1.6337e-07 6.93932e-08 0)
(1.90665e-07 9.723e-08 0)
(2.19012e-07 1.27526e-07 0)
(7.93879e-09 -5.59666e-09 0)
(2.47832e-08 -1.26794e-08 0)
(4.32521e-08 -1.35399e-08 0)
(6.25872e-08 -8.53941e-09 0)
(8.30278e-08 2.01345e-09 0)
(1.04489e-07 1.75617e-08 0)
(1.27187e-07 3.75257e-08 0)
(1.51073e-07 6.12649e-08 0)
(1.76376e-07 8.82617e-08 0)
(2.02779e-07 1.17778e-07 0)
(7.34887e-09 -6.5406e-09 0)
(2.30778e-08 -1.51035e-08 0)
(4.01108e-08 -1.71313e-08 0)
(5.7757e-08 -1.30658e-08 0)
(7.62946e-08 -3.34932e-09 0)
(9.57305e-08 1.1397e-08 0)
(1.16323e-07 3.05693e-08 0)
(1.38086e-07 5.35291e-08 0)
(1.61243e-07 7.97715e-08 0)
(1.85565e-07 1.08591e-07 0)
(6.93759e-09 -7.78487e-09 0)
(2.17341e-08 -1.77855e-08 0)
(3.72421e-08 -2.07761e-08 0)
(5.29861e-08 -1.74364e-08 0)
(6.93702e-08 -8.39197e-09 0)
(8.65236e-08 5.67831e-09 0)
(1.04769e-07 2.41553e-08 0)
(1.24183e-07 4.64146e-08 0)
(1.44991e-07 7.19678e-08 0)
(1.67047e-07 1.00149e-07 0)
(7.21593e-09 -9.46073e-09 0)
(2.13019e-08 -2.08216e-08 0)
(3.4996e-08 -2.45402e-08 0)
(4.83971e-08 -2.175e-08 0)
(6.22002e-08 -1.32343e-08 0)
(7.66868e-08 2.61047e-10 0)
(9.22466e-08 1.81195e-08 0)
(1.09009e-07 3.97388e-08 0)
(1.27197e-07 6.46546e-08 0)
(1.46735e-07 9.22417e-08 0)
(9.2699e-09 -1.24881e-08 0)
(2.21246e-08 -2.42856e-08 0)
(3.35346e-08 -2.79552e-08 0)
(4.39702e-08 -2.52781e-08 0)
(5.46996e-08 -1.7102e-08 0)
(6.60801e-08 -4.08782e-09 0)
(7.85796e-08 1.31909e-08 0)
(9.23491e-08 3.41848e-08 0)
(1.07618e-07 5.84598e-08 0)
(1.24349e-07 8.54388e-08 0)
)
;

boundaryField
{
    left
    {
        type            fixedDisplacement;
        value           uniform (0 0 0);
    }
    right
    {
        type            solidTraction;
        tractionSeries  
{
        file            "$FOAM_CASE/constant/timeVsTraction";
        outOfBounds     clamp;
}
        pressure        uniform 0;
        secondOrder     false;
        setEffectiveTraction false;
        relaxationFactor 1;
        value           nonuniform List<vector> 
30
(
(1.6479e-06 1.19045e-06 3.12517e-21)
(1.60976e-06 1.17664e-06 3.13955e-21)
(1.57127e-06 1.16293e-06 3.18077e-21)
(1.53234e-06 1.14907e-06 3.24896e-21)
(1.49296e-06 1.13488e-06 3.34261e-21)
(1.45322e-06 1.12024e-06 3.46052e-21)
(1.41327e-06 1.10505e-06 3.60051e-21)
(1.37325e-06 1.08927e-06 3.76057e-21)
(1.33336e-06 1.07289e-06 3.93819e-21)
(1.29377e-06 1.05597e-06 4.13058e-21)
(1.25631e-06 1.03931e-06 4.24825e-21)
(1.22079e-06 1.02293e-06 4.26723e-21)
(1.18578e-06 1.00631e-06 4.28071e-21)
(1.15133e-06 9.89519e-07 4.28894e-21)
(1.1175e-06 9.72683e-07 4.29085e-21)
(1.08419e-06 9.55909e-07 4.28668e-21)
(1.05147e-06 9.39262e-07 4.27733e-21)
(1.01928e-06 9.2286e-07 4.26289e-21)
(9.87544e-07 9.06776e-07 4.24429e-21)
(9.56177e-07 8.91074e-07 4.22225e-21)
(9.25084e-07 8.75804e-07 4.19768e-21)
(8.94161e-07 8.60997e-07 4.17177e-21)
(8.63297e-07 8.46662e-07 4.1457e-21)
(8.32385e-07 8.32789e-07 4.12072e-21)
(8.01322e-07 8.19344e-07 4.09778e-21)
(7.70019e-07 8.06271e-07 4.07827e-21)
(7.38411e-07 7.93492e-07 4.06294e-21)