/*--------------------------------*- C++ -*----------------------------------*\
  =========                 |
  \\      /  F ield         | OpenFOAM: The Open Source CFD Toolbox
   \\    /   O peration     | Website:  https://openfoam.org
    \\  /    A nd           | Version:  9
     \\/     M anipulation  |
\*---------------------------------------------------------------------------*/
FoamFile
{
    format      ascii;
    class       volSymmTensorField;
    location    "1";
    object      epsilon;
}
// * * * * * * * * * * * * * * * * * * * * * * * * * * * * * * * * * * * * * //

dimensions      [0 0 0 0 0 0 0];

internalField   nonuniform List<symmTensor> 
1000
(
(4.26136e-07 -5.48654e-07 6.97441e-20 8.4643e-08 7.63592e-20 2.08401e-34)
(5.86275e-07 -4.23963e-07 -8.65744e-22 -1.04776e-07 4.83829e-22 0)
(6.64789e-07 -3.25619e-07 1.01196e-21 -1.95338e-07 -1.9167e-22 0)
(7.08846e-07 -2.51398e-07 2.58601e-22 -2.58781e-07 -1.83821e-22 0)
(7.30099e-07 -1.9167e-07 -1.09838e-21 -2.93941e-07 7.59477e-23 0)
(7.37262e-07 -1.44938e-07 -1.17485e-22 -3.16398e-07 1.28425e-22 0)
(7.36465e-07 -1.06945e-07 -1.00295e-21 -3.28536e-07 -5.35288e-22 0)
(7.29841e-07 -7.67191e-08 6.87485e-22 -3.34701e-07 3.20977e-22 0)
(7.21229e-07 -5.15938e-08 -3.58075e-22 -3.36919e-07 -3.98058e-22 0)
(7.08691e-07 -3.06764e-08 0 -3.37219e-07 0 0)
(5.75054e-07 -6.09981e-07 6.92437e-20 2.31911e-08 8.89255e-20 1.20204e-35)
(6.99142e-07 -4.37615e-07 0 -1.4516e-07 0 0)
(7.52394e-07 -3.13219e-07 8.13858e-22 -2.19802e-07 3.85231e-22 0)
(7.77114e-07 -2.23785e-07 -1.397e-21 -2.72654e-07 -7.39745e-22 0)
(7.83305e-07 -1.55582e-07 -5.94079e-22 -2.99341e-07 -3.55287e-22 0)
(7.78553e-07 -1.04535e-07 4.15274e-22 -3.15875e-07 4.16716e-22 0)
(7.68084e-07 -6.46741e-08 4.63214e-22 -3.233e-07 3.07541e-22 0)
(7.53911e-07 -3.4361e-08 1.08747e-21 -3.26619e-07 6.31236e-22 0)
(7.37959e-07 -9.79993e-09 0 -3.25493e-07 0 0)
(7.21109e-07 9.87075e-09 0 -3.2603e-07 0 0)
(7.4193e-07 -6.48832e-07 6.66112e-20 -5.82175e-08 9.96905e-20 0)
(8.16079e-07 -4.37188e-07 0 -1.9081e-07 0 0)
(8.3647e-07 -2.91705e-07 7.76021e-22 -2.41532e-07 3.97933e-22 0)
(8.37231e-07 -1.9031e-07 -2.31114e-22 -2.79018e-07 8.06965e-23 0)
(8.25609e-07 -1.16086e-07 -1.12928e-23 -2.94388e-07 4.96691e-24 0)
(8.07299e-07 -6.25837e-08 -3.8729e-22 -3.03305e-07 -3.94102e-22 0)
(7.86289e-07 -2.24038e-08 5.2498e-22 -3.05011e-07 2.4247e-22 0)
(7.63943e-07 6.944e-09 -3.91194e-22 -3.04733e-07 -2.85705e-22 0)
(7.41266e-07 2.97423e-08 -3.00282e-23 -3.00496e-07 5.24978e-23 0)
(7.19412e-07 4.82877e-08 -8.19321e-23 -3.00141e-07 -3.58285e-23 0)
(9.20522e-07 -6.59673e-07 5.86026e-20 -1.54963e-07 1.05456e-19 -6.73531e-36)
(9.3417e-07 -4.20949e-07 4.42372e-22 -2.40007e-07 -4.47692e-23 0)
(9.1568e-07 -2.6142e-07 -3.54861e-22 -2.60121e-07 -1.98453e-22 0)
(8.88642e-07 -1.52619e-07 -2.23214e-22 -2.78184e-07 4.23614e-23 0)
(8.5696e-07 -7.5632e-08 4.04031e-22 -2.7994e-07 3.84652e-22 0)
(8.23961e-07 -2.1962e-08 -4.84612e-22 -2.80098e-07 -3.17369e-22 0)
(7.91965e-07 1.6818e-08 -4.18837e-22 -2.75727e-07 -2.94863e-22 0)
(7.61575e-07 4.41114e-08 -9.33492e-22 -2.71812e-07 -6.75411e-22 0)
(7.32623e-07 6.42141e-08 -1.35282e-22 -2.65059e-07 -1.60417e-22 0)
(7.06463e-07 8.05895e-08 2.29417e-22 -2.63538e-07 1.99229e-22 0)
(1.10196e-06 -6.37545e-07 4.85229e-20 -2.60751e-07 1.05722e-19 -1.23464e-34)
(1.04955e-06 -3.86622e-07 2.31466e-26 -2.90473e-07 1.15119e-27 0)
(9.88001e-07 -2.21902e-07 -1.1482e-21 -2.7478e-07 -5.57661e-22 0)
(9.30413e-07 -1.11556e-07 1.03674e-22 -2.70215e-07 -3.54414e-24 0)
(8.7714e-07 -3.60558e-08 -1.44947e-22 -2.56604e-07 1.46197e-23 0)
(8.28871e-07 1.47822e-08 3.50368e-22 -2.47266e-07 3.18109e-22 0)
(7.85989e-07 4.99944e-08 -3.83834e-23 -2.36783e-07 1.10064e-23 0)
(7.47964e-07 7.37503e-08 3.67858e-22 -2.29453e-07 2.43585e-22 0)
(7.1362e-07 9.00846e-08 -8.28834e-23 -2.20942e-07 -1.66317e-22 0)
(6.83765e-07 1.03401e-07 -1.45933e-22 -2.18525e-07 -1.16047e-22 0)
(1.2802e-06 -5.81191e-07 3.59952e-20 -3.68561e-07 9.96384e-20 -1.29947e-34)
(1.15943e-06 -3.32742e-07 2.11166e-26 -3.38827e-07 4.4992e-27 0)
(1.05219e-06 -1.72615e-07 -1.14127e-26 -2.83691e-07 -1.79102e-27 0)
(9.62231e-07 -6.79559e-08 9.16053e-23 -2.54638e-07 1.15242e-23 0)
(8.86637e-07 8.69505e-10 -4.97107e-22 -2.24981e-07 -2.98832e-22 0)
(8.23269e-07 4.53088e-08 5.5915e-24 -2.06346e-07 -1.68199e-26 0)
(7.70164e-07 7.4601e-08 3.70099e-22 -1.90406e-07 2.47455e-22 0)
(7.25372e-07 9.33257e-08 7.87818e-22 -1.80363e-07 5.6763e-22 0)
(6.86652e-07 1.05031e-07 1.42668e-22 -1.71004e-07 1.03148e-22 0)
(6.53898e-07 1.14588e-07 -2.49665e-22 -1.68119e-07 -1.92911e-22 0)
(1.44321e-06 -4.86972e-07 2.60495e-20 -4.69751e-07 8.82742e-20 -2.80305e-34)
(1.25724e-06 -2.55295e-07 3.31277e-22 -3.79883e-07 1.33382e-22 0)
(1.10259e-06 -1.12135e-07 3.51445e-22 -2.82754e-07 1.57746e-22 0)
(9.80317e-07 -2.23445e-08 -7.52451e-23 -2.29341e-07 -2.26302e-23 0)
(8.83706e-07 3.33862e-08 3.60505e-22 -1.85019e-07 2.36844e-22 0)
(8.07119e-07 6.72719e-08 -3.31781e-22 -1.58883e-07 -2.24338e-22 0)
(7.45759e-07 8.8204e-08 9.21976e-23 -1.39274e-07 6.30586e-24 0)
(6.95897e-07 1.00543e-07 -2.95651e-22 -1.27921e-07 -1.90621e-22 0)
(6.54301e-07 1.07105e-07 -1.95859e-23 -1.18933e-07 2.1537e-24 0)
(6.19645e-07 1.1256e-07 -1.49488e-22 -1.16218e-07 -9.63349e-23 0)
(1.59579e-06 -3.54588e-07 1.59565e-20 -5.56838e-07 7.15502e-20 -1.14869e-35)
(1.33944e-06 -1.5042e-07 -8.86051e-22 -4.03435e-07 -3.14766e-22 0)
(1.13564e-06 -3.96708e-08 6.8251e-24 -2.6381e-07 3.75397e-24 0)
(9.83793e-07 2.26331e-08 1.09892e-22 -1.90625e-07 5.59245e-23 0)
(8.69703e-07 5.8001e-08 8.22402e-22 -1.36553e-07 4.01853e-22 0)
(7.83572e-07 7.74957e-08 -4.78018e-23 -1.07137e-07 -1.51865e-23 0)
(7.16995e-07 8.85066e-08 1.18303e-27 -8.71314e-08 2.4273e-28 0)
(6.64401e-07 9.40699e-08 -2.88927e-22 -7.66406e-08 -1.49857e-22 0)
(6.21654e-07 9.58957e-08 6.7158e-24 -6.94753e-08 3.98774e-25 0)
(5.86205e-07 9.76511e-08 2.13876e-23 -6.76513e-08 1.05827e-23 0)
(1.71323e-06 -1.67662e-07 6.8107e-21 -6.07557e-07 5.05565e-20 1.18407e-34)
(1.37894e-06 -1.78823e-08 -9.75161e-22 -3.82846e-07 -4.04169e-22 0)
(1.12886e-06 3.50448e-08 1.01244e-22 -2.09593e-07 8.63102e-23 0)
(9.58519e-07 5.49387e-08 9.48661e-23 -1.30827e-07 7.52007e-23 0)
(8.38692e-07 6.49953e-08 -3.95599e-23 -7.95798e-08 -2.42605e-23 0)
(7.51391e-07 6.85425e-08 3.20873e-22 -5.49204e-08 1.13543e-22 0)
(6.8538e-07 7.03406e-08 1.70591e-23 -3.96198e-08 5.3582e-24 0)
(6.33585e-07 7.04401e-08 5.17328e-22 -3.27079e-08 1.92985e-22 0)
(5.91776e-07 6.92582e-08 1.14277e-22 -2.86683e-08 4.30314e-23 0)
(5.56638e-07 6.86762e-08 6.46223e-23 -2.8217e-08 2.47549e-23 0)
(1.81707e-06 1.4301e-07 1.63391e-21 -5.59863e-07 2.87371e-20 1.24233e-34)
(1.34391e-06 1.60925e-07 -7.4272e-23 -2.51468e-07 -1.28609e-22 0)
(1.08167e-06 1.05534e-07 3.38765e-22 -1.05001e-07 1.41396e-22 0)
(9.18357e-07 6.78102e-08 1.72249e-23 -5.16363e-08 2.42528e-23 0)
(8.08522e-07 5.32222e-08 5.86679e-28 -2.41859e-08 5.4935e-28 0)
(7.27555e-07 4.51666e-08 3.25243e-22 -1.31927e-08 5.60251e-23 0)
(6.66044e-07 4.23597e-08 4.90019e-24 -7.36341e-09 1.47695e-24 0)
(6.16643e-07 4.07577e-08 2.49436e-22 -5.4274e-09 4.52953e-23 0)
(5.76261e-07 3.94889e-08 -2.63229e-24 -4.58863e-09 -2.27504e-25 0)
(5.41331e-07 3.8631e-08 -4.13468e-24 -4.94983e-09 -8.70157e-25 0)
(3.3784e-09 -1.05409e-09 3.40138e-20 -1.42967e-09 2.07481e-20 1.64604e-34)
(7.18753e-09 -6.90853e-09 -1.78334e-23 -1.63456e-09 1.91684e-20 1.6257e-36)
(2.62781e-08 -1.6768e-08 -2.40396e-22 -1.08919e-08 1.84313e-20 2.02561e-35)
(5.64512e-08 -2.46882e-08 -2.25234e-24 -2.47069e-08 1.86746e-20 0)
(9.12207e-08 -2.95967e-08 -3.66015e-23 -4.00607e-08 1.82851e-20 -1.62409e-36)
(1.27582e-07 -3.24073e-08 -3.2674e-22 -5.58518e-08 1.86076e-20 3.39464e-35)
(1.63109e-07 -3.3532e-08 7.38004e-23 -7.10953e-08 1.89748e-20 1.62206e-36)
(1.96984e-07 -3.36525e-08 -2.15988e-22 -8.54886e-08 1.87357e-20 3.08407e-35)
(2.28061e-07 -3.28596e-08 1.73598e-22 -9.87336e-08 1.87959e-20 -1.33848e-35)
(2.56848e-07 -3.22482e-08 5.23904e-22 -1.10655e-07 1.87038e-20 -4.03714e-35)
(8.82519e-09 -7.22072e-09 3.50433e-20 -2.79826e-09 4.43133e-21 4.37775e-35)
(2.77178e-08 -2.89115e-08 2.63701e-22 -1.24758e-09 2.86285e-22 0)
(6.23169e-08 -5.29835e-08 -2.46761e-22 -1.56662e-08 -2.45201e-22 0)
(1.00838e-07 -7.14229e-08 9.49237e-25 -3.51512e-08 -2.02578e-22 0)
(1.39469e-07 -8.28001e-08 0 -5.45727e-08 0 0)
(1.761e-07 -8.92011e-08 -3.72176e-22 -7.28551e-08 -5.55493e-23 0)
(2.09836e-07 -9.15454e-08 6.56162e-23 -8.92924e-08 3.17109e-22 0)
(2.40827e-07 -9.14423e-08 4.84835e-24 -1.03983e-07 1.70445e-23 0)
(2.68128e-07 -8.90301e-08 -2.06377e-22 -1.16886e-07 -5.75659e-22 0)
(2.93475e-07 -8.71051e-08 1.46822e-22 -1.27845e-07 2.31279e-23 0)
(1.08969e-08 -2.64304e-08 3.58864e-20 5.85873e-09 7.13081e-21 -1.95247e-36)
(4.71586e-08 -6.87812e-08 2.69623e-22 1.28886e-09 2.82783e-22 0)
(9.60445e-08 -9.86149e-08 2.80658e-22 -2.11424e-08 5.86684e-23 0)
(1.44071e-07 -1.18648e-07 1.2972e-23 -4.90187e-08 -1.95297e-22 0)
(1.88251e-07 -1.29732e-07 0 -7.4721e-08 0 0)
(2.27101e-07 -1.34984e-07 -4.16901e-22 -9.72515e-08 -1.08674e-22 0)
(2.60823e-07 -1.35692e-07 -5.68661e-22 -1.16164e-07 -1.59017e-22 0)
(2.90462e-07 -1.33635e-07 3.77463e-22 -1.32076e-07 2.28258e-22 0)
(3.15092e-07 -1.29058e-07 2.35896e-24 -1.45048e-07 7.2468e-24 0)
(3.3807e-07 -1.25208e-07 -3.39628e-22 -1.55585e-07 -2.12076e-22 0)
(1.39772e-08 -5.65498e-08 3.77797e-20 2.65633e-08 1.03767e-20 -3.45963e-35)
(7.37799e-08 -1.16598e-07 6.46825e-23 3.92944e-09 -2.37243e-22 0)
(1.35915e-07 -1.47986e-07 3.08375e-22 -2.85349e-08 6.01846e-23 0)
(1.92558e-07 -1.65637e-07 0 -6.46522e-08 0 0)
(2.41597e-07 -1.73012e-07 -5.22861e-22 -9.60956e-08 1.92746e-22 0)
(2.82586e-07 -1.74461e-07 1.08108e-23 -1.22683e-07 4.79182e-22 0)
(3.16474e-07 -1.71627e-07 -2.87148e-23 -1.44138e-07 -2.57135e-22 0)
(3.45095e-07 -1.66287e-07 -7.94753e-23 -1.61525e-07 -3.96496e-22 0)
(3.67404e-07 -1.58819e-07 1.71709e-22 -1.74948e-07 5.56327e-23 0)
(3.88419e-07 -1.52503e-07 3.20679e-22 -1.85493e-07 1.19852e-22 0)
(2.20283e-08 -9.9124e-08 3.78729e-20 5.53999e-08 1.45766e-20 7.46856e-35)
(1.11255e-07 -1.68655e-07 -5.38664e-22 3.32754e-09 3.60111e-22 0)
(1.86665e-07 -1.96907e-07 -3.28529e-22 -4.27349e-08 -9.62515e-23 0)
(2.5063e-07 -2.08726e-07 -8.56897e-23 -8.77817e-08 3.51953e-22 0)
(3.02878e-07 -2.09624e-07 -3.27795e-24 -1.24421e-07 2.16809e-23 0)
(3.44653e-07 -2.05163e-07 5.03657e-22 -1.54258e-07 -1.32814e-22 0)
(3.777e-07 -1.97264e-07 2.20494e-22 -1.77462e-07 5.79233e-23 0)
(4.0456e-07 -1.87548e-07 0 -1.95635e-07 0 0)
(4.24105e-07 -1.76609e-07 -2.38404e-22 -2.08974e-07 -3.06043e-22 0)
(4.42814e-07 -1.67303e-07 9.38231e-23 -2.19118e-07 2.29473e-23 0)
(3.9675e-08 -1.55121e-07 4.13752e-20 8.78772e-08 1.8711e-20 -8.65532e-35)
(1.6084e-07 -2.21425e-07 2.18126e-22 -6.43044e-10 -4.27631e-22 0)
(2.48779e-07 -2.40913e-07 -2.7277e-22 -6.2181e-08 -2.906e-22 0)
(3.18216e-07 -2.43914e-07 5.81784e-23 -1.15947e-07 -1.63799e-22 0)
(3.71656e-07 -2.36601e-07 5.74e-22 -1.56723e-07 1.91322e-22 0)
(4.12455e-07 -2.25178e-07 -5.5125e-22 -1.88645e-07 5.91065e-23 0)
(4.43274e-07 -2.11575e-07 -4.67724e-25 -2.12575e-07 1.44842e-23 0)
(4.67264e-07 -1.97105e-07 -4.3301e-22 -2.3068e-07 -2.94447e-22 0)
(4.83343e-07 -1.8259e-07 9.75672e-25 -2.43392e-07 5.67227e-24 0)
(4.99082e-07 -1.70136e-07 -4.71469e-22 -2.52643e-07 -2.14306e-22 0)
(7.20926e-08 -2.23953e-07 4.79511e-20 1.17095e-07 2.64037e-20 -7.22382e-35)
(2.22943e-07 -2.72801e-07 1.21035e-23 -9.35462e-09 -1.83912e-23 0)
(3.21106e-07 -2.7739e-07 -8.83834e-27 -8.63384e-08 1.51611e-26 0)
(3.93544e-07 -2.68596e-07 -5.88106e-22 -1.48016e-07 -4.07954e-22 0)
(4.45932e-07 -2.517e-07 -9.68268e-23 -1.91712e-07 2.62846e-22 0)
(4.83819e-07 -2.32751e-07 -5.37616e-22 -2.24501e-07 -2.17692e-22 0)
(5.10897e-07 -2.13286e-07 9.66786e-22 -2.48058e-07 4.28505e-22 0)
(5.30755e-07 -1.94132e-07 2.08319e-26 -2.6519e-07 1.13484e-23 0)
(5.42609e-07 -1.7628e-07 1.89134e-22 -2.76618e-07 4.45212e-25 0)
(5.54532e-07 -1.60778e-07 -2.57898e-22 -2.84454e-07 -1.22154e-22 0)
(1.24071e-07 -3.03075e-07 5.61104e-20 1.36567e-07 3.63079e-20 -1.21033e-34)
(2.97342e-07 -3.20776e-07 3.12286e-22 -2.33873e-08 -3.73554e-22 0)
(4.01355e-07 -3.046e-07 -1.20231e-22 -1.13118e-07 1.60502e-22 0)
(4.73465e-07 -2.81368e-07 7.32315e-23 -1.80719e-07 -1.1454e-22 0)
(5.2232e-07 -2.53952e-07 6.49265e-27 -2.25711e-07 -1.28412e-26 0)
(5.55355e-07 -2.27378e-07 6.21816e-22 -2.58062e-07 5.45015e-23 0)
(5.77286e-07 -2.02345e-07 4.43323e-23 -2.80272e-07 -1.9965e-22 0)
(5.9186e-07 -1.79028e-07 -1.34925e-23 -2.95592e-07 1.64054e-22 0)
(5.9895e-07 -1.58418e-07 3.28471e-24 -3.05432e-07 8.18221e-23 0)
(6.06191e-07 -1.40268e-07 1.98368e-22 -3.11291e-07 1.81741e-22 0)
(1.99396e-07 -3.87859e-07 6.21863e-20 1.40208e-07 4.90646e-20 1.44224e-34)
(3.83505e-07 -3.63378e-07 -9.71427e-23 -4.37234e-08 6.85256e-22 0)
(4.87068e-07 -3.2175e-07 -1.16443e-26 -1.41129e-07 1.22026e-26 0)
(5.54714e-07 -2.82083e-07 8.06082e-22 -2.11585e-07 1.89304e-22 0)
(5.97307e-07 -2.43644e-07 6.16991e-22 -2.55813e-07 3.05882e-22 0)
(6.23542e-07 -2.09717e-07 5.56637e-22 -2.86356e-07 2.76128e-22 0)
(6.38989e-07 -1.79672e-07 -5.85028e-23 -3.06157e-07 1.71339e-22 0)
(6.47218e-07 -1.53056e-07 -6.70661e-22 -3.19098e-07 -3.71918e-22 0)
(6.49157e-07 -1.30385e-07 4.09917e-22 -3.26859e-07 9.88944e-23 0)
(6.51156e-07 -1.1009e-07 1.84745e-22 -3.31266e-07 1.08924e-22 0)
(3.00116e-07 -4.72156e-07 6.68169e-20 1.23692e-07 6.18547e-20 1.92579e-35)
(4.80324e-07 -3.98531e-07 -2.02977e-22 -7.07867e-08 1.49599e-22 0)
(5.7561e-07 -3.28701e-07 -3.96547e-22 -1.68847e-07 -1.83681e-22 0)
(6.3396e-07 -2.71609e-07 1.71461e-21 -2.38095e-07 4.02013e-22 0)
(6.67297e-07 -2.22194e-07 1.03616e-23 -2.79111e-07 -1.17575e-23 0)
(6.84768e-07 -1.81434e-07 -5.47709e-22 -3.06282e-07 -3.08496e-22 0)
(6.92463e-07 -1.4714e-07 -5.84047e-22 -3.22762e-07 -9.43776e-23 0)
(6.93415e-07 -1.18191e-07 -2.21176e-22 -3.32371e-07 -1.31211e-22 0)
(6.90423e-07 -9.47178e-08 2.16062e-23 -3.38582e-07 -1.78404e-22 0)
(6.85461e-07 -7.43458e-08 1.13395e-22 -3.39078e-07 2.26552e-22 0)
(2.82765e-07 -3.01322e-08 8.41678e-22 -1.21738e-07 1.89472e-20 -1.20181e-35)
(3.05349e-07 -2.71919e-08 9.53659e-22 -1.30971e-07 1.86975e-20 -2.64138e-35)
(3.26095e-07 -2.46352e-08 5.43706e-22 -1.3954e-07 1.82444e-20 -1.54115e-35)
(3.4475e-07 -2.23143e-08 5.86144e-22 -1.47292e-07 1.847e-20 -6.76499e-37)
(3.61577e-07 -2.01615e-08 3.52619e-22 -1.54266e-07 1.84894e-20 4.0189e-35)
(3.76656e-07 -1.82341e-08 6.1333e-22 -1.60552e-07 1.8575e-20 0)
(3.90172e-07 -1.64669e-08 5.78384e-22 -1.66177e-07 1.85615e-20 0)
(4.02217e-07 -1.48723e-08 6.5512e-22 -1.71208e-07 1.86831e-20 5.22495e-37)
(4.12934e-07 -1.34093e-08 6.05622e-22 -1.75684e-07 1.8574e-20 -1.36608e-35)
(4.22403e-07 -1.20694e-08 7.06738e-22 -1.79651e-07 1.8798e-20 8.86478e-37)
(4.30721e-07 -1.08224e-08 7.32506e-22 -1.83142e-07 1.863e-20 -4.13934e-35)
(4.37944e-07 -9.65061e-09 2.98745e-22 -1.86181e-07 1.84695e-20 1.38674e-35)
(4.44125e-07 -8.53142e-09 6.63063e-22 -1.8879e-07 1.86152e-20 -4.18135e-35)
(4.49294e-07 -7.44785e-09 -5.11713e-23 -1.90983e-07 1.80695e-20 -8.39718e-37)
(4.53466e-07 -6.38707e-09 3.10245e-22 -1.92766e-07 1.85893e-20 1.4319e-35)
(4.56667e-07 -5.34694e-09 2.48046e-22 -1.94147e-07 1.84804e-20 -3.39004e-45)
(4.58884e-07 -4.3433e-09 8.17234e-23 -1.95122e-07 1.83304e-20 -1.52966e-37)
(4.60206e-07 -3.43254e-09 2.98589e-22 -1.95708e-07 1.86192e-20 1.09769e-37)
(4.60624e-07 -2.73507e-09 1.90284e-22 -1.95882e-07 1.8291e-20 -4.32625e-35)
(4.60471e-07 -2.57257e-09 3.06357e-20 -1.95614e-07 1.80416e-20 -7.4673e-35)
(3.14321e-07 -8.13213e-08 3.63858e-22 -1.37715e-07 4.37e-22 0)
(3.3104e-07 -7.34866e-08 2.33057e-22 -1.44749e-07 6.40663e-23 0)
(3.47028e-07 -6.65814e-08 1.60575e-23 -1.51225e-07 -9.92009e-23 0)
(3.6137e-07 -6.01376e-08 5.33769e-22 -1.57168e-07 4.72196e-22 0)
(3.74579e-07 -5.40975e-08 -1.01598e-22 -1.6247e-07 -2.42644e-23 0)
(3.86505e-07 -4.86378e-08 -4.3599e-22 -1.6734e-07 -4.32437e-22 0)
(3.97367e-07 -4.35838e-08 2.20192e-22 -1.71709e-07 8.15031e-23 0)
(4.07145e-07 -3.89929e-08 0 -1.7568e-07 0 0)
(4.15969e-07 -3.47555e-08 1.04871e-22 -1.79251e-07 3.72388e-23 0)
(4.23865e-07 -3.08565e-08 2.15696e-22 -1.82471e-07 8.31952e-23 0)
(4.3091e-07 -2.72213e-08 6.48178e-22 -1.85351e-07 3.3285e-22 0)
(4.37136e-07 -2.38076e-08 2.95323e-24 -1.87916e-07 3.29726e-24 0)
(4.42591e-07 -2.05598e-08 8.24485e-23 -1.90176e-07 -6.33362e-23 0)
(4.47302e-07 -1.74398e-08 1.24865e-22 -1.92137e-07 1.39581e-22 0)
(4.51289e-07 -1.44172e-08 1.28082e-22 -1.93795e-07 1.43589e-22 0)
(4.54576e-07 -1.14908e-08 -1.26869e-22 -1.95131e-07 -1.42984e-22 0)
(4.57142e-07 -8.69657e-09 -1.27577e-22 -1.96101e-07 -1.44621e-22 0)
(4.59018e-07 -6.15642e-09 -2.56189e-22 -1.96623e-07 -2.9216e-22 0)
(4.60055e-07 -4.05179e-09 -1.93623e-24 -1.96512e-07 -2.07621e-24 0)
(4.60305e-07 -2.93697e-09 3.10723e-20 -1.95467e-07 4.55912e-22 6.90246e-35)
(3.54105e-07 -1.16538e-07 9.98097e-23 -1.63705e-07 1.32938e-22 0)
(3.64603e-07 -1.05859e-07 1.34352e-22 -1.67867e-07 4.78383e-23 0)
(3.75482e-07 -9.62713e-08 -3.16087e-22 -1.7135e-07 -3.87767e-22 0)
(3.85015e-07 -8.73675e-08 -2.67923e-23 -1.74655e-07 7.02229e-23 0)
(3.94156e-07 -7.88828e-08 5.732e-22 -1.77471e-07 4.68684e-22 0)
(4.02442e-07 -7.11779e-08 -4.5614e-22 -1.80168e-07 -4.26473e-22 0)
(4.1021e-07 -6.39672e-08 -1.21801e-22 -1.82599e-07 -1.37543e-22 0)
(4.17297e-07 -5.73774e-08 2.32713e-22 -1.84895e-07 2.58204e-22 0)
(4.23847e-07 -5.1258e-08 -1.6107e-24 -1.87023e-07 -1.66452e-22 0)
(4.29814e-07 -4.5607e-08 -2.46155e-22 -1.89023e-07 -2.70178e-22 0)
(4.35269e-07 -4.03321e-08 2.35832e-22 -1.90893e-07 2.58006e-22 0)
(4.40209e-07 -3.53884e-08 3.64369e-22 -1.92645e-07 3.98967e-22 0)
(4.44666e-07 -3.07078e-08 2.78675e-24 -1.94274e-07 3.00221e-24 0)
(4.48651e-07 -2.62445e-08 -1.24732e-22 -1.9577e-07 -1.37443e-22 0)
(4.52169e-07 -2.19575e-08 1.23466e-22 -1.97106e-07 1.36903e-22 0)
(4.55222e-07 -1.78313e-08 1.81914e-29 -1.98223e-07 1.98201e-29 0)
(4.57743e-07 -1.38752e-08 -1.27182e-22 -1.99013e-07 -1.42867e-22 0)
(4.59703e-07 -1.01525e-08 1.84561e-23 -1.99297e-07 1.02636e-22 0)
(4.60777e-07 -6.77584e-09 -4.11988e-22 -1.98705e-07 -5.5441e-23 0)
(4.60945e-07 -3.8985e-09 3.11728e-20 -1.96822e-07 4.44206e-22 5.14636e-38)
(3.99732e-07 -1.41401e-07 0 -1.92029e-07 0 0)
(4.03793e-07 -1.2917e-07 1.43673e-22 -1.93559e-07 5.22403e-23 0)
(4.09498e-07 -1.1788e-07 1.13719e-22 -1.94214e-07 1.26774e-22 0)
(4.14012e-07 -1.0758e-07 1.24847e-22 -1.95055e-07 1.40901e-22 0)
(4.1888e-07 -9.75488e-08 0 -1.95442e-07 0 0)
(4.23248e-07 -8.84398e-08 1.54762e-23 -1.95982e-07 -7.04978e-23 0)
(4.27651e-07 -7.98088e-08 -3.70541e-22 -1.96435e-07 -2.24896e-22 0)
(4.3175e-07 -7.18829e-08 -2.38182e-22 -1.9698e-07 -2.52624e-22 0)
(4.35741e-07 -6.44713e-08 -1.32594e-22 -1.97564e-07 -6.09339e-23 0)
(4.39498e-07 -5.76008e-08 1.79973e-24 -1.98225e-07 1.6034e-22 0)
(4.43086e-07 -5.11718e-08 -1.15208e-22 -1.98951e-07 3.42666e-23 0)
(4.46463e-07 -4.51431e-08 2.43774e-22 -1.99743e-07 1.04408e-22 0)
(4.49644e-07 -3.94427e-08 2.30049e-22 -2.00581e-07 1.31721e-23 0)
(4.52613e-07 -3.402e-08 6.92828e-24 -2.01441e-07 8.58463e-23 0)
(4.55348e-07 -2.88219e-08 1.13161e-23 -2.02271e-07 9.10664e-23 0)
(4.57826e-07 -2.38085e-08 -1.25745e-22 -2.02988e-07 -1.3837e-22 0)
(4.59935e-07 -1.89556e-08 -2.68502e-29 -2.03446e-07 -2.95753e-29 0)
(4.61617e-07 -1.4231e-08 2.69331e-22 -2.03434e-07 3.84213e-22 0)
(4.62458e-07 -9.67341e-09 -1.4854e-23 -2.02535e-07 -1.0064e-22 0)
(4.62482e-07 -4.95328e-09 3.06925e-20 -2.00327e-07 7.04799e-23 -9.9822e-35)
(4.49211e-07 -1.54305e-07 1.34811e-23 -2.23635e-07 1.7616e-22 0)
(4.46601e-07 -1.42028e-07 -1.56276e-22 -2.22475e-07 -6.79515e-23 0)
(4.47111e-07 -1.30039e-07 -3.95198e-22 -2.20071e-07 -3.1627e-22 0)
(4.46476e-07 -1.19482e-07 2.59652e-22 -2.18349e-07 1.74219e-22 0)
(4.47002e-07 -1.08869e-07 6.75411e-22 -2.16163e-07 4.37671e-22 0)
(4.47306e-07 -9.92734e-08 -1.24813e-22 -2.14381e-07 -1.27369e-22 0)
(4.48198e-07 -9.00409e-08 0 -2.12685e-07 0 0)
(4.49131e-07 -8.15161e-08 1.21521e-22 -2.11288e-07 1.23507e-22 0)
(4.50374e-07 -7.34789e-08 -3.873e-22 -2.10137e-07 -1.65147e-22 0)
(4.51716e-07 -6.59879e-08 -2.52441e-22 -2.09268e-07 -1.83278e-22 0)
(4.53225e-07 -5.89485e-08 1.17346e-23 -2.08666e-07 -1.39685e-22 0)
(4.5482e-07 -5.23298e-08 -1.29053e-22 -2.0832e-07 -2.10587e-22 0)
(4.56498e-07 -4.60639e-08 -9.33751e-24 -2.08205e-07 2.19975e-22 0)
(4.58215e-07 -4.0094e-08 2.51057e-22 -2.08282e-07 3.43698e-22 0)
(4.5993e-07 -3.43565e-08 1.2043e-22 -2.08487e-07 5.13234e-23 0)
(4.61594e-07 -2.87815e-08 -5.79646e-24 -2.08724e-07 -8.52723e-23 0)
(4.63073e-07 -2.33038e-08 2.3335e-22 -2.08835e-07 9.60648e-23 0)
(4.64294e-07 -1.77876e-08 1.14746e-22 -2.08607e-07 4.61268e-23 0)
(4.64837e-07 -1.22284e-08 4.73477e-22 -2.07648e-07 3.68978e-22 0)
(4.64752e-07 -5.89167e-09 3.17381e-20 -2.05573e-07 1.10018e-21 9.89709e-35)
(5.00398e-07 -1.55909e-07 9.34156e-23 -2.54964e-07 1.24606e-22 0)
(4.91057e-07 -1.45174e-07 2.27705e-24 -2.51522e-07 4.77213e-24 0)
(4.86536e-07 -1.33448e-07 -2.85216e-22 -2.46241e-07 -1.94825e-22 0)
(4.80764e-07 -1.23675e-07 -6.85533e-22 -2.42165e-07 -5.047e-22 0)
(4.77031e-07 -1.13345e-07 2.67521e-22 -2.37603e-07 1.7969e-22 0)
(4.73276e-07 -1.04042e-07 2.53037e-22 -2.33618e-07 2.45446e-22 0)
(4.70649e-07 -9.49243e-08 -1.23969e-22 -2.29883e-07 -1.20439e-22 0)
(4.68375e-07 -8.64355e-08 -1.87059e-23 -2.26597e-07 5.32987e-23 0)
(4.6679e-07 -7.83575e-08 5.40308e-22 -2.23731e-07 3.18577e-22 0)
(4.65617e-07 -7.0768e-08 -3.63538e-22 -2.2131e-07 -3.6247e-22 0)
(4.64916e-07 -6.35936e-08 -1.29317e-22 -2.19327e-07 -1.30558e-22 0)
(4.64578e-07 -5.68111e-08 3.53901e-22 -2.17768e-07 5.07692e-22 0)
(4.64583e-07 -5.03642e-08 -5.07618e-22 -2.1661e-07 -1.52806e-22 0)
(4.64873e-07 -4.41941e-08 -3.66001e-22 -2.15815e-07 -3.82341e-22 0)
(4.65388e-07 -3.82312e-08 -2.85374e-25 -2.15319e-07 -7.65869e-23 0)
(4.66066e-07 -3.23782e-08 -4.90767e-22 -2.15033e-07 -3.70344e-22 0)
(4.66775e-07 -2.65405e-08 -3.58091e-24 -2.14814e-07 -3.30654e-24 0)
(4.67438e-07 -2.04934e-08 4.83475e-22 -2.14484e-07 4.53955e-22 0)
(4.67704e-07 -1.42062e-08 8.81598e-24 -2.13726e-07 9.29813e-23 0)
(4.67597e-07 -6.63408e-09 3.19225e-20 -2.12212e-07 8.75867e-22 -7.17549e-37)
(5.508e-07 -1.46196e-07 -9.77916e-23 -2.84392e-07 -1.21915e-22 0)
(5.3503e-07 -1.38722e-07 1.34388e-22 -2.79308e-07 1.20187e-22 0)
(5.2597e-07 -1.28265e-07 1.64879e-22 -2.71646e-07 8.55363e-23 0)
(5.15309e-07 -1.20266e-07 -1.31194e-22 -2.65507e-07 -1.20354e-22 0)
(5.07571e-07 -1.11146e-07 -3.08573e-22 -2.58907e-07 -1.53281e-22 0)
(4.99925e-07 -1.02879e-07 1.50627e-22 -2.52864e-07 7.45099e-23 0)
(4.93863e-07 -9.45784e-08 4.27313e-22 -2.47203e-07 2.71593e-22 0)
(4.88442e-07 -8.67009e-08 -6.8775e-22 -2.42072e-07 -4.55698e-22 0)
(4.84037e-07 -7.91026e-08 -4.24091e-22 -2.37514e-07 -2.75874e-22 0)
(4.80335e-07 -7.18679e-08 6.65752e-22 -2.3354e-07 4.45005e-22 0)
(4.77381e-07 -6.49681e-08 -2.70629e-22 -2.30164e-07 -1.28979e-22 0)
(4.75048e-07 -5.83941e-08 3.61621e-22 -2.27372e-07 3.62088e-22 0)
(4.73302e-07 -5.21084e-08 3.87071e-22 -2.25149e-07 2.49389e-22 0)
(4.7207e-07 -4.60542e-08 -2.28433e-22 -2.23459e-07 -3.08686e-22 0)
(4.71287e-07 -4.0163e-08 -1.44822e-22 -2.22251e-07 7.31721e-23 0)
(4.70883e-07 -3.43168e-08 7.0109e-24 -2.21455e-07 6.35051e-24 0)
(4.70752e-07 -2.8402e-08 -5.98544e-22 -2.20964e-07 -4.90473e-22 0)
(4.70809e-07 -2.21266e-08 1.19313e-22 -2.20644e-07 1.31163e-22 0)
(4.70834e-07 -1.54512e-08 2.35344e-22 -2.2029e-07 1.81746e-22 0)
(4.70774e-07 -7.12524e-09 3.20623e-20 -2.19655e-07 8.78089e-22 -2.94367e-37)
(5.97777e-07 -1.2588e-07 1.21157e-24 -3.09329e-07 3.86297e-24 0)
(5.76334e-07 -1.23345e-07 -1.38857e-22 -3.03431e-07 -1.19778e-22 0)
(5.63507e-07 -1.15245e-07 2.88227e-23 -2.94401e-07 -3.10087e-23 0)
(5.48493e-07 -1.09687e-07 0 -2.86569e-07 0 0)
(5.37158e-07 -1.02601e-07 0 -2.78572e-07 0 0)
(5.26076e-07 -9.59518e-08 -4.15234e-22 -2.70944e-07 -3.19551e-22 0)
(5.1685e-07 -8.91087e-08 3.70362e-22 -2.63784e-07 3.3782e-22 0)
(5.08529e-07 -8.24031e-08 7.79954e-22 -2.5713e-07 6.66697e-22 0)
(5.01432e-07 -7.58101e-08 -5.90772e-22 -2.51089e-07 -5.5479e-22 0)
(4.95285e-07 -6.93964e-08 -5.165e-22 -2.45687e-07 -4.31597e-22 0)
(4.90101e-07 -6.31831e-08 2.38708e-22 -2.40971e-07 2.32076e-22 0)
(4.85767e-07 -5.71787e-08 -2.22292e-23 -2.36952e-07 4.52595e-23 0)
(4.82235e-07 -5.13714e-08 4.05143e-22 -2.33634e-07 1.99549e-22 0)
(4.79429e-07 -4.57197e-08 6.32953e-22 -2.31008e-07 4.32534e-22 0)
(4.77293e-07 -4.01637e-08 8.66734e-24 -2.29051e-07 7.77349e-24 0)
(4.75752e-07 -3.45814e-08 2.83808e-22 -2.27724e-07 -7.39547e-23 0)
(4.74745e-07 -2.88535e-08 0 -2.26973e-07 0 0)
(4.74179e-07 -2.26512e-08 -2.41452e-22 -2.26726e-07 -1.06674e-22 0)
(4.74001e-07 -1.59358e-08 1.16124e-22 -2.26907e-07 4.9221e-23 0)
(4.74049e-07 -7.35234e-09 3.2545e-20 -2.27365e-07 9.72181e-22 -7.82627e-37)
(6.39309e-07 -9.69158e-08 -9.57383e-25 -3.27953e-07 -3.37269e-24 0)
(6.13011e-07 -1.00228e-07 1.71488e-22 -3.21841e-07 1.01679e-22 0)
(5.97566e-07 -9.61714e-08 -1.70615e-22 -3.13546e-07 -1.03019e-22 0)
(5.792e-07 -9.35359e-08 -1.67919e-22 -3.04689e-07 -1.00348e-22 0)
(5.64624e-07 -8.93379e-08 4.61708e-22 -2.95809e-07 3.11035e-22 0)
(5.50613e-07 -8.47065e-08 3.28428e-22 -2.86887e-07 1.94438e-22 0)
(5.38497e-07 -7.96543e-08 -4.36786e-22 -2.78413e-07 -2.88849e-22 0)
(5.27584e-07 -7.43725e-08 5.62979e-23 -2.70441e-07 -5.88462e-23 0)
(5.18036e-07 -6.9009e-08 9.95969e-23 -2.63115e-07 9.04054e-23 0)
(5.09653e-07 -6.36449e-08 -5.2007e-23 -2.56494e-07 6.9667e-23 0)
(5.02403e-07 -5.835e-08 -4.42501e-22 -2.50628e-07 -2.41241e-22 0)
(4.96185e-07 -5.31536e-08 3.98676e-24 -2.45549e-07 3.76423e-24 0)
(4.90946e-07 -4.80656e-08 -2.05029e-22 -2.4128e-07 -2.70596e-22 0)
(4.86614e-07 -4.30598e-08 -6.87638e-24 -2.37833e-07 -6.17082e-24 0)
(4.83146e-07 -3.8087e-08 2.58169e-22 -2.35216e-07 1.25452e-22 0)
(4.80474e-07 -3.30303e-08 -5.17943e-24 -2.33429e-07 -4.45002e-24 0)
(4.78592e-07 -2.77718e-08 3.18716e-22 -2.32483e-07 4.15868e-22 0)
(4.774e-07 -2.19774e-08 -1.18761e-22 -2.32373e-07 -5.31771e-23 0)
(4.7704e-07 -1.56064e-08 -5.60653e-22 -2.33164e-07 -5.44851e-22 0)
(4.77213e-07 -7.29574e-09 3.21163e-20 -2.34816e-07 4.85441e-22 -5.91751e-35)
(6.72344e-07 -5.97179e-08 -2.18065e-23 -3.39972e-07 -1.10017e-23 0)
(6.45109e-07 -6.69171e-08 -1.83702e-22 -3.32471e-07 -1.07693e-22 0)
(6.27477e-07 -6.86321e-08 1.49741e-22 -3.26791e-07 1.15734e-22 0)
(6.0784e-07 -6.93341e-08 -3.92931e-22 -3.18756e-07 -3.5035e-22 0)
(5.90642e-07 -6.90246e-08 -4.0369e-22 -3.10382e-07 -3.29554e-22 0)
(5.74375e-07 -6.75396e-08 2.39782e-22 -3.01401e-07 2.41361e-22 0)
(5.59661e-07 -6.52353e-08 2.09038e-22 -2.92348e-07 2.41786e-22 0)
(5.46304e-07 -6.22463e-08 3.62332e-22 -2.83501e-07 3.19859e-22 0)
(5.34374e-07 -5.87829e-08 -4.23902e-22 -2.75094e-07 -3.11911e-22 0)
(5.23773e-07 -5.50014e-08 1.1808e-24 -2.67304e-07 8.42108e-24 0)
(5.14463e-07 -5.10292e-08 -5.51569e-24 -2.60249e-07 -2.51504e-23 0)
(5.06362e-07 -4.69538e-08 -3.32719e-22 -2.54022e-07 -3.1822e-22 0)
(4.99413e-07 -4.28317e-08 0 -2.48686e-07 0 0)
(4.93547e-07 -3.86746e-08 -2.98259e-22 -2.44296e-07 -9.81963e-23 0)
(4.88733e-07 -3.44631e-08 -1.47964e-24 -2.40901e-07 -5.827e-24 0)
(4.84908e-07 -3.01074e-08 -3.86034e-22 -2.38549e-07 -1.87713e-22 0)
(4.82124e-07 -2.55075e-08 1.06627e-22 -2.37317e-07 1.10129e-22 0)
(4.80279e-07 -2.03531e-08 2.4332e-22 -2.37283e-07 1.11434e-22 0)
(4.79723e-07 -1.46105e-08 3.00134e-24 -2.38656e-07 -2.10828e-25 0)
(4.80034e-07 -6.99549e-09 3.24505e-20 -2.41521e-07 4.51584e-22 -2.50859e-37)
(6.88455e-07 -2.9074e-08 1.89972e-22 -3.4086e-07 1.64036e-22 0)
(6.63667e-07 -3.29276e-08 -1.74817e-22 -3.34569e-07 -1.0927e-22 0)
(6.44611e-07 -4.00265e-08 -1.01754e-22 -3.30634e-07 -8.3015e-23 0)
(6.25142e-07 -4.33964e-08 1.67988e-22 -3.24147e-07 1.02159e-22 0)
(6.07094e-07 -4.57734e-08 -3.31e-22 -3.16515e-07 -1.51567e-22 0)
(5.89958e-07 -4.68478e-08 -2.23364e-22 -3.08125e-07 -1.06049e-22 0)
(5.74144e-07 -4.68964e-08 -2.7995e-22 -2.99329e-07 -2.00577e-22 0)
(5.59554e-07 -4.60974e-08 3.28069e-23 -2.90504e-07 -2.2125e-23 0)
(5.46314e-07 -4.46128e-08 5.65e-22 -2.81918e-07 3.57171e-22 0)
(5.3437e-07 -4.26132e-08 -1.95881e-23 -2.73799e-07 -2.05296e-23 0)
(5.23727e-07 -4.02299e-08 3.01636e-22 -2.66314e-07 1.70055e-22 0)
(5.14332e-07 -3.75734e-08 -1.50265e-23 -2.59598e-07 -1.6585e-23 0)
(5.06156e-07 -3.47203e-08 1.11052e-36 -2.53761e-07 1.10294e-36 0)
(4.99151e-07 -3.17104e-08 -1.32476e-22 -2.48893e-07 -6.59395e-23 0)
(4.93313e-07 -2.85499e-08 1.29481e-22 -2.45094e-07 6.30236e-23 0)
(4.88593e-07 -2.51843e-08 -5.89928e-24 -2.42454e-07 -8.26252e-24 0)
(4.85103e-07 -2.15431e-08 1.96189e-23 -2.41122e-07 -5.3102e-23 0)
(4.82738e-07 -1.7386e-08 1.22209e-24 -2.41238e-07 3.82102e-24 0)
(4.82008e-07 -1.2691e-08 -1.1656e-24 -2.43141e-07 1.50482e-24 0)
(4.82391e-07 -6.3638e-09 3.2854e-20 -2.4703e-07 1.7287e-22 2.92606e-37)
(6.74827e-07 1.01203e-09 1.76005e-22 -3.28309e-07 1.37241e-22 0)
(6.58352e-07 -3.42736e-09 0 -3.30253e-07 0 0)
(6.41124e-07 -1.20805e-08 -1.37635e-22 -3.27265e-07 -1.18983e-22 0)
(6.23885e-07 -1.77581e-08 1.79638e-36 -3.22377e-07 1.43197e-36 0)
(6.07425e-07 -2.22296e-08 4.10987e-37 -3.15869e-07 2.94863e-37 0)
(5.91518e-07 -2.54002e-08 1.95022e-36 -3.08415e-07 1.43251e-36 0)
(5.76579e-07 -2.74514e-08 2.9958e-36 -3.00369e-07 2.38287e-36 0)
(5.62555e-07 -2.8566e-08 -1.20768e-22 -2.92117e-07 -1.10812e-22 0)
(5.49619e-07 -2.88895e-08 0 -2.83943e-07 0 0)
(5.37766e-07 -2.85822e-08 1.15447e-22 -2.76096e-07 1.09476e-22 0)
(5.27052e-07 -2.77706e-08 -1.67324e-37 -2.6877e-07 -2.70027e-37 0)
(5.17463e-07 -2.65697e-08 -1.11088e-22 -2.62126e-07 -1.09037e-22 0)
(5.09014e-07 -2.50608e-08 1.09274e-22 -2.56302e-07 1.09101e-22 0)
(5.01687e-07 -2.32994e-08 1.56187e-36 -2.5142e-07 1.1241e-36 0)
(4.95516e-07 -2.13065e-08 -1.06376e-22 -2.47608e-07 -1.09734e-22 0)
(4.90483e-07 -1.90647e-08 -9.41053e-37 -2.44995e-07 -8.54388e-37 0)
(4.86746e-07 -1.6526e-08 1.04494e-22 -2.43776e-07 1.11058e-22 0)
(4.84217e-07 -1.35394e-08 1.03951e-22 -2.44134e-07 1.12044e-22 0)
(4.83529e-07 -1.01145e-08 -1.11818e-36 -2.46509e-07 -9.60263e-37 0)
(4.84089e-07 -5.48311e-09 3.30053e-20 -2.51132e-07 -9.75251e-37 -1.94701e-49)