/*--------------------------------*- C++ -*----------------------------------*\
  =========                 |
  \\      /  F ield         | OpenFOAM: The Open Source CFD Toolbox
   \\    /   O peration     | Website:  https://openfoam.org
    \\  /    A nd           | Version:  9
     \\/     M anipulation  |
\*---------------------------------------------------------------------------*/
FoamFile
{
    format      ascii;
    class       volScalarField;
    location    "1";
    object      epsilonEq;
}
// * * * * * * * * * * * * * * * * * * * * * * * * * * * * * * * * * * * * * //

dimensions      [0 0 0 0 0 0 0];

internalField   nonuniform List<scalar> 
1000
(
6.84998e-07
6.51616e-07
6.42233e-07
6.47205e-07
6.47822e-07
6.46341e-07
6.41728e-07
6.3478e-07
6.27044e-07
6.17438e-07
7.98365e-07
7.25987e-07
6.90927e-07
6.7999e-07
6.70079e-07
6.61524e-07
6.51612e-07
6.41126e-07
6.29292e-07
6.18848e-07
9.09209e-07
7.97638e-07
7.34947e-07
7.05868e-07
6.83706e-07
6.66777e-07
6.5068e-07
6.35754e-07
6.20098e-07
6.07567e-07
1.01533e-06
8.6566e-07
7.74408e-07
7.25459e-07
6.89543e-07
6.63192e-07
6.40295e-07
6.20652e-07
6.01314e-07
5.86593e-07
1.11336e-06
9.28376e-07
8.08525e-07
7.38596e-07
6.87734e-07
6.51076e-07
6.20914e-07
5.96299e-07
5.7352e-07
5.5649e-07
1.20368e-06
9.85242e-07
8.36785e-07
7.45238e-07
6.78633e-07
6.31185e-07
5.93576e-07
5.63976e-07
5.38e-07
5.18618e-07
1.28113e-06
1.03238e-06
8.55084e-07
7.42352e-07
6.60645e-07
6.03139e-07
5.58871e-07
5.24926e-07
4.96426e-07
4.74922e-07
1.35358e-06
1.06773e-06
8.59866e-07
7.28243e-07
6.33818e-07
5.68597e-07
5.19678e-07
4.8294e-07
4.53166e-07
4.30234e-07
1.40309e-06
1.07018e-06
8.3228e-07
6.89711e-07
5.92229e-07
5.26188e-07
4.77639e-07
4.41265e-07
4.12244e-07
3.89014e-07
1.44435e-06
1.00774e-06
7.68263e-07
6.35002e-07
5.50695e-07
4.92264e-07
4.49175e-07
4.1559e-07
3.88398e-07
3.65282e-07
3.09988e-09
9.64398e-09
2.93552e-08
5.58587e-08
8.48747e-08
1.14839e-07
1.43958e-07
1.71721e-07
1.97221e-07
2.20864e-07
1.08899e-08
3.83669e-08
7.75366e-08
1.15954e-07
1.49976e-07
1.80147e-07
2.06433e-07
2.29915e-07
2.50044e-07
2.68951e-07
3.11621e-08
8.5264e-08
1.34787e-07
1.79448e-07
2.1662e-07
2.47459e-07
2.72485e-07
2.93447e-07
3.09834e-07
3.25323e-07
6.70765e-08
1.42913e-07
1.98735e-07
2.45868e-07
2.83329e-07
3.13322e-07
3.36594e-07
3.552e-07
3.68504e-07
3.81283e-07
1.18904e-07
2.08008e-07
2.67469e-07
3.14975e-07
3.50699e-07
3.78313e-07
3.98841e-07
4.1452e-07
4.24649e-07
4.34663e-07
1.86187e-07
2.77337e-07
3.36877e-07
3.83019e-07
4.15734e-07
4.40015e-07
4.57142e-07
4.69462e-07
4.76337e-07
4.83433e-07
2.67442e-07
3.49691e-07
4.05036e-07
4.47942e-07
4.76635e-07
4.96933e-07
5.1023e-07
5.18905e-07
5.22499e-07
5.26501e-07
3.60656e-07
4.24057e-07
4.70284e-07
5.07673e-07
5.31301e-07
5.47086e-07
5.56353e-07
5.61258e-07
5.61845e-07
5.62572e-07
4.63208e-07
4.99727e-07
5.31857e-07
5.61172e-07
5.78543e-07
5.89276e-07
5.94238e-07
5.9536e-07
5.93081e-07
5.90971e-07
5.7234e-07
5.75887e-07
5.89221e-07
6.07674e-07
6.17359e-07
6.22255e-07
6.22586e-07
6.1956e-07
6.15359e-07
6.08765e-07
2.42141e-07
2.60428e-07
2.77395e-07
2.92742e-07
3.06619e-07
3.19108e-07
3.3032e-07
3.40337e-07
3.49262e-07
3.57163e-07
3.6411e-07
3.7015e-07
3.75324e-07
3.79657e-07
3.8316e-07
3.85852e-07
3.87724e-07
3.8884e-07
3.89184e-07
3.88954e-07
2.83541e-07
2.94134e-07
3.04832e-07
3.14774e-07
3.24101e-07
3.32775e-07
3.40793e-07
3.4815e-07
3.5487e-07
3.6096e-07
3.66443e-07
3.71332e-07
3.75643e-07
3.79387e-07
3.82564e-07
3.85177e-07
3.87187e-07
3.88573e-07
3.89143e-07
3.88781e-07
3.33933e-07
3.37269e-07
3.41559e-07
3.45694e-07
3.49904e-07
3.54104e-07
3.58264e-07
3.62311e-07
3.66227e-07
3.69958e-07
3.73494e-07
3.76803e-07
3.79875e-07
3.82688e-07
3.85215e-07
3.87418e-07
3.89193e-07
3.90426e-07
3.90723e-07
3.8986e-07
3.84941e-07
3.82231e-07
3.81008e-07
3.80016e-07
3.79516e-07
3.79451e-07
3.79816e-07
3.80501e-07
3.81493e-07
3.82695e-07
3.8408e-07
3.85583e-07
3.87166e-07
3.88778e-07
3.90357e-07
3.91829e-07
3.9304e-07
3.93837e-07
3.93747e-07
3.92565e-07
4.33944e-07
4.26261e-07
4.20299e-07
4.14907e-07
4.10268e-07
4.0634e-07
4.03189e-07
4.00662e-07
3.98794e-07
3.97455e-07
3.96626e-07
3.96217e-07
3.96176e-07
3.9643e-07
3.96895e-07
3.97473e-07
3.97986e-07
3.98269e-07
3.97863e-07
3.96596e-07
4.78847e-07
4.67209e-07
4.57326e-07
4.4825e-07
4.40152e-07
4.32875e-07
4.26658e-07
4.2125e-07
4.16762e-07
4.13036e-07
4.10069e-07
4.07762e-07
4.06066e-07
4.04897e-07
4.04167e-07
4.03772e-07
4.03544e-07
4.0333e-07
4.02764e-07
4.01687e-07
5.18555e-07
5.03958e-07
4.91107e-07
4.79002e-07
4.68157e-07
4.5803e-07
4.49162e-07
4.41193e-07
4.34328e-07
4.284e-07
4.23428e-07
4.19318e-07
4.16022e-07
4.1346e-07
4.1155e-07
4.10195e-07
4.09266e-07
4.08627e-07
4.08057e-07
4.07397e-07
5.51953e-07
5.35309e-07
5.20663e-07
5.0607e-07
4.93225e-07
4.8089e-07
4.69928e-07
4.59877e-07
4.50986e-07
4.43121e-07
4.36319e-07
4.30518e-07
4.25686e-07
4.21764e-07
4.18694e-07
4.16401e-07
4.1481e-07
4.13816e-07
4.13376e-07
4.13313e-07
5.7893e-07
5.60474e-07
5.45897e-07
5.29583e-07
5.15221e-07
5.01096e-07
4.88286e-07
4.76449e-07
4.658e-07
4.5627e-07
4.47885e-07
4.40609e-07
4.34424e-07
4.2929e-07
4.25181e-07
4.22045e-07
4.19882e-07
4.18618e-07
4.18405e-07
4.1904e-07
5.98852e-07
5.79124e-07
5.65569e-07
5.49444e-07
5.34504e-07
5.19637e-07
5.05556e-07
4.92306e-07
4.80093e-07
4.68981e-07
4.59034e-07
4.50269e-07
4.42699e-07
4.36312e-07
4.31119e-07
4.27101e-07
4.24333e-07
4.22782e-07
4.22805e-07
4.24186e-07
6.06395e-07
5.8791e-07
5.74564e-07
5.59429e-07
5.44543e-07
5.2972e-07
5.15404e-07
5.0174e-07
4.88955e-07
4.77155e-07
4.6645e-07
4.5689e-07
4.48528e-07
4.41388e-07
4.35523e-07
4.30953e-07
4.27825e-07
4.26142e-07
4.26421e-07
4.2844e-07
5.90568e-07
5.81168e-07
5.68974e-07
5.55871e-07
5.42458e-07
5.28891e-07
5.15585e-07
5.02695e-07
4.90473e-07
4.79049e-07
4.68563e-07
4.59099e-07
4.50743e-07
4.43554e-07
4.37621e-07
4.33001e-07
4.29897e-07
4.28347e-07
4.28987e-07
4.31571e-07
5.77761e-07
5.70693e-07
5.61417e-07
5.50232e-07
5.38591e-07
5.26361e-07
5.14161e-07
5.02118e-07
4.90544e-07
4.79586e-07
4.6942e-07
4.60155e-07
4.51909e-07
4.4477e-07
4.38859e-07
4.34268e-07
4.31241e-07
4.29828e-07
4.30739e-07
4.33715e-07
5.62616e-07
5.58449e-07
5.51553e-07
5.42231e-07
5.32276e-07
5.21405e-07
5.10379e-07
4.99296e-07
4.88517e-07
4.78197e-07
4.68535e-07
4.5966e-07
4.5171e-07
4.44798e-07
4.39058e-07
4.34622e-07
4.31724e-07
4.3049e-07
4.31677e-07
4.34878e-07
5.4544e-07
5.4356e-07
5.38901e-07
5.31528e-07
5.23366e-07
5.14016e-07
5.04325e-07
4.94374e-07
4.8456e-07
4.75048e-07
4.66059e-07
4.57741e-07
4.50243e-07
4.43699e-07
4.38243e-07
4.34063e-07
4.31283e-07
4.30393e-07
4.31009e-07
4.34986e-07
5.27218e-07
5.2737e-07
5.24717e-07
5.1917e-07
5.12693e-07
5.04843e-07
4.965e-07
4.8774e-07
4.78978e-07
4.70382e-07
4.62192e-07
4.54561e-07
4.47654e-07
4.41602e-07
4.36573e-07
4.32698e-07
4.30256e-07
4.29382e-07
4.30661e-07
4.33801e-07
5.08272e-07
5.10091e-07
5.09184e-07
5.05339e-07
5.00457e-07
4.94092e-07
4.87114e-07
4.79594e-07
4.71955e-07
4.64368e-07
4.57077e-07
4.50241e-07
4.4403e-07
4.38576e-07
4.34047e-07
4.30564e-07
4.28396e-07
4.27593e-07
4.28797e-07
4.31774e-07
4.8898e-07
4.92176e-07
4.92785e-07
4.90472e-07
4.87054e-07
4.82105e-07
4.76457e-07
4.70186e-07
4.63703e-07
4.57181e-07
4.50863e-07
4.44906e-07
4.39479e-07
4.3471e-07
4.30754e-07
4.27719e-07
4.25838e-07
4.2517e-07
4.26249e-07
4.28851e-07
4.6951e-07
4.73792e-07
4.75683e-07
4.74735e-07
4.72657e-07
4.69051e-07
4.64697e-07
4.59672e-07
4.54369e-07
4.48957e-07
4.43671e-07
4.38663e-07
4.34094e-07
4.30083e-07
4.26769e-07
4.24238e-07
4.22683e-07
4.22131e-07
4.23033e-07
4.2518e-07
4.49945e-07
4.55073e-07
4.58041e-07
4.58301e-07
4.57446e-07
4.55106e-07
4.52004e-07
4.48213e-07
4.44102e-07
4.39832e-07
4.35623e-07
4.31621e-07
4.27971e-07
4.24782e-07
4.22169e-07
4.20199e-07
4.19008e-07
4.18603e-07
4.19299e-07
4.2091e-07
4.30251e-07
4.36023e-07
4.39894e-07
4.41229e-07
4.41501e-07
4.40369e-07
4.38488e-07
4.35928e-07
4.33025e-07
4.29926e-07
4.26837e-07
4.23888e-07
4.21212e-07
4.18902e-07
4.17048e-07
4.15691e-07
4.14912e-07
4.14684e-07
4.15179e-07
4.1623e-07
4.10333e-07
4.16599e-07
4.21244e-07
4.23559e-07
4.24895e-07
4.24935e-07
4.24264e-07
4.2294e-07
4.21268e-07
4.19375e-07
4.17445e-07
4.15595e-07
4.1394e-07
4.12556e-07
4.1151e-07
4.10819e-07
4.10505e-07
4.10506e-07
4.10837e-07
4.11342e-07
3.89994e-07
3.96669e-07
4.02013e-07
4.05266e-07
4.07648e-07
4.08864e-07
4.09422e-07
4.0937e-07
4.08969e-07
4.08327e-07
4.07604e-07
4.06897e-07
4.06304e-07
4.05888e-07
4.0569e-07
4.0571e-07
4.05916e-07
4.06206e-07
4.06442e-07
4.06463e-07
3.69049e-07
3.76116e-07
3.82149e-07
3.86357e-07
3.8982e-07
3.92258e-07
3.94105e-07
3.95386e-07
3.96316e-07
3.96983e-07
3.97516e-07
3.97996e-07
3.98501e-07
3.99079e-07
3.99758e-07
4.0052e-07
4.0129e-07
4.01936e-07
4.02172e-07
4.01811e-07
3.4717e-07
3.54713e-07
3.61514e-07
3.66781e-07
3.71434e-07
3.7521e-07
3.78454e-07
3.8117e-07
3.83525e-07
3.85581e-07
3.87435e-07
3.89148e-07
3.90782e-07
3.92373e-07
3.93937e-07
3.95448e-07
3.96808e-07
3.97861e-07
3.98209e-07
3.97613e-07
3.24243e-07
3.32447e-07
3.40186e-07
3.46692e-07
3.52708e-07
3.57984e-07
3.62773e-07
3.67053e-07
3.70942e-07
3.74471e-07
3.77708e-07
3.80694e-07
3.83472e-07
3.86072e-07
3.88501e-07
3.90737e-07
3.92677e-07
3.94159e-07
3.94726e-07
3.94065e-07
2.99822e-07
3.09045e-07
3.18046e-07
3.2611e-07
3.33774e-07
3.408e-07
3.4735e-07
3.53376e-07
3.58944e-07
3.64057e-07
3.68755e-07
3.73058e-07
3.76995e-07
3.80583e-07
3.8383e-07
3.86721e-07
3.89175e-07
3.91048e-07
3.91905e-07
3.9137e-07
2.74419e-07
2.85136e-07
2.95801e-07
3.05781e-07
3.15397e-07
3.24421e-07
3.32926e-07
3.40842e-07
3.4819e-07
3.54952e-07
3.61142e-07
3.66764e-07
3.71832e-07
3.76354e-07
3.80336e-07
3.83772e-07
3.86615e-07
3.88765e-07
3.8989e-07
3.89614e-07
2.47532e-07
2.60535e-07
2.73521e-07
2.85963e-07
2.97967e-07
3.09327e-07
3.20044e-07
3.30035e-07
3.39293e-07
3.47789e-07
3.5552e-07
3.6248e-07
3.68669e-07
3.74083e-07
3.78714e-07
3.82556e-07
3.85574e-07
3.87744e-07
3.88911e-07
3.88908e-07
2.22411e-07
2.3833e-07
2.54065e-07
2.69206e-07
2.83741e-07
2.97466e-07
3.10363e-07
3.22342e-07
3.33393e-07
3.43487e-07
3.52621e-07
3.60784e-07
3.67971e-07
3.74165e-07
3.79333e-07
3.83451e-07
3.86457e-07
3.88375e-07
3.89149e-07
3.89043e-07
3.45773e-07
3.68586e-07
4.07764e-07
4.51163e-07
4.94573e-07
5.32992e-07
5.64296e-07
5.86955e-07
6.01233e-07
6.04607e-07
3.27698e-07
3.48989e-07
3.85123e-07
4.26079e-07
4.68451e-07
5.07524e-07
5.4115e-07
5.67147e-07
5.85379e-07
5.92891e-07
3.11513e-07
3.31841e-07
3.65447e-07
4.03761e-07
4.4406e-07
4.82022e-07
5.15851e-07
5.43721e-07
5.65614e-07
5.7935e-07
2.96715e-07
3.16406e-07
3.47927e-07
3.83907e-07
4.22283e-07
4.59061e-07
4.92499e-07
5.20874e-07
5.43728e-07
5.61234e-07
2.8284e-07
3.02104e-07
3.31858e-07
3.65648e-07
4.01993e-07
4.37332e-07
4.70082e-07
4.98884e-07
5.22379e-07
5.42002e-07
2.69823e-07
2.88825e-07
3.17127e-07
3.48982e-07
3.83372e-07
4.17105e-07
4.48666e-07
4.77158e-07
5.00594e-07
5.21566e-07
2.57425e-07
2.76254e-07
3.0333e-07
3.33463e-07
3.66026e-07
3.9819e-07
4.28499e-07
4.56447e-07
4.79485e-07
5.00849e-07
2.45605e-07
2.643e-07
2.90319e-07
3.18902e-07
3.49731e-07
3.80294e-07
4.0921e-07
4.36327e-07
4.58804e-07
4.80121e-07
2.34283e-07
2.52839e-07
2.77911e-07
3.05086e-07
3.34297e-07
3.63305e-07
3.90821e-07
4.16933e-07
4.38699e-07
4.5959e-07
2.23459e-07
2.41823e-07
2.65992e-07
2.91829e-07
3.19482e-07
3.46939e-07
3.73037e-07
3.98018e-07
4.1901e-07
4.39284e-07
2.13162e-07
2.31235e-07
2.54476e-07
2.78986e-07
3.05105e-07
3.31007e-07
3.55678e-07
3.79437e-07
3.99588e-07
4.19119e-07
2.03475e-07
2.21099e-07
2.43305e-07
2.66415e-07
2.90953e-07
3.15252e-07
3.38467e-07
3.60939e-07
3.80212e-07
3.98937e-07
1.94565e-07
2.11493e-07
2.32429e-07
2.53948e-07
2.76773e-07
2.99379e-07
3.21087e-07
3.42219e-07
3.60581e-07
3.78479e-07
1.86682e-07
2.02536e-07
2.21822e-07
2.41447e-07
2.62336e-07
2.83104e-07
3.03228e-07
3.2297e-07
3.40405e-07
3.57488e-07
1.803e-07
1.94418e-07
2.11341e-07
2.28531e-07
2.47131e-07
2.65871e-07
2.84329e-07
3.0267e-07
3.19207e-07
3.35542e-07
1.75986e-07
1.87222e-07
2.00821e-07
2.14958e-07
2.30859e-07
2.47362e-07
2.64077e-07
2.81028e-07
2.96737e-07
3.12436e-07
1.74992e-07
1.81123e-07
1.89445e-07
1.9946e-07
2.12167e-07
2.26303e-07
2.41344e-07
2.57081e-07
2.72204e-07
2.87539e-07
1.77557e-07
1.74897e-07
1.7627e-07
1.81598e-07
1.90892e-07
2.02691e-07
2.16257e-07
2.31064e-07
2.45941e-07
2.61264e-07
1.86798e-07
1.6696e-07
1.57243e-07
1.56868e-07
1.6318e-07
1.73416e-07
1.86387e-07
2.01143e-07
2.16619e-07
2.32712e-07
1.90492e-07
1.46669e-07
1.30885e-07
1.26247e-07
1.3125e-07
1.41147e-07
1.54689e-07
1.70487e-07
1.87515e-07
2.05239e-07
)
;

boundaryField
{
    left
    {
        type            calculated;
        value           nonuniform List<scalar> 
30
(
3.42052e-07
3.24169e-07
3.08166e-07
2.93529e-07
2.79835e-07
2.67017e-07
2.5486e-07
2.43331e-07
2.32368e-07
2.21989e-07
2.12237e-07
2.03216e-07
1.95108e-07
1.88188e-07
1.82957e-07
1.80155e-07
1.81289e-07
1.88199e-07
2.07175e-07
2.36488e-07
1.53593e-06
9.86326e-07
7.43765e-07
6.19103e-07
5.41335e-07
4.86091e-07
4.44632e-07
4.11691e-07
3.84794e-07
3.61573e-07
)
;
    }
    right
    {
        type            calculated;
        value           nonuniform List<scalar> 
30
(
3.8889e-07
3.88779e-07
3.89812e-07
3.92485e-07
3.96493e-07
4.0158e-07
4.073e-07
4.13242e-07
4.19002e-07
4.24199e-07
4.28479e-07
4.31669e-07
4.33839e-07
4.35021e-07
4.35029e-07
4.33943e-07
4.31934e-07
4.28997e-07
4.25306e-07
4.21012e-07
4.16305e-07
4.11391e-07
4.06488e-07
4.01819e-07
3.9761e-07
3.94058e-07
3.91369e-07
3.89621e-07
3.88924e-07
3.88967e-07
)
;
    }
    down
    {
        type            calculated;
        value           nonuniform List<scalar> 
30
(
3.60433e-09
6.16563e-09
2.1827e-08
4.72607e-08
7.66491e-08
1.07402e-07
1.37455e-07
1.66114e-07
1.92406e-07
2.16763e-07
2.3869e-07
2.57799e-07
2.75353e-07
2.91137e-07
3.05375e-07
3.18133e-07
3.29569e-07
3.39761e-07
3.48828e-07
3.56841e-07
3.63879e-07
3.69991e-07
3.7522e-07
3.79594e-07
3.83124e-07
3.85832e-07
3.87709e-07
3.88827e-07
3.89181e-07
3.89051e-07
)
;
    }
    up
    {
        type            calculated;
        value           nonuniform List<scalar> 
30
(
1.86978e-07
1.44552e-07
1.29854e-07
1.25301e-07
1.30284e-07
1.40101e-07
1.53587e-07
1.69377e-07
1.86393e-07
2.04192e-07
2.21408e-07
2.37435e-07
2.53304e-07
2.68553e-07
2.83201e-07
2.97024e-07
3.10013e-07
3.22073e-07
3.33196e-07
3.43351e-07
3.52538e-07
3.60746e-07
3.67967e-07
3.74187e-07
3.79371e-07
3.83493e-07
3.86489e-07
3.8839e-07
3.89142e-07
3.89099e-07
)
;
    }
    hole
    {
        type            calculated;
        value           nonuniform List<scalar> 
20
(
6.89089e-07
8.08523e-07
9.25308e-07
1.0371e-06
1.14031e-06
1.23546e-06
1.31726e-06
1.39579e-06
1.4555e-06
1.52451e-06
5.09193e-09
5.08544e-09
1.23973e-08
4.50087e-08
9.63071e-08
1.65428e-07
2.50038e-07
3.47751e-07
4.55551e-07
5.70427e-07
)
;
    }
    frontAndBack
    {
        type            empty;
    }
}


// ************************************************************************* //
