/*--------------------------------*- C++ -*----------------------------------*\
  =========                 |
  \\      /  F ield         | OpenFOAM: The Open Source CFD Toolbox
   \\    /   O peration     | Website:  https://openfoam.org
    \\  /    A nd           | Version:  9
     \\/     M anipulation  |
\*---------------------------------------------------------------------------*/
FoamFile
{
    format      ascii;
    class       pointVectorField;
    location    "1";
    object      pointD;
}
// * * * * * * * * * * * * * * * * * * * * * * * * * * * * * * * * * * * * * //

dimensions      [0 1 0 0 0 0 0];

internalField   nonuniform List<vector> 
2142
(
(7.43126e-07 2.15562e-07 -9.89377e-21)
(6.89042e-07 2.4975e-07 0)
(6.51291e-07 2.74059e-07 0)
(6.2386e-07 2.93758e-07 0)
(6.04161e-07 3.09857e-07 0)
(5.90232e-07 3.23684e-07 0)
(5.80669e-07 3.35814e-07 0)
(5.74482e-07 3.46755e-07 0)
(5.70907e-07 3.56808e-07 0)
(5.69386e-07 3.66181e-07 0)
(5.69918e-07 3.76335e-07 0)
(6.78999e-07 1.97703e-07 -1.10435e-20)
(6.21731e-07 2.24627e-07 0)
(5.82068e-07 2.43535e-07 0)
(5.5341e-07 2.58992e-07 0)
(5.32876e-07 2.7159e-07 0)
(5.18325e-07 2.82456e-07 0)
(5.08238e-07 2.91992e-07 0)
(5.01562e-07 3.00626e-07 0)
(4.9747e-07 3.0856e-07 0)
(4.95381e-07 3.16041e-07 0)
(4.85652e-07 3.16258e-07 0)
(6.12268e-07 1.80159e-07 -1.18735e-20)
(5.53425e-07 1.9899e-07 0)
(5.12905e-07 2.12082e-07 0)
(4.83787e-07 2.23101e-07 0)
(4.62999e-07 2.32144e-07 0)
(4.48275e-07 2.40077e-07 0)
(4.38014e-07 2.47093e-07 0)
(4.31116e-07 2.53509e-07 0)
(4.26726e-07 2.59414e-07 0)
(4.2422e-07 2.65046e-07 0)
(4.15508e-07 2.64311e-07 0)
(5.43202e-07 1.63086e-07 -1.22491e-20)
(4.84526e-07 1.73356e-07 0)
(4.44298e-07 1.80431e-07 0)
(4.15564e-07 1.86967e-07 0)
(3.95161e-07 1.92518e-07 0)
(3.80758e-07 1.9765e-07 0)
(3.70715e-07 2.0232e-07 0)
(3.63908e-07 2.06712e-07 0)
(3.59485e-07 2.10797e-07 0)
(3.56812e-07 2.14758e-07 0)
(3.49296e-07 2.13389e-07 0)
(4.72049e-07 1.46577e-07 -1.20809e-20)
(4.15321e-07 1.48212e-07 0)
(3.76589e-07 1.49311e-07 0)
(3.4914e-07 1.51496e-07 0)
(3.29813e-07 1.53752e-07 0)
(3.16261e-07 1.5632e-07 0)
(3.06848e-07 1.589e-07 0)
(3.00457e-07 1.61527e-07 0)
(2.96265e-07 1.64054e-07 0)
(2.93647e-07 1.66584e-07 0)
(2.87381e-07 1.64874e-07 0)
(3.99142e-07 1.30627e-07 -1.13394e-20)
(3.46031e-07 1.23945e-07 0)
(3.10006e-07 1.19375e-07 0)
(2.84785e-07 1.17556e-07 0)
(2.67261e-07 1.16886e-07 0)
(2.55109e-07 1.17264e-07 0)
(2.46739e-07 1.18117e-07 0)
(2.41075e-07 1.19322e-07 0)
(2.3735e-07 1.20614e-07 0)
(2.34975e-07 1.2201e-07 0)
(2.29952e-07 1.20243e-07 0)
(3.24697e-07 1.15058e-07 -1.00523e-20)
(2.76676e-07 1.00774e-07 0)
(2.44599e-07 9.11439e-08 0)
(2.22603e-07 8.59476e-08 0)
(2.07639e-07 8.29396e-08 0)
(1.9744e-07 8.16606e-08 0)
(1.90505e-07 8.12589e-08 0)
(1.85848e-07 8.14587e-08 0)
(1.82788e-07 8.18934e-08 0)
(1.80804e-07 8.24958e-08 0)
(1.7697e-07 8.09321e-08 0)
(2.4935e-07 9.94071e-08 -8.32107e-21)
(2.07352e-07 7.86067e-08 0)
(1.80478e-07 6.49547e-08 0)
(1.62749e-07 5.74148e-08 0)
(1.51084e-07 5.29448e-08 0)
(1.43324e-07 5.07271e-08 0)
(1.38138e-07 4.96512e-08 0)
(1.34688e-07 4.9319e-08 0)
(1.32424e-07 4.92977e-08 0)
(1.30929e-07 4.94611e-08 0)
(1.28197e-07 4.83103e-08 0)
(1.735e-07 8.22657e-08 -6.26547e-21)
(1.37742e-07 5.66284e-08 0)
(1.17644e-07 4.08098e-08 0)
(1.05274e-07 3.26226e-08 0)
(9.75456e-08 2.79681e-08 0)
(9.2581e-08 2.57107e-08 0)
(8.9322e-08 2.45967e-08 0)
(8.71721e-08 2.41914e-08 0)
(8.57526e-08 2.40711e-08 0)
(8.47864e-08 2.40985e-08 0)
(8.30461e-08 2.34676e-08 0)
(1.01892e-07 6.06303e-08 -4.03841e-21)
(6.84496e-08 3.33548e-08 0)
(5.7042e-08 1.93825e-08 0)
(5.09513e-08 1.31192e-08 0)
(4.73876e-08 9.91537e-09 0)
(4.51691e-08 8.52058e-09 0)
(4.37169e-08 7.90012e-09 0)
(4.27549e-08 7.72542e-09 0)
(4.21038e-08 7.70745e-09 0)
(4.16381e-08 7.75807e-09 0)
(4.0781e-08 7.57229e-09 0)
(3.4232e-08 2.41267e-08 -1.45593e-21)
(0 0 0)
(0 0 0)
(0 0 0)
(0 0 0)
(0 0 0)
(0 0 0)
(0 0 0)
(0 0 0)
(0 0 0)
(0 0 0)
(7.43126e-07 2.15562e-07 -9.89377e-21)
(6.89042e-07 2.4975e-07 0)
(6.51291e-07 2.74059e-07 0)
(6.2386e-07 2.93758e-07 0)
(6.04161e-07 3.09857e-07 0)
(5.90232e-07 3.23684e-07 0)
(5.80669e-07 3.35814e-07 0)
(5.74482e-07 3.46755e-07 0)
(5.70907e-07 3.56808e-07 0)
(5.69386e-07 3.66181e-07 0)
(5.69918e-07 3.76335e-07 0)
(6.78999e-07 1.97703e-07 -1.10435e-20)
(6.21731e-07 2.24627e-07 0)
(5.82068e-07 2.43535e-07 0)
(5.5341e-07 2.58992e-07 0)
(5.32876e-07 2.7159e-07 0)
(5.18325e-07 2.82456e-07 0)
(5.08238e-07 2.91992e-07 0)
(5.01562e-07 3.00626e-07 0)
(4.9747e-07 3.0856e-07 0)
(4.95381e-07 3.16041e-07 0)
(4.85652e-07 3.16258e-07 0)
(6.12268e-07 1.80159e-07 -1.18735e-20)
(5.53425e-07 1.9899e-07 0)
(5.12905e-07 2.12082e-07 0)
(4.83787e-07 2.23101e-07 0)
(4.62999e-07 2.32144e-07 0)
(4.48275e-07 2.40077e-07 0)
(4.38014e-07 2.47093e-07 0)
(4.31116e-07 2.53509e-07 0)
(4.26726e-07 2.59414e-07 0)
(4.2422e-07 2.65046e-07 0)
(4.15508e-07 2.64311e-07 0)
(5.43202e-07 1.63086e-07 -1.22491e-20)
(4.84526e-07 1.73356e-07 0)
(4.44298e-07 1.80431e-07 0)
(4.15564e-07 1.86967e-07 0)
(3.95161e-07 1.92518e-07 0)
(3.80758e-07 1.9765e-07 0)
(3.70715e-07 2.0232e-07 0)
(3.63908e-07 2.06712e-07 0)
(3.59485e-07 2.10797e-07 0)
(3.56812e-07 2.14758e-07 0)
(3.49296e-07 2.13389e-07 0)
(4.72049e-07 1.46577e-07 -1.20809e-20)
(4.15321e-07 1.48212e-07 0)
(3.76589e-07 1.49311e-07 0)
(3.4914e-07 1.51496e-07 0)
(3.29813e-07 1.53752e-07 0)
(3.16261e-07 1.5632e-07 0)
(3.06848e-07 1.589e-07 0)
(3.00457e-07 1.61527e-07 0)
(2.96265e-07 1.64054e-07 0)
(2.93647e-07 1.66584e-07 0)
(2.87381e-07 1.64874e-07 0)
(3.99142e-07 1.30627e-07 -1.13394e-20)
(3.46031e-07 1.23945e-07 0)
(3.10006e-07 1.19375e-07 0)
(2.84785e-07 1.17556e-07 0)
(2.67261e-07 1.16886e-07 0)
(2.55109e-07 1.17264e-07 0)
(2.46739e-07 1.18117e-07 0)
(2.41075e-07 1.19322e-07 0)
(2.3735e-07 1.20614e-07 0)
(2.34975e-07 1.2201e-07 0)
(2.29952e-07 1.20243e-07 0)
(3.24697e-07 1.15058e-07 -1.00523e-20)
(2.76676e-07 1.00774e-07 0)
(2.44599e-07 9.11439e-08 0)
(2.22603e-07 8.59476e-08 0)
(2.07639e-07 8.29396e-08 0)
(1.9744e-07 8.16606e-08 0)
(1.90505e-07 8.12589e-08 0)
(1.85848e-07 8.14587e-08 0)
(1.82788e-07 8.18934e-08 0)
(1.80804e-07 8.24958e-08 0)
(1.7697e-07 8.09321e-08 0)
(2.4935e-07 9.94071e-08 -8.32107e-21)
(2.07352e-07 7.86067e-08 0)
(1.80478e-07 6.49547e-08 0)
(1.62749e-07 5.74148e-08 0)
(1.51084e-07 5.29448e-08 0)
(1.43324e-07 5.07271e-08 0)
(1.38138e-07 4.96512e-08 0)
(1.34688e-07 4.9319e-08 0)
(1.32424e-07 4.92977e-08 0)
(1.30929e-07 4.94611e-08 0)
(1.28197e-07 4.83103e-08 0)
(1.735e-07 8.22657e-08 -6.26547e-21)
(1.37742e-07 5.66284e-08 0)
(1.17644e-07 4.08098e-08 0)
(1.05274e-07 3.26226e-08 0)
(9.75456e-08 2.79681e-08 0)
(9.2581e-08 2.57107e-08 0)
(8.9322e-08 2.45967e-08 0)
(8.71721e-08 2.41914e-08 0)
(8.57526e-08 2.40711e-08 0)
(8.47864e-08 2.40985e-08 0)
(8.30461e-08 2.34676e-08 0)
(1.01892e-07 6.06303e-08 -4.03841e-21)
(6.84496e-08 3.33548e-08 0)
(5.7042e-08 1.93825e-08 0)
(5.09513e-08 1.31192e-08 0)
(4.73876e-08 9.91537e-09 0)
(4.51691e-08 8.52058e-09 0)
(4.37169e-08 7.90012e-09 0)
(4.27549e-08 7.72542e-09 0)
(4.21038e-08 7.70745e-09 0)
(4.16381e-08 7.75807e-09 0)
(4.0781e-08 7.57229e-09 0)
(3.4232e-08 2.41267e-08 -1.45593e-21)
(0 0 0)
(0 0 0)
(0 0 0)
(0 0 0)
(0 0 0)
(0 0 0)
(0 0 0)
(0 0 0)
(0 0 0)
(0 0 0)
(1.20575e-06 3.54825e-07 -2.53268e-21)
(1.21454e-06 3.89202e-07 -1.61052e-21)
(1.21374e-06 4.33387e-07 -1.7569e-21)
(1.21327e-06 4.74359e-07 -1.90297e-21)
(1.21424e-06 5.12039e-07 -2.04853e-21)
(1.21703e-06 5.46812e-07 -2.19363e-21)
(1.22181e-06 5.79132e-07 -2.33836e-21)
(1.22854e-06 6.09462e-07 -2.48281e-21)
(1.23717e-06 6.38187e-07 -2.62706e-21)
(1.24749e-06 6.65672e-07 -2.77117e-21)
(1.25942e-06 6.92065e-07 -2.87555e-21)
(1.17891e-06 3.41478e-07 -3.59073e-21)
(1.1755e-06 3.87612e-07 0)
(1.17268e-06 4.31513e-07 0)
(1.1713e-06 4.71873e-07 0)
(1.17175e-06 5.087e-07 0)
(1.17418e-06 5.42446e-07 0)
(1.17858e-06 5.73615e-07 0)
(1.18485e-06 6.02709e-07 0)
(1.19285e-06 6.30143e-07 0)
(1.20242e-06 6.56309e-07 0)
(1.21413e-06 6.81531e-07 0)
(1.14246e-06 3.35787e-07 -3.70498e-21)
(1.13506e-06 3.82941e-07 0)
(1.1291e-06 4.26434e-07 0)
(1.12536e-06 4.6594e-07 0)
(1.12403e-06 5.01677e-07 0)
(1.12503e-06 5.34209e-07 0)
(1.1282e-06 5.64087e-07 0)
(1.13333e-06 5.91844e-07 0)
(1.14022e-06 6.17908e-07 0)
(1.14864e-06 6.42697e-07 0)
(1.16005e-06 6.66802e-07 0)
(1.10382e-06 3.26598e-07 -3.83054e-21)
(1.0916e-06 3.75311e-07 0)
(1.08188e-06 4.18243e-07 0)
(1.07516e-06 4.56582e-07 0)
(1.07144e-06 4.90881e-07 0)
(1.07048e-06 5.21891e-07 0)
(1.07196e-06 5.50224e-07 0)
(1.07556e-06 5.76439e-07 0)
(1.08104e-06 6.00977e-07 0)
(1.08806e-06 6.24262e-07 0)
(1.09914e-06 6.47282e-07 0)
(1.0623e-06 3.14756e-07 -4.05827e-21)
(1.04445e-06 3.64834e-07 0)
(1.03055e-06 4.0696e-07 0)
(1.02052e-06 4.43844e-07 0)
(1.01411e-06 4.76402e-07 0)
(1.01091e-06 5.05605e-07 0)
(1.01046e-06 5.32138e-07 0)
(1.01235e-06 5.56591e-07 0)
(1.01624e-06 5.79412e-07 0)
(1.02174e-06 6.01026e-07 0)
(1.03253e-06 6.22963e-07 0)
(1.01752e-06 3.00835e-07 -4.47866e-21)
(9.9338e-07 3.51558e-07 0)
(9.75048e-07 3.92449e-07 0)
(9.61569e-07 4.27531e-07 0)
(9.52407e-07 4.58037e-07 0)
(9.4692e-07 4.8516e-07 0)
(9.44503e-07 5.09651e-07 0)
(9.44632e-07 5.3213e-07 0)
(9.46912e-07 5.53054e-07 0)
(9.5088e-07 5.72838e-07 0)
(9.61463e-07 5.93705e-07 0)
(9.69314e-07 2.85351e-07 -5.15431e-21)
(9.38508e-07 3.35606e-07 0)
(9.15656e-07 3.74675e-07 0)
(8.98767e-07 4.07562e-07 0)
(8.86928e-07 4.35721e-07 0)
(8.79237e-07 4.60526e-07 0)
(8.74932e-07 4.82774e-07 0)
(8.73383e-07 5.03107e-07 0)
(8.74128e-07 5.21981e-07 0)
(8.7664e-07 5.39796e-07 0)
(8.87121e-07 5.59619e-07 0)
(9.17671e-07 2.68726e-07 -6.09987e-21)
(8.80158e-07 3.17151e-07 0)
(8.52891e-07 3.53681e-07 0)
(8.32767e-07 3.83933e-07 0)
(8.18444e-07 4.09456e-07 0)
(8.08736e-07 4.31733e-07 0)
(8.02715e-07 4.51578e-07 0)
(7.99649e-07 4.69631e-07 0)
(7.99003e-07 4.86342e-07 0)
(8.00202e-07 5.02082e-07 0)
(8.10693e-07 5.20899e-07 0)
(8.6266e-07 2.51341e-07 -7.27432e-21)
(8.18782e-07 2.96453e-07 0)
(7.87419e-07 3.29667e-07 0)
(7.64373e-07 3.56827e-07 0)
(7.47854e-07 3.79439e-07 0)
(7.36393e-07 3.99017e-07 0)
(7.28892e-07 4.16341e-07 0)
(7.24522e-07 4.3203e-07 0)
(7.22673e-07 4.46508e-07 0)
(7.22742e-07 4.60105e-07 0)
(7.33352e-07 4.77941e-07 0)
(8.04418e-07 2.33523e-07 -8.58426e-21)
(7.54898e-07 2.73848e-07 0)
(7.19972e-07 3.02967e-07 0)
(6.94448e-07 3.26593e-07 0)
(6.7611e-07 3.46048e-07 0)
(6.63221e-07 3.62793e-07 0)
(6.54525e-07 3.77527e-07 0)
(6.491e-07 3.90822e-07 0)
(6.46266e-07 4.03052e-07 0)
(6.45428e-07 4.14461e-07 0)
(6.5621e-07 4.31311e-07 0)
(1.20575e-06 3.54825e-07 -2.53268e-21)
(1.21454e-06 3.89202e-07 -1.61052e-21)
(1.21374e-06 4.33387e-07 -1.7569e-21)
(1.21327e-06 4.74359e-07 -1.90297e-21)
(1.21424e-06 5.12039e-07 -2.04853e-21)
(1.21703e-06 5.46812e-07 -2.19363e-21)
(1.22181e-06 5.79132e-07 -2.33836e-21)
(1.22854e-06 6.09462e-07 -2.48281e-21)
(1.23717e-06 6.38187e-07 -2.62706e-21)
(1.24749e-06 6.65672e-07 -2.77117e-21)
(1.25942e-06 6.92065e-07 -2.87555e-21)
(1.17891e-06 3.41478e-07 -3.59073e-21)
(1.1755e-06 3.87612e-07 0)
(1.17268e-06 4.31513e-07 0)
(1.1713e-06 4.71873e-07 0)
(1.17175e-06 5.087e-07 0)
(1.17418e-06 5.42446e-07 0)
(1.17858e-06 5.73615e-07 0)
(1.18485e-06 6.02709e-07 0)
(1.19285e-06 6.30143e-07 0)
(1.20242e-06 6.56309e-07 0)
(1.21413e-06 6.81531e-07 0)
(1.14246e-06 3.35787e-07 -3.70498e-21)
(1.13506e-06 3.82941e-07 0)
(1.1291e-06 4.26434e-07 0)
(1.12536e-06 4.6594e-07 0)
(1.12403e-06 5.01677e-07 0)
(1.12503e-06 5.34209e-07 0)
(1.1282e-06 5.64087e-07 0)
(1.13333e-06 5.91844e-07 0)
(1.14022e-06 6.17908e-07 0)
(1.14864e-06 6.42697e-07 0)
(1.16005e-06 6.66802e-07 0)
(1.10382e-06 3.26598e-07 -3.83054e-21)
(1.0916e-06 3.75311e-07 0)
(1.08188e-06 4.18243e-07 0)
(1.07516e-06 4.56582e-07 0)
(1.07144e-06 4.90881e-07 0)
(1.07048e-06 5.21891e-07 0)
(1.07196e-06 5.50224e-07 0)
(1.07556e-06 5.76439e-07 0)
(1.08104e-06 6.00977e-07 0)
(1.08806e-06 6.24262e-07 0)
(1.09914e-06 6.47282e-07 0)
(1.0623e-06 3.14756e-07 -4.05827e-21)
(1.04445e-06 3.64834e-07 0)
(1.03055e-06 4.0696e-07 0)
(1.02052e-06 4.43844e-07 0)
(1.01411e-06 4.76402e-07 0)
(1.01091e-06 5.05605e-07 0)
(1.01046e-06 5.32138e-07 0)
(1.01235e-06 5.56591e-07 0)
(1.01624e-06 5.79412e-07 0)
(1.02174e-06 6.01026e-07 0)
(1.03253e-06 6.22963e-07 0)
(1.01752e-06 3.00835e-07 -4.47866e-21)
(9.9338e-07 3.51558e-07 0)
(9.75048e-07 3.92449e-07 0)
(9.61569e-07 4.27531e-07 0)
(9.52407e-07 4.58037e-07 0)
(9.4692e-07 4.8516e-07 0)
(9.44503e-07 5.09651e-07 0)
(9.44632e-07 5.3213e-07 0)
(9.46912e-07 5.53054e-07 0)
(9.5088e-07 5.72838e-07 0)
(9.61463e-07 5.93705e-07 0)
(9.69314e-07 2.85351e-07 -5.15431e-21)
(9.38508e-07 3.35606e-07 0)
(9.15656e-07 3.74675e-07 0)
(8.98767e-07 4.07562e-07 0)
(8.86928e-07 4.35721e-07 0)
(8.79237e-07 4.60526e-07 0)
(8.74932e-07 4.82774e-07 0)
(8.73383e-07 5.03107e-07 0)
(8.74128e-07 5.21981e-07 0)
(8.7664e-07 5.39796e-07 0)
(8.87121e-07 5.59619e-07 0)
(9.17671e-07 2.68726e-07 -6.09987e-21)
(8.80158e-07 3.17151e-07 0)
(8.52891e-07 3.53681e-07 0)
(8.32767e-07 3.83933e-07 0)
(8.18444e-07 4.09456e-07 0)
(8.08736e-07 4.31733e-07 0)
(8.02715e-07 4.51578e-07 0)
(7.99649e-07 4.69631e-07 0)
(7.99003e-07 4.86342e-07 0)
(8.00202e-07 5.02082e-07 0)
(8.10693e-07 5.20899e-07 0)
(8.6266e-07 2.51341e-07 -7.27432e-21)
(8.18782e-07 2.96453e-07 0)
(7.87419e-07 3.29667e-07 0)
(7.64373e-07 3.56827e-07 0)
(7.47854e-07 3.79439e-07 0)
(7.36393e-07 3.99017e-07 0)
(7.28892e-07 4.16341e-07 0)
(7.24522e-07 4.3203e-07 0)
(7.22673e-07 4.46508e-07 0)
(7.22742e-07 4.60105e-07 0)
(7.33352e-07 4.77941e-07 0)
(8.04418e-07 2.33523e-07 -8.58426e-21)
(7.54898e-07 2.73848e-07 0)
(7.19972e-07 3.02967e-07 0)
(6.94448e-07 3.26593e-07 0)
(6.7611e-07 3.46048e-07 0)
(6.63221e-07 3.62793e-07 0)
(6.54525e-07 3.77527e-07 0)
(6.491e-07 3.90822e-07 0)
(6.46266e-07 4.03052e-07 0)
(6.45428e-07 4.14461e-07 0)
(6.5621e-07 4.31311e-07 0)
(1.27295e-06 7.17698e-07 -2.8999e-21)
(1.28785e-06 7.42922e-07 -2.88396e-21)
(1.30388e-06 7.6776e-07 -2.86813e-21)
(1.32095e-06 7.92336e-07 -2.85241e-21)
(1.33895e-06 8.16752e-07 -2.8368e-21)
(1.35776e-06 8.41089e-07 -2.82131e-21)
(1.3773e-06 8.6542e-07 -2.8059e-21)
(1.39749e-06 8.89801e-07 -2.7906e-21)
(1.41826e-06 9.14285e-07 -2.77538e-21)
(1.43953e-06 9.38912e-07 -2.76025e-21)
(1.46124e-06 9.63718e-07 -2.74519e-21)
(1.48334e-06 9.88733e-07 -2.73021e-21)
(1.50576e-06 1.01398e-06 -2.71531e-21)
(1.52846e-06 1.03948e-06 -2.70048e-21)
(1.55137e-06 1.06524e-06 -2.68573e-21)
(1.57443e-06 1.09127e-06 -2.67106e-21)
(1.59759e-06 1.11755e-06 -2.65646e-21)
(1.62078e-06 1.14404e-06 -2.64195e-21)
(1.64392e-06 1.17069e-06 -2.62753e-21)
(1.65169e-06 1.18724e-06 2.45334e-22)
(1.22854e-06 7.06383e-07 0)
(1.24469e-06 7.31066e-07 0)
(1.26175e-06 7.55416e-07 0)
(1.27966e-06 7.79565e-07 0)
(1.29831e-06 8.0361e-07 0)
(1.31766e-06 8.27628e-07 0)
(1.33761e-06 8.5169e-07 0)
(1.35812e-06 8.75848e-07 0)
(1.37912e-06 9.0015e-07 0)
(1.40057e-06 9.24636e-07 0)
(1.4224e-06 9.49339e-07 0)
(1.44457e-06 9.74286e-07 0)
(1.46703e-06 9.99501e-07 0)
(1.48975e-06 1.025e-06 0)
(1.51267e-06 1.05079e-06 0)
(1.53576e-06 1.07688e-06 0)
(1.55897e-06 1.10326e-06 0)
(1.58226e-06 1.12988e-06 0)
(1.60559e-06 1.15669e-06 0)
(1.62883e-06 1.18355e-06 3.13236e-21)
(1.17583e-06 6.91144e-07 0)
(1.1939e-06 7.15647e-07 0)
(1.21264e-06 7.39836e-07 0)
(1.23198e-06 7.63849e-07 0)
(1.25188e-06 7.8779e-07 0)
(1.27229e-06 8.11733e-07 0)
(1.29316e-06 8.35748e-07 0)
(1.31446e-06 8.5989e-07 0)
(1.33615e-06 8.84205e-07 0)
(1.35819e-06 9.08731e-07 0)
(1.38054e-06 9.33501e-07 0)
(1.40318e-06 9.58544e-07 0)
(1.42607e-06 9.83882e-07 0)
(1.44918e-06 1.00953e-06 0)
(1.47248e-06 1.03551e-06 0)
(1.49594e-06 1.06181e-06 0)
(1.51953e-06 1.08843e-06 0)
(1.54322e-06 1.11534e-06 0)
(1.56696e-06 1.14251e-06 0)
(1.59051e-06 1.16979e-06 3.16016e-21)
(1.11663e-06 6.7142e-07 0)
(1.13711e-06 6.96153e-07 0)
(1.15799e-06 7.20566e-07 0)
(1.17921e-06 7.44793e-07 0)
(1.20078e-06 7.68947e-07 0)
(1.22266e-06 7.93102e-07 0)
(1.24484e-06 8.17336e-07 0)
(1.26729e-06 8.41702e-07 0)
(1.29002e-06 8.66251e-07 0)
(1.31298e-06 8.91022e-07 0)
(1.33618e-06 9.16051e-07 0)
(1.35958e-06 9.41367e-07 0)
(1.38317e-06 9.66995e-07 0)
(1.40695e-06 9.92956e-07 0)
(1.43088e-06 1.01926e-06 0)
(1.45495e-06 1.04593e-06 0)
(1.47914e-06 1.07295e-06 0)
(1.50342e-06 1.10033e-06 0)
(1.52776e-06 1.12805e-06 0)
(1.55181e-06 1.156e-06 3.21486e-21)
(1.052e-06 6.47179e-07 0)
(1.07527e-06 6.7253e-07 0)
(1.09866e-06 6.97533e-07 0)
(1.12213e-06 7.22308e-07 0)
(1.14572e-06 7.46985e-07 0)
(1.1694e-06 7.71637e-07 0)
(1.19321e-06 7.9635e-07 0)
(1.21713e-06 8.21181e-07 0)
(1.24118e-06 8.46187e-07 0)
(1.26535e-06 8.71411e-07 0)
(1.28964e-06 8.96891e-07 0)
(1.31405e-06 9.22661e-07 0)
(1.33859e-06 9.48749e-07 0)
(1.36324e-06 9.75182e-07 0)
(1.38801e-06 1.00198e-06 0)
(1.41288e-06 1.02916e-06 0)
(1.43784e-06 1.05675e-06 0)
(1.46287e-06 1.08475e-06 0)
(1.48794e-06 1.11318e-06 0)
(1.51265e-06 1.14197e-06 3.29579e-21)
(9.83142e-07 6.18296e-07 0)
(1.00949e-06 6.44661e-07 0)
(1.03568e-06 6.70632e-07 0)
(1.06167e-06 6.963e-07 0)
(1.08754e-06 7.2182e-07 0)
(1.11329e-06 7.47263e-07 0)
(1.13897e-06 7.72727e-07 0)
(1.16459e-06 7.98275e-07 0)
(1.19018e-06 8.23969e-07 0)
(1.21576e-06 8.49858e-07 0)
(1.24136e-06 8.75989e-07 0)
(1.26697e-06 9.02398e-07 0)
(1.29262e-06 9.29121e-07 0)
(1.31832e-06 9.56189e-07 0)
(1.34407e-06 9.83632e-07 0)
(1.36988e-06 1.01148e-06 0)
(1.39574e-06 1.03977e-06 0)
(1.42165e-06 1.06853e-06 0)
(1.44758e-06 1.09781e-06 0)
(1.47309e-06 1.12756e-06 3.40157e-21)
(9.11162e-07 5.84874e-07 0)
(9.40774e-07 6.12634e-07 0)
(9.69964e-07 6.39939e-07 0)
(9.98662e-07 6.66833e-07 0)
(1.02701e-06 6.93504e-07 0)
(1.05501e-06 7.20024e-07 0)
(1.08274e-06 7.46502e-07 0)
(1.11024e-06 7.7301e-07 0)
(1.13755e-06 7.9962e-07 0)
(1.16471e-06 8.26388e-07 0)
(1.19176e-06 8.53366e-07 0)
(1.21871e-06 8.806e-07 0)
(1.24561e-06 9.08129e-07 0)
(1.27248e-06 9.35993e-07 0)
(1.29932e-06 9.64231e-07 0)
(1.32617e-06 9.92883e-07 0)
(1.35303e-06 1.022e-06 0)
(1.37991e-06 1.05163e-06 0)
(1.40679e-06 1.08185e-06 0)
(1.43324e-06 1.11265e-06 3.53051e-21)
(8.37167e-07 5.47103e-07 0)
(8.70125e-07 5.76612e-07 0)
(9.02415e-07 6.05589e-07 0)
(9.33936e-07 6.34028e-07 0)
(9.64879e-07 6.62145e-07 0)
(9.95258e-07 6.90019e-07 0)
(1.02517e-06 7.17768e-07 0)
(1.05467e-06 7.45477e-07 0)
(1.08383e-06 7.73225e-07 0)
(1.11268e-06 8.01079e-07 0)
(1.14129e-06 8.29098e-07 0)
(1.16969e-06 8.57335e-07 0)
(1.19793e-06 8.85837e-07 0)
(1.22604e-06 9.14651e-07 0)
(1.25407e-06 9.43824e-07 0)
(1.28203e-06 9.73407e-07 0)
(1.30995e-06 1.00346e-06 0)
(1.33786e-06 1.03406e-06 0)
(1.36576e-06 1.06528e-06 0)
(1.39326e-06 1.09716e-06 3.68054e-21)
(7.62247e-07 5.05342e-07 0)
(7.98519e-07 5.36917e-07 0)
(8.33918e-07 5.67853e-07 0)
(8.68299e-07 5.98122e-07 0)
(9.01885e-07 6.27941e-07 0)
(9.34704e-07 6.57415e-07 0)
(9.66868e-07 6.86668e-07 0)
(9.98444e-07 7.15797e-07 0)
(1.02951e-06 7.44892e-07 0)
(1.06013e-06 7.74029e-07 0)
(1.09037e-06 8.03275e-07 0)
(1.12028e-06 8.32689e-07 0)
(1.14992e-06 8.62326e-07 0)
(1.17935e-06 8.9224e-07 0)
(1.2086e-06 9.22482e-07 0)
(1.23771e-06 9.53113e-07 0)
(1.26674e-06 9.84198e-07 0)
(1.29572e-06 1.01583e-06 0)
(1.32467e-06 1.0481e-06 0)
(1.35331e-06 1.08108e-06 3.84938e-21)
(6.87383e-07 4.60098e-07 0)
(7.26798e-07 4.93965e-07 0)
(7.65187e-07 5.27065e-07 0)
(8.024e-07 5.59414e-07 0)
(8.38625e-07 5.91173e-07 0)
(8.7391e-07 6.22473e-07 0)
(9.08359e-07 6.53442e-07 0)
(9.42051e-07 6.84191e-07 0)
(9.75072e-07 7.14821e-07 0)
(1.0075e-06 7.45417e-07 0)
(1.03941e-06 7.76057e-07 0)
(1.07087e-06 8.06805e-07 0)
(1.10195e-06 8.37725e-07 0)
(1.13271e-06 8.68872e-07 0)
(1.16321e-06 9.00306e-07 0)
(1.1935e-06 9.32089e-07 0)
(1.22365e-06 9.64293e-07 0)
(1.2537e-06 9.97016e-07 0)
(1.28373e-06 1.03035e-06 0)
(1.31357e-06 1.06443e-06 4.03439e-21)
(6.20945e-07 4.18911e-07 0)
(6.627e-07 4.54748e-07 0)
(7.03322e-07 4.89612e-07 0)
(7.42727e-07 5.23719e-07 0)
(7.81033e-07 5.57164e-07 0)
(8.18294e-07 5.90081e-07 0)
(8.54597e-07 6.22591e-07 0)
(8.9002e-07 6.54807e-07 0)
(9.24649e-07 6.8683e-07 0)
(9.58566e-07 7.18751e-07 0)
(9.91851e-07 7.50649e-07 0)
(1.02458e-06 7.82594e-07 0)
(1.05683e-06 8.14648e-07 0)
(1.08867e-06 8.46872e-07 0)
(1.12018e-06 8.79323e-07 0)
(1.15141e-06 9.12064e-07 0)
(1.18244e-06 9.45165e-07 0)
(1.21334e-06 9.78718e-07 0)
(1.2442e-06 1.01281e-06 0)
(1.27503e-06 1.04763e-06 4.18946e-21)
(1.27295e-06 7.17698e-07 -2.8999e-21)
(1.28785e-06 7.42922e-07 -2.88396e-21)
(1.30388e-06 7.6776e-07 -2.86813e-21)
(1.32095e-06 7.92336e-07 -2.85241e-21)
(1.33895e-06 8.16752e-07 -2.8368e-21)
(1.35776e-06 8.41089e-07 -2.82131e-21)
(1.3773e-06 8.6542e-07 -2.8059e-21)
(1.39749e-06 8.89801e-07 -2.7906e-21)
(1.41826e-06 9.14285e-07 -2.77538e-21)
(1.43953e-06 9.38912e-07 -2.76025e-21)
(1.46124e-06 9.63718e-07 -2.74519e-21)
(1.48334e-06 9.88733e-07 -2.73021e-21)
(1.50576e-06 1.01398e-06 -2.71531e-21)
(1.52846e-06 1.03948e-06 -2.70048e-21)
(1.55137e-06 1.06524e-06 -2.68573e-21)
(1.57443e-06 1.09127e-06 -2.67106e-21)
(1.59759e-06 1.11755e-06 -2.65646e-21)
(1.62078e-06 1.14404e-06 -2.64195e-21)
(1.64392e-06 1.17069e-06 -2.62753e-21)
(1.65169e-06 1.18724e-06 2.45334e-22)
(1.22854e-06 7.06383e-07 0)
(1.24469e-06 7.31066e-07 0)
(1.26175e-06 7.55416e-07 0)
(1.27966e-06 7.79565e-07 0)
(1.29831e-06 8.0361e-07 0)
(1.31766e-06 8.27628e-07 0)
(1.33761e-06 8.5169e-07 0)
(1.35812e-06 8.75848e-07 0)
(1.37912e-06 9.0015e-07 0)
(1.40057e-06 9.24636e-07 0)
(1.4224e-06 9.49339e-07 0)
(1.44457e-06 9.74286e-07 0)
(1.46703e-06 9.99501e-07 0)
(1.48975e-06 1.025e-06 0)
(1.51267e-06 1.05079e-06 0)
(1.53576e-06 1.07688e-06 0)
(1.55897e-06 1.10326e-06 0)
(1.58226e-06 1.12988e-06 0)
(1.60559e-06 1.15669e-06 0)
(1.62883e-06 1.18355e-06 3.13236e-21)
(1.17583e-06 6.91144e-07 0)
(1.1939e-06 7.15647e-07 0)
(1.21264e-06 7.39836e-07 0)
(1.23198e-06 7.63849e-07 0)
(1.25188e-06 7.8779e-07 0)
(1.27229e-06 8.11733e-07 0)
(1.29316e-06 8.35748e-07 0)
(1.31446e-06 8.5989e-07 0)
(1.33615e-06 8.84205e-07 0)
(1.35819e-06 9.08731e-07 0)
(1.38054e-06 9.33501e-07 0)
(1.40318e-06 9.58544e-07 0)
(1.42607e-06 9.83882e-07 0)
(1.44918e-06 1.00953e-06 0)
(1.47248e-06 1.03551e-06 0)
(1.49594e-06 1.06181e-06 0)
(1.51953e-06 1.08843e-06 0)
(1.54322e-06 1.11534e-06 0)
(1.56696e-06 1.14251e-06 0)
(1.59051e-06 1.16979e-06 3.16016e-21)
(1.11663e-06 6.7142e-07 0)
(1.13711e-06 6.96153e-07 0)
(1.15799e-06 7.20566e-07 0)
(1.17921e-06 7.44793e-07 0)
(1.20078e-06 7.68947e-07 0)
(1.22266e-06 7.93102e-07 0)
(1.24484e-06 8.17336e-07 0)
(1.26729e-06 8.41702e-07 0)
(1.29002e-06 8.66251e-07 0)
(1.31298e-06 8.91022e-07 0)
(1.33618e-06 9.16051e-07 0)
(1.35958e-06 9.41367e-07 0)
(1.38317e-06 9.66995e-07 0)
(1.40695e-06 9.92956e-07 0)
(1.43088e-06 1.01926e-06 0)
(1.45495e-06 1.04593e-06 0)
(1.47914e-06 1.07295e-06 0)
(1.50342e-06 1.10033e-06 0)
(1.52776e-06 1.12805e-06 0)
(1.55181e-06 1.156e-06 3.21486e-21)
(1.052e-06 6.47179e-07 0)
(1.07527e-06 6.7253e-07 0)
(1.09866e-06 6.97533e-07 0)
(1.12213e-06 7.22308e-07 0)
(1.14572e-06 7.46985e-07 0)
(1.1694e-06 7.71637e-07 0)
(1.19321e-06 7.9635e-07 0)
(1.21713e-06 8.21181e-07 0)
(1.24118e-06 8.46187e-07 0)
(1.26535e-06 8.71411e-07 0)
(1.28964e-06 8.96891e-07 0)
(1.31405e-06 9.22661e-07 0)
(1.33859e-06 9.48749e-07 0)
(1.36324e-06 9.75182e-07 0)
(1.38801e-06 1.00198e-06 0)
(1.41288e-06 1.02916e-06 0)
(1.43784e-06 1.05675e-06 0)
(1.46287e-06 1.08475e-06 0)
(1.48794e-06 1.11318e-06 0)
(1.51265e-06 1.14197e-06 3.29579e-21)
(9.83142e-07 6.18296e-07 0)
(1.00949e-06 6.44661e-07 0)
(1.03568e-06 6.70632e-07 0)
(1.06167e-06 6.963e-07 0)
(1.08754e-06 7.2182e-07 0)
(1.11329e-06 7.47263e-07 0)
(1.13897e-06 7.72727e-07 0)
(1.16459e-06 7.98275e-07 0)
(1.19018e-06 8.23969e-07 0)
(1.21576e-06 8.49858e-07 0)
(1.24136e-06 8.75989e-07 0)
(1.26697e-06 9.02398e-07 0)
(1.29262e-06 9.29121e-07 0)
(1.31832e-06 9.56189e-07 0)
(1.34407e-06 9.83632e-07 0)
(1.36988e-06 1.01148e-06 0)
(1.39574e-06 1.03977e-06 0)
(1.42165e-06 1.06853e-06 0)
(1.44758e-06 1.09781e-06 0)
(1.47309e-06 1.12756e-06 3.40157e-21)
(9.11162e-07 5.84874e-07 0)
(9.40774e-07 6.12634e-07 0)
(9.69964e-07 6.39939e-07 0)
(9.98662e-07 6.66833e-07 0)
(1.02701e-06 6.93504e-07 0)
(1.05501e-06 7.20024e-07 0)
(1.08274e-06 7.46502e-07 0)
(1.11024e-06 7.7301e-07 0)
(1.13755e-06 7.9962e-07 0)
(1.16471e-06 8.26388e-07 0)
(1.19176e-06 8.53366e-07 0)
(1.21871e-06 8.806e-07 0)
(1.24561e-06 9.08129e-07 0)
(1.27248e-06 9.35993e-07 0)
(1.29932e-06 9.64231e-07 0)
(1.32617e-06 9.92883e-07 0)
(1.35303e-06 1.022e-06 0)
(1.37991e-06 1.05163e-06 0)
(1.40679e-06 1.08185e-06 0)
(1.43324e-06 1.11265e-06 3.53051e-21)
(8.37167e-07 5.47103e-07 0)
(8.70125e-07 5.76612e-07 0)
(9.02415e-07 6.05589e-07 0)
(9.33936e-07 6.34028e-07 0)
(9.64879e-07 6.62145e-07 0)
(9.95258e-07 6.90019e-07 0)
(1.02517e-06 7.17768e-07 0)
(1.05467e-06 7.45477e-07 0)
(1.08383e-06 7.73225e-07 0)
(1.11268e-06 8.01079e-07 0)
(1.14129e-06 8.29098e-07 0)
(1.16969e-06 8.57335e-07 0)
(1.19793e-06 8.85837e-07 0)
(1.22604e-06 9.14651e-07 0)
(1.25407e-06 9.43824e-07 0)
(1.28203e-06 9.73407e-07 0)
(1.30995e-06 1.00346e-06 0)
(1.33786e-06 1.03406e-06 0)
(1.36576e-06 1.06528e-06 0)
(1.39326e-06 1.09716e-06 3.68054e-21)
(7.62247e-07 5.05342e-07 0)
(7.98519e-07 5.36917e-07 0)
(8.33918e-07 5.67853e-07 0)
(8.68299e-07 5.98122e-07 0)
(9.01885e-07 6.27941e-07 0)
(9.34704e-07 6.57415e-07 0)
(9.66868e-07 6.86668e-07 0)
(9.98444e-07 7.15797e-07 0)
(1.02951e-06 7.44892e-07 0)
(1.06013e-06 7.74029e-07 0)
(1.09037e-06 8.03275e-07 0)
(1.12028e-06 8.32689e-07 0)
(1.14992e-06 8.62326e-07 0)
(1.17935e-06 8.9224e-07 0)
(1.2086e-06 9.22482e-07 0)
(1.23771e-06 9.53113e-07 0)
(1.26674e-06 9.84198e-07 0)
(1.29572e-06 1.01583e-06 0)
(1.32467e-06 1.0481e-06 0)
(1.35331e-06 1.08108e-06 3.84938e-21)
(6.87383e-07 4.60098e-07 0)
(7.26798e-07 4.93965e-07 0)
(7.65187e-07 5.27065e-07 0)
(8.024e-07 5.59414e-07 0)
(8.38625e-07 5.91173e-07 0)
(8.7391e-07 6.22473e-07 0)
(9.08359e-07 6.53442e-07 0)
(9.42051e-07 6.84191e-07 0)
(9.75072e-07 7.14821e-07 0)
(1.0075e-06 7.45417e-07 0)
(1.03941e-06 7.76057e-07 0)
(1.07087e-06 8.06805e-07 0)
(1.10195e-06 8.37725e-07 0)
(1.13271e-06 8.68872e-07 0)
(1.16321e-06 9.00306e-07 0)
(1.1935e-06 9.32089e-07 0)
(1.22365e-06 9.64293e-07 0)
(1.2537e-06 9.97016e-07 0)
(1.28373e-06 1.03035e-06 0)
(1.31357e-06 1.06443e-06 4.03439e-21)
(6.20945e-07 4.18911e-07 0)
(6.627e-07 4.54748e-07 0)
(7.03322e-07 4.89612e-07 0)
(7.42727e-07 5.23719e-07 0)
(7.81033e-07 5.57164e-07 0)
(8.18294e-07 5.90081e-07 0)
(8.54597e-07 6.22591e-07 0)
(8.9002e-07 6.54807e-07 0)
(9.24649e-07 6.8683e-07 0)
(9.58566e-07 7.18751e-07 0)
(9.91851e-07 7.50649e-07 0)
(1.02458e-06 7.82594e-07 0)
(1.05683e-06 8.14648e-07 0)
(1.08867e-06 8.46872e-07 0)
(1.12018e-06 8.79323e-07 0)
(1.15141e-06 9.12064e-07 0)
(1.18244e-06 9.45165e-07 0)
(1.21334e-06 9.78718e-07 0)
(1.2442e-06 1.01281e-06 0)
(1.27503e-06 1.04763e-06 4.18946e-21)
(5.2245e-07 3.50255e-07 0)
(5.72648e-07 3.90574e-07 0)
(6.15205e-07 4.2724e-07 0)
(6.56615e-07 4.62898e-07 0)
(6.96865e-07 4.97864e-07 0)
(7.3602e-07 5.322e-07 0)
(7.74125e-07 5.6602e-07 0)
(8.11252e-07 5.99425e-07 0)
(8.47466e-07 6.32513e-07 0)
(8.82846e-07 6.65373e-07 0)
(9.17465e-07 6.98086e-07 0)
(9.51401e-07 7.30726e-07 0)
(9.84729e-07 7.63356e-07 0)
(1.01752e-06 7.96035e-07 0)
(1.04986e-06 8.28818e-07 0)
(1.08181e-06 8.61757e-07 0)
(1.11345e-06 8.94909e-07 0)
(1.14486e-06 9.28334e-07 0)
(1.17611e-06 9.62112e-07 0)
(1.20732e-06 9.96316e-07 0)
(1.23855e-06 1.03112e-06 4.25774e-21)
(4.87117e-07 3.29471e-07 0)
(5.35663e-07 3.69258e-07 0)
(5.7792e-07 4.05988e-07 0)
(6.19178e-07 4.419e-07 0)
(6.59389e-07 4.77234e-07 0)
(6.98596e-07 5.12021e-07 0)
(7.36816e-07 5.46342e-07 0)
(7.74102e-07 5.80275e-07 0)
(8.10503e-07 6.13893e-07 0)
(8.46083e-07 6.47271e-07 0)
(8.80904e-07 6.80475e-07 0)
(9.15036e-07 7.13566e-07 0)
(9.48548e-07 7.46599e-07 0)
(9.8151e-07 7.79624e-07 0)
(1.01399e-06 8.12688e-07 0)
(1.04607e-06 8.45835e-07 0)
(1.07782e-06 8.79111e-07 0)
(1.10932e-06 9.12564e-07 0)
(1.14066e-06 9.46253e-07 0)
(1.17195e-06 9.80231e-07 0)
(1.20328e-06 1.01462e-06 4.27397e-21)
(4.55768e-07 3.09465e-07 0)
(5.02519e-07 3.48693e-07 0)
(5.44034e-07 3.85328e-07 0)
(5.84767e-07 4.21346e-07 0)
(6.24595e-07 4.56928e-07 0)
(6.63545e-07 4.92064e-07 0)
(7.01602e-07 5.26804e-07 0)
(7.38799e-07 5.61197e-07 0)
(7.75166e-07 5.95295e-07 0)
(8.10752e-07 6.29152e-07 0)
(8.45608e-07 6.62819e-07 0)
(8.79791e-07 6.96342e-07 0)
(9.13364e-07 7.29765e-07 0)
(9.4639e-07 7.63128e-07 0)
(9.78936e-07 7.96467e-07 0)
(1.01107e-06 8.29816e-07 0)
(1.04288e-06 8.63207e-07 0)
(1.07443e-06 8.96677e-07 0)
(1.10582e-06 9.3026e-07 0)
(1.13716e-06 9.63984e-07 0)
(1.16855e-06 9.97913e-07 4.28483e-21)
(4.27822e-07 2.90396e-07 0)
(4.72671e-07 3.28933e-07 0)
(5.13186e-07 3.65332e-07 0)
(5.53119e-07 4.01337e-07 0)
(5.923e-07 4.3706e-07 0)
(6.30743e-07 4.72454e-07 0)
(6.68403e-07 5.07534e-07 0)
(7.05298e-07 5.42322e-07 0)
(7.41437e-07 5.76845e-07 0)
(7.76857e-07 6.11135e-07 0)
(8.11593e-07 6.45228e-07 0)
(8.45694e-07 6.79154e-07 0)
(8.79212e-07 7.12944e-07 0)
(9.12205e-07 7.46627e-07 0)
(9.44733e-07 7.80227e-07 0)
(9.76862e-07 8.13766e-07 0)
(1.00866e-06 8.47263e-07 0)
(1.04022e-06 8.80737e-07 0)
(1.07162e-06 9.14197e-07 0)
(1.103e-06 9.47647e-07 0)
(1.13441e-06 9.81101e-07 4.28989e-21)
(4.02796e-07 2.72321e-07 0)
(4.45703e-07 3.101e-07 0)
(4.85025e-07 3.46153e-07 0)
(5.2395e-07 3.82033e-07 0)
(5.62278e-07 4.17791e-07 0)
(6.00011e-07 4.53345e-07 0)
(6.37082e-07 4.8868e-07 0)
(6.73493e-07 5.23786e-07 0)
(7.09239e-07 5.58668e-07 0)
(7.4434e-07 5.93337e-07 0)
(7.78821e-07 6.27809e-07 0)
(8.1272e-07 6.62099e-07 0)
(8.4608e-07 6.96226e-07 0)
(8.7895e-07 7.30202e-07 0)
(9.11384e-07 7.64042e-07 0)
(9.43444e-07 7.97755e-07 0)
(9.75195e-07 8.31344e-07 0)
(1.00671e-06 8.64809e-07 0)
(1.03809e-06 8.98134e-07 0)
(1.06944e-06 9.31308e-07 0)
(1.10084e-06 9.64296e-07 4.28876e-21)
(3.80188e-07 2.5524e-07 0)
(4.21166e-07 2.92205e-07 0)
(4.59176e-07 3.27827e-07 0)
(4.96949e-07 3.63492e-07 0)
(5.34274e-07 3.99195e-07 0)
(5.71141e-07 4.34824e-07 0)
(6.07469e-07 4.70333e-07 0)
(6.43248e-07 5.05685e-07 0)
(6.78459e-07 5.4086e-07 0)
(7.13112e-07 5.7585e-07 0)
(7.47221e-07 6.1065e-07 0)
(7.80813e-07 6.4526e-07 0)
(8.13921e-07 6.79684e-07 0)