/*--------------------------------*- C++ -*----------------------------------*\
  =========                 |
  \\      /  F ield         | OpenFOAM: The Open Source CFD Toolbox
   \\    /   O peration     | Website:  https://openfoam.org
    \\  /    A nd           | Version:  9
     \\/     M anipulation  |
\*---------------------------------------------------------------------------*/
FoamFile
{
    format      ascii;
    class       volSymmTensorField;
    location    "1";
    object      sigma;
}
// * * * * * * * * * * * * * * * * * * * * * * * * * * * * * * * * * * * * * //

dimensions      [1 -1 -2 0 0 0 0];

internalField   nonuniform List<symmTensor> 
1000
(
(122958 -84154.1 -7.33907e-11 71407.6 -7.70524e-11 19010.3)
(144190 -64862.9 -6.59161e-11 38984.9 -6.34311e-11 18785)
(154892 -49683.8 -5.85256e-11 23687.5 -5.29344e-11 18799.6)
(159444 -38229 -5.31155e-11 11714.9 -4.50136e-11 18436.4)
(161127 -29020.6 -4.83919e-11 4707.51 -3.87037e-11 18151.2)
(160480 -21817.9 -4.47065e-11 -506.258 -3.37785e-11 17758.1)
(158882 -15965.3 -4.15984e-11 -3865.44 -2.97972e-11 17401)
(156401 -11310.9 -3.91192e-11 -6289.41 -2.66389e-11 17018.7)
(153840 -7443.72 -3.70036e-11 -7881.93 -2.40245e-11 16684.4)
(150441 -4224.26 -3.53101e-11 -9409.14 -2.18471e-11 16268.1)
(155902 -93566.1 -7.8337e-11 72045.4 -8.32821e-11 22167.7)
(169900 -66952.4 -6.6184e-11 41108.6 -6.48071e-11 21419.2)
(175662 -47774.1 -5.61774e-11 27166.3 -5.16732e-11 21093.4)
(176244 -33984.3 -4.92987e-11 15805.7 -4.22117e-11 20412.8)
(174859 -23476 -4.37483e-11 9337.56 -3.50504e-11 19882.6)
(171693 -15611.9 -3.96788e-11 4342.11 -2.96935e-11 19267.7)
(168036 -9474.08 -3.64214e-11 1135.42 -2.55292e-11 18725.4)
(163853 -4807.05 -3.39969e-11 -1391.24 -2.23647e-11 18170.2)
(159702 -1027.64 -3.19723e-11 -2928.75 -1.98145e-11 17685.3)
(155113 2000.99 -3.05231e-11 -5012.7 -1.77566e-11 17109.7)
(191383 -99509.8 -8.15591e-11 69386.1 -8.71168e-11 25352.1)
(196104 -66873.2 -6.52232e-11 42281.8 -6.47112e-11 24048.8)
(195805 -44464.2 -5.2908e-11 30967.9 -4.94829e-11 23363.4)
(191725 -28842.2 -4.47747e-11 20970.3 -3.88342e-11 22350.5)
(186858 -17413.2 -3.85761e-11 15488 -3.10852e-11 21565.8)
(180925 -9174.6 -3.42659e-11 10977.3 -2.54945e-11 20722.8)
(175093 -2990.11 -3.09854e-11 8094.41 -2.1311e-11 19994.6)
(169125 1527.24 -2.8701e-11 5594.93 -1.82519e-11 19267.1)
(163522 5034.29 -2.68772e-11 4120.39 -1.58887e-11 18643.8)
(157688 7890.13 -2.56269e-11 1703.64 -1.39431e-11 17920.8)
(228258 -101136 -8.24673e-11 63949.9 -8.80024e-11 28500)
(222218 -64359.7 -6.28598e-11 42630 -6.29693e-11 26628.9)
(215007 -39806.6 -4.87664e-11 35048.2 -4.63986e-11 25575.4)
(205698 -23055.1 -3.97325e-11 27062.2 -3.50474e-11 24218.1)
(197009 -11208 -3.31536e-11 22925.1 -2.70556e-11 23168.7)
(188136 -2947.75 -2.88019e-11 19076.4 -2.14709e-11 22091.1)
(180049 3018.77 -2.56604e-11 16562.7 -1.74466e-11 21170.2)
(172334 7219 -2.36163e-11 14116.5 -1.46053e-11 20274.7)
(165332 10310.7 -2.2101e-11 12598.3 -1.2523e-11 19508.7)
(158471 12832.6 -2.11188e-11 10001.2 -1.07999e-11 18669.5)
(264872 -97685.5 -8.05162e-11 56402.9 -8.54472e-11 31508.2)
(247468 -59062.9 -5.88671e-11 42319.1 -5.93532e-11 29100.1)
(232816 -33731.1 -4.37236e-11 39386.8 -4.23736e-11 27684.7)
(217904 -16753.5 -3.42809e-11 33958 -3.0937e-11 25980.1)
(205183 -5142.48 -2.76934e-11 31462.2 -2.31465e-11 24661.9)
(193296 2677.46 -2.35723e-11 28408.2 -1.78802e-11 23348.4)
(182983 8092.86 -2.07776e-11 26285.5 -1.42386e-11 22236.6)
(173606 11747.6 -1.91166e-11 23880.9 -1.17674e-11 21178.2)
(165352 14259.3 -1.80267e-11 22217 -1.00735e-11 20274.6)
(157598 16310.9 -1.73964e-11 19438.2 -8.66381e-12 19330.9)
(300411 -88969.2 -7.5415e-11 47930.4 -7.93512e-11 34389.2)
(271491 -50759.8 -5.30186e-11 41932.6 -5.37259e-11 31473.8)
(249108 -26155.8 -3.76743e-11 44328.1 -3.73608e-11 29706)
(228315 -10065.6 -2.84879e-11 41749.4 -2.65905e-11 27639.2)
(211438 510.792 -2.23832e-11 40995.2 -1.95382e-11 26041)
(196558 7342.62 -1.88453e-11 38703.8 -1.49567e-11 24486.3)
(184122 11845 -1.66377e-11 36873.6 -1.19373e-11 23182.5)
(173232 14725.3 -1.55157e-11 34422.6 -9.98756e-12 21967.2)
(163895 16525.1 -1.49503e-11 32487.4 -8.76752e-12 20931.6)
(155412 17998.9 -1.47392e-11 29503.8 -7.74233e-12 19896.6)
(332642 -74431.9 -6.67207e-11 39467.6 -6.93671e-11 37002.4)
(293127 -38835.6 -4.48527e-11 42106.1 -4.56922e-11 33690.8)
(262835 -16863.8 -3.0438e-11 50320.4 -3.12264e-11 31573.7)
(236155 -3073.24 -2.24043e-11 50568.3 -2.20674e-11 29129.8)
(215310 5481.71 -1.74376e-11 51339.6 -1.64092e-11 27244.4)
(197734 10687.2 -1.492e-11 49546.7 -1.29332e-11 25451.5)
(183493 13902.8 -1.35702e-11 47757.9 -1.07809e-11 23964.5)
(171386 15800.8 -1.314e-11 45080 -9.48706e-12 22605.1)
(161227 16810.8 -1.31667e-11 42718.5 -8.78926e-12 21450.6)
(152209 17654 -1.34126e-11 39473.4 -8.18237e-12 20338.2)
(363726 -54033.4 -5.39301e-11 33564.9 -5.55141e-11 39750.8)
(312608 -22703.3 -3.36112e-11 45163.1 -3.49049e-11 35955.1)
(273987 -5739.71 -2.16492e-11 59139.1 -2.3929e-11 33422.3)
(241618 3814.31 -1.61379e-11 61306.5 -1.76593e-11 30534.4)
(217182 9233.46 -1.31525e-11 62695.8 -1.41219e-11 28319.6)
(197405 12224.9 -1.21302e-11 60695.2 -1.21294e-11 26278)
(181798 13914.9 -1.18619e-11 58419.7 -1.09918e-11 24608)
(168851 14772.2 -1.22021e-11 55201.5 -1.0386e-11 23116.9)
(158167 15055.4 -1.28042e-11 52223.2 -1.01637e-11 21858.2)
(148829 15330.3 -1.34713e-11 48650.8 -9.93129e-12 20685)
(389600 -25268 -3.50584e-11 33344.1 -3.61879e-11 42499.6)
(325729 -2342.64 -1.8738e-11 55130.1 -2.14427e-11 38164.2)
(278508 5711.44 -1.20369e-11 72837.3 -1.65282e-11 35000.7)
(241773 8742.07 -1.08709e-11 74400.9 -1.46242e-11 31585.5)
(215447 10271.7 -1.06273e-11 74389.8 -1.3667e-11 29046.7)
(194792 10814.1 -1.14073e-11 70990.3 -1.32879e-11 26791.9)
(178786 11091 -1.2239e-11 67524.9 -1.30734e-11 24980.4)
(165634 11110.5 -1.32565e-11 63443.4 -1.30116e-11 23396.6)
(154838 10933.3 -1.42719e-11 59737.2 -1.3083e-11 22067.9)
(145423 10849.8 -1.52223e-11 55834.3 -1.30841e-11 20858.8)
(423322 22456.8 7.39279e-14 57845.6 -4.6478e-12 48051.6)
(331666 25064.2 3.8528e-12 86192.5 -3.70702e-12 41338.1)
(277984 16481.7 -1.54232e-12 95391.4 -9.77411e-12 36754.7)
(240158 10668.9 -6.97811e-12 90991.3 -1.36727e-11 32702.9)
(213744 8424.55 -9.97899e-12 85767 -1.51372e-11 29726.8)
(193200 7191.74 -1.23582e-11 79441.2 -1.5887e-11 27245.4)
(177303 6766.77 -1.39618e-11 73958.6 -1.61015e-11 25285.3)
(164217 6527.96 -1.53136e-11 68819.7 -1.61911e-11 23625.5)
(153434 6339.27 -1.64498e-11 64420.3 -1.62562e-11 22245.4)
(143981 6213.91 -1.74592e-11 60323.8 -1.62816e-11 21017.7)
(-571.863 204.495 -3.51621e-11 -321.702 -1.94496e-11 2358.66)
(426.53 -696.223 -3.56419e-11 62.7017 -2.0058e-11 2476.48)
(4488.23 -2209 -3.65345e-11 -223.69 -2.10545e-11 2834.94)
(11007.6 -3422.03 -3.71618e-11 -462.084 -2.18452e-11 3437.96)
(18589.4 -4171.74 -3.74486e-11 -587.068 -2.23251e-11 4156.68)
(26550.5 -4598.44 -3.75101e-11 -648.339 -2.25892e-11 4919.83)
(34351.2 -4766.29 -3.74046e-11 -659.064 -2.26816e-11 5673.64)
(41806.5 -4780.19 -3.7204e-11 -632.092 -2.26723e-11 6398.22)
(48641.3 -4653.63 -3.69342e-11 -618.5 -2.25707e-11 7062.85)
(55013.8 -4555.81 -3.66802e-11 -512.524 -2.24912e-11 7689.41)
(732.09 -743.531 -3.56838e-11 -60.9022 -2.00864e-11 2496.3)
(5988.08 -4084.07 -3.72286e-11 2528.41 -2.23614e-11 3172.02)
(13619.4 -7781.56 -3.93394e-11 2643.62 -2.48195e-11 3887.31)
(21723 -10609.6 -4.10368e-11 1849.54 -2.66759e-11 4587.33)
(29867.9 -12351.6 -4.2041e-11 1081.16 -2.78059e-11 5302.97)
(37609.8 -13328.9 -4.25607e-11 386.047 -2.84263e-11 5992.02)
(44788.7 -13683.1 -4.26756e-11 -149.145 -2.86345e-11 6644.14)
(51432.8 -13661.7 -4.25424e-11 -531.744 -2.85955e-11 7259.33)
(57291.5 -13285.8 -4.21979e-11 -860.186 -2.83224e-11 7805.7)
(62849.1 -12986.1 -4.1861e-11 -891.618 -2.8107e-11 8344.69)
(2283.12 -3704.81 -3.70944e-11 2503.24 -2.21163e-11 2814.36)
(11493.5 -10221.1 -4.0481e-11 5453.91 -2.65145e-11 3872.33)
(22039.7 -14801.3 -4.31531e-11 5063.46 -2.95459e-11 4823.93)
(31729 -17869.9 -4.51484e-11 3112.55 -3.15361e-11 5587.85)
(40640.1 -19562.9 -4.62719e-11 1298.42 -3.26102e-11 6299.05)
(48487 -20360.9 -4.68201e-11 -280.182 -3.30926e-11 6932.87)
(55376.1 -20461.5 -4.68913e-11 -1479.9 -3.31182e-11 7508.83)
(61514.8 -20138.4 -4.66604e-11 -2345.88 -3.28689e-11 8041.15)
(66647.3 -19429 -4.61781e-11 -2999.04 -3.23679e-11 8495.56)
(71617.1 -18833.1 -4.56961e-11 -3190.08 -3.19524e-11 8968.09)
(5497 -8353.13 -3.89791e-11 8412.87 -2.53391e-11 3531.91)
(18940.7 -17581.9 -4.43145e-11 9233.39 -3.14994e-11 4814.52)
(31890.2 -22395.9 -4.72597e-11 7676.02 -3.46575e-11 5908.65)
(42945.8 -25093.6 -4.91823e-11 4504.69 -3.63712e-11 6715.83)
(52501.4 -26212.9 -5.00862e-11 1708.52 -3.70399e-11 7420.23)
(60456.3 -26422.9 -5.03976e-11 -712.796 -3.71114e-11 8005.97)
(67096.9 -25976.9 -5.02387e-11 -2576.2 -3.67585e-11 8512.52)
(72792.5 -25147.6 -4.97839e-11 -3954.42 -3.61611e-11 8967.58)
(77249.5 -23992.9 -4.9102e-11 -4996.14 -3.53559e-11 9331.02)
(81690.9 -23017.5 -4.8431e-11 -5415.16 -3.46829e-11 9738.51)
(10986.6 -14924.2 -4.15666e-11 17074.6 -2.98984e-11 4661.3)
(28932.8 -25594.1 -4.8428e-11 13390.7 -3.69212e-11 6026.22)
(43881.9 -29918.1 -5.13554e-11 9711.88 -3.97034e-11 7157.85)
(55876.9 -31713 -5.29368e-11 4986.47 -4.07794e-11 7946.47)
(65698.1 -31833 -5.33695e-11 1163.35 -4.07577e-11 8607.76)
(73491.7 -31131.8 -5.32368e-11 -2040.48 -4.02038e-11 9126.78)
(79705.6 -29905.4 -5.26891e-11 -4470.82 -3.93183e-11 9555.95)
(84838.6 -28402.5 -5.18905e-11 -6263.5 -3.82627e-11 9931.16)
(88562.5 -26713.5 -5.09397e-11 -7601.38 -3.70957e-11 10205.9)
(92431.8 -25277.9 -5.002e-11 -8178.19 -3.61134e-11 10550.1)
(19474.8 -23563.9 -4.50396e-11 27816.2 -3.58768e-11 6220.38)
(41795.8 -33716.1 -5.24522e-11 18032.9 -4.24188e-11 7551.93)
(58329.4 -36682.4 -5.49224e-11 11642.7 -4.42338e-11 8643.91)
(70791.7 -37115.7 -5.59099e-11 5205.43 -4.43626e-11 9360.34)
(80459.6 -35969.9 -5.57053e-11 408.24 -4.34741e-11 9944.3)
(87752 -34196.4 -5.50188e-11 -3469.35 -4.21903e-11 10373.3)
(93285.7 -32091.7 -5.40077e-11 -6351.96 -4.07092e-11 10710.2)
(97656.3 -29856.9 -5.28185e-11 -8458 -3.91595e-11 10994.3)
(100522 -27617.9 -5.15804e-11 -10026.3 -3.76217e-11 11173.3)
(103696 -25698.5 -5.03907e-11 -10706.2 -3.63152e-11 11446.7)
(31555.6 -34177.8 -4.95276e-11 39384.1 -4.31844e-11 8172.61)
(57481.7 -41622 -5.62361e-11 22839.4 -4.77681e-11 9365.66)
(74986.2 -42287.1 -5.77108e-11 13478.2 -4.79803e-11 10347.3)
(87346.3 -40901.1 -5.78412e-11 5261.39 -4.68555e-11 10935.3)
(96398.2 -38279 -5.68682e-11 -443.076 -4.49622e-11 11404.1)
(102811 -35346.9 -5.55662e-11 -4890.06 -4.28935e-11 11715.1)
(107383 -32340.2 -5.40649e-11 -8104.18 -4.08042e-11 11941.7)
(110757 -29385 -5.24832e-11 -10424.9 -3.87708e-11 12119.3)
(112636 -26633.2 -5.09709e-11 -12135.3 -3.68892e-11 12196.5)
(114948 -24245.3 -4.95179e-11 -12875.2 -3.52701e-11 12386)
(47768.2 -46370.4 -5.49611e-11 50588.3 -5.1531e-11 10483.6)
(75865.1 -49002.9 -5.96171e-11 27628.1 -5.27591e-11 11444.2)
(93479.2 -46466.1 -5.95134e-11 15514.6 -5.07719e-11 12256.6)
(105073 -42854.9 -5.85243e-11 5667.25 -4.81266e-11 12666.8)
(113029 -38613.4 -5.66808e-11 -794.03 -4.51366e-11 12986.5)
(118190 -34508 -5.47434e-11 -5683.29 -4.22768e-11 13153.1)
(121536 -30645.4 -5.2772e-11 -9129.01 -3.96131e-11 13251.1)
(123699 -27050.1 -5.0839e-11 -11572 -3.71517e-11 13307.9)
(124481 -23874.3 -4.91083e-11 -13404.2 -3.49868e-11 13273.2)
(125764 -21080 -4.7428e-11 -14152.5 -3.30978e-11 13365.9)
(68428.2 -59426 -6.10734e-11 60232.2 -6.04125e-11 13099.8)
(96689.1 -55554.9 -6.24624e-11 32074 -5.71816e-11 13740.8)
(113308 -49097.9 -6.02535e-11 17841.9 -5.25302e-11 14331.3)
(123378 -42956.3 -5.79152e-11 6710.66 -4.81688e-11 14519.2)
(129743 -37018.8 -5.51279e-11 -268.501 -4.40374e-11 14660.6)
(133287 -31782.7 -5.25679e-11 -5456.15 -4.04187e-11 14658.1)
(135170 -27149.8 -5.0166e-11 -9002.11 -3.7241e-11 14613.4)
(135902 -23048.1 -4.79665e-11 -11536.8 -3.44423e-11 14529.1)
(135538 -19556 -4.60731e-11 -13403.9 -3.20678e-11 14383.7)
(135579 -16431.7 -4.42527e-11 -14364.4 -2.99569e-11 14342.8)
(93590.5 -72395.9 -6.74161e-11 67388.8 -6.91749e-11 15964.7)
(119608 -60958.4 -6.46197e-11 35935.9 -6.08183e-11 16206.4)
(133940 -50161.8 -5.99141e-11 20566.7 -5.32448e-11 16528)
(141657 -41339.6 -5.60673e-11 8685.45 -4.70799e-11 16455)
(145909 -33714.9 -5.23042e-11 1500.5 -4.18202e-11 16391.2)
(147488 -27428.7 -4.91513e-11 -3791.96 -3.75013e-11 16199.6)
(147670 -22143.6 -4.63836e-11 -7338.88 -3.38914e-11 15995.9)
(146830 -17684.4 -4.39914e-11 -9816.69 -3.08585e-11 15766.7)
(145319 -14068.9 -4.20766e-11 -11833.3 -2.84017e-11 15499.8)
(143938 -10934.6 -4.02478e-11 -12544.6 -2.62926e-11 15340.2)
(60710.4 -4226.66 -3.63162e-11 -512.417 -2.22564e-11 8244.55)
(65725 -3771.49 -3.5872e-11 -398.795 -2.19413e-11 8743.25)
(70321 -3375.52 -3.5482e-11 -317.667 -2.16661e-11 9198.45)
(74448.3 -3016.17 -3.51314e-11 -257.033 -2.14163e-11 9606.32)
(78173.6 -2682.88 -3.48085e-11 -197.673 -2.11848e-11 9974.9)
(81507.5 -2384.33 -3.45212e-11 -154.348 -2.09773e-11 10304)
(84497 -2110.64 -3.4259e-11 -112.722 -2.07874e-11 10599.4)
(87159.2 -1863.82 -3.40246e-11 -80.8657 -2.0616e-11 10862)
(89527.6 -1637.43 -3.38118e-11 -52.5132 -2.0459e-11 11095.8)
(91619.2 -1430.03 -3.36196e-11 -30.4259 -2.03153e-11 11302)
(93455.6 -1237.19 -3.34442e-11 -12.6924 -2.01818e-11 11483.1)
(95049.3 -1055.71 -3.32837e-11 0.368837 -2.00567e-11 11640.2)
(96412.2 -882.915 -3.31358e-11 9.2887 -1.99378e-11 11774.5)
(97551.3 -715.467 -3.2998e-11 13.8548 -1.98228e-11 11886.8)
(98469 -551.761 -3.28688e-11 13.961 -1.97108e-11 11977.2)
(99171.3 -391.396 -3.27488e-11 10.032 -1.96017e-11 12046.4)
(99656.6 -236.643 -3.26387e-11 3.02356 -1.94968e-11 12094.3)
(99944.9 -96.4573 -3.25429e-11 -3.1354 -1.9402e-11 12123)
(100038 10.7201 -3.24722e-11 -2.39207 -1.933e-11 12133.1)
(100028 35.844 -3.2448e-11 51.8705 -1.93143e-11 12136.4)
(67322.7 -12093.1 -4.1215e-11 -1148.91 -2.74924e-11 8766.88)
(71015.4 -10885.6 -4.03455e-11 -1121.2 -2.66755e-11 9137.66)
(74575.6 -9821.67 -3.95596e-11 -1026.8 -2.59561e-11 9499.43)
(77754.1 -8828.61 -3.8836e-11 -978.056 -2.52842e-11 9820.1)
(80701.2 -7898.09 -3.81521e-11 -887.901 -2.46556e-11 10120.9)
(83352.5 -7056.97 -3.7537e-11 -827.905 -2.4087e-11 10390)
(85774.6 -6278.4 -3.6966e-11 -755.909 -2.3561e-11 10637.2)
(87951 -5570.92 -3.64496e-11 -701.221 -2.30831e-11 10858.6)
(89916.9 -4918.37 -3.59744e-11 -649.083 -2.26422e-11 11058.9)
(91672.9 -4317.54 -3.55397e-11 -608.306 -2.22365e-11 11237.6)
(93238.7 -3757.46 -3.5137e-11 -574.326 -2.18583e-11 11397)
(94620.6 -3231.73 -3.47624e-11 -549.583 -2.15033e-11 11537.5)
(95830.2 -2731.52 -3.44098e-11 -531.319 -2.11657e-11 11660.6)
(96874 -2250.96 -3.4075e-11 -518.045 -2.08417e-11 11767.1)
(97757.5 -1785.64 -3.37544e-11 -506.683 -2.05283e-11 11857.7)
(98489.9 -1335.28 -3.34462e-11 -489.799 -2.02251e-11 11934)
(99070.3 -905.099 -3.31531e-11 -456.774 -1.99364e-11 11996.7)
(99517.2 -514.209 -3.28813e-11 -382.761 -1.96751e-11 12049.1)
(99810.6 -190.939 -3.26448e-11 -235.264 -1.9461e-11 12091.6)
(100000 -20.2839 -3.24813e-11 72.3649 -1.93525e-11 12134.8)
(75000 -17496.3 -4.48133e-11 -3531.37 -3.10421e-11 9282.13)
(77352.4 -15852.9 -4.36957e-11 -3448.33 -2.99376e-11 9531.09)
(79885.3 -14377.6 -4.26426e-11 -3139.53 -2.89499e-11 9813.27)
(82075.8 -13007.7 -4.16818e-11 -2936.82 -2.80311e-11 10053.2)
(84217.3 -11702.1 -4.07502e-11 -2647.98 -2.71577e-11 10294.4)
(86141.6 -10516.5 -3.99109e-11 -2425.09 -2.63636e-11 10508.4)
(87957 -9407.26 -3.91205e-11 -2189.67 -2.56213e-11 10712.1)
(89603.8 -8393.22 -3.84022e-11 -1995.98 -2.49421e-11 10895.5)
(91125.8 -7451.74 -3.77359e-11 -1818.33 -2.43116e-11 11064.9)
(92505.2 -6582.16 -3.71241e-11 -1673.17 -2.37289e-11 11217.4)
(93761.1 -5770.44 -3.65559e-11 -1551.58 -2.31847e-11 11355.5)
(94891.7 -5009.65 -3.60283e-11 -1457.29 -2.26746e-11 11479.1)
(95906.4 -4289.47 -3.55333e-11 -1385.61 -2.21914e-11 11589.4)
(96809.4 -3602.71 -3.50647e-11 -1331.98 -2.17303e-11 11687.1)
(97605.2 -2942.94 -3.46188e-11 -1288.34 -2.12874e-11 11773.4)
(98300.8 -2308.03 -3.41899e-11 -1239.71 -2.08617e-11 11850.2)
(98890.8 -1699.44 -3.37762e-11 -1164.63 -2.04543e-11 11918.5)
(99388.4 -1127.07 -3.33766e-11 -1018.2 -2.00727e-11 11983)
(99748.3 -608.423 -3.29929e-11 -738.494 -1.97304e-11 12043.7)
(100014 -167.285 -3.26209e-11 -216.575 -1.94449e-11 12113)
(83987.1 -21307.2 -4.73614e-11 -5874.85 -3.3523e-11 9941.58)
(84911.8 -19425.8 -4.61374e-11 -5825.26 -3.22621e-11 10051.8)
(86380.2 -17689.9 -4.49221e-11 -5353.25 -3.11059e-11 10245.4)
(87506.1 -16105.8 -4.38421e-11 -5066.22 -3.00485e-11 10390.5)
(88779.1 -14563.8 -4.2758e-11 -4617.26 -2.90221e-11 10561.7)
(89899.5 -13163.1 -4.17837e-11 -4266.2 -2.80886e-11 10709.5)
(91038.8 -11836.1 -4.08509e-11 -3887.31 -2.72051e-11 10860.5)
(92085.1 -10617.5 -3.99989e-11 -3567.9 -2.63931e-11 10997)
(93097.8 -9478.09 -3.92013e-11 -3270.89 -2.56338e-11 11127.8)
(94037.5 -8421.68 -3.84668e-11 -3021.24 -2.49292e-11 11247.3)
(94924.2 -7432.9 -3.77816e-11 -2808.01 -2.42693e-11 11358.2)
(95745.8 -6505.72 -3.7144e-11 -2635.98 -2.36501e-11 11459.2)
(96509.5 -5629.06 -3.65462e-11 -2499.21 -2.30639e-11 11551.4)
(97212.9 -4795.02 -3.59821e-11 -2391.96 -2.25061e-11 11635.2)
(97857.2 -3995.2 -3.54441e-11 -2303.29 -2.19708e-11 11711.6)
(98445.1 -3224.38 -3.49249e-11 -2213.99 -2.14551e-11 11782.2)
(98963.2 -2478.01 -3.442e-11 -2097.71 -2.09565e-11 11847.9)
(99420.8 -1751.56 -3.39161e-11 -1904.13 -2.04729e-11 11913.4)
(99754.8 -1051.3 -3.34093e-11 -1569.63 -2.00102e-11 11977.4)
(100021 -327.383 -3.28467e-11 -978.162 -1.95367e-11 12054.5)
(93639.4 -23276.7 -4.87997e-11 -8661.14 -3.47608e-11 10648.5)
(93078.8 -21389.1 -4.76195e-11 -8655.83 -3.34987e-11 10611.5)
(93503.4 -19546.9 -4.63284e-11 -7959.98 -3.22784e-11 10721.8)
(93539.5 -17924.5 -4.52384e-11 -7577.27 -3.12e-11 10768.8)
(93942.1 -16294.1 -4.40908e-11 -6937.27 -3.01204e-11 10870.9)
(94237.1 -14819.7 -4.30669e-11 -6430.33 -2.9143e-11 10951.1)
(94680.5 -13401.2 -4.20672e-11 -5878.67 -2.82034e-11 11048.6)
(95099.9 -12091.6 -4.11489e-11 -5402.31 -2.73351e-11 11137.1)
(95573.6 -10856.6 -4.02816e-11 -4956.1 -2.65163e-11 11227.8)
(96041.6 -9705.27 -3.94782e-11 -4573.61 -2.57521e-11 11312.4)
(96522.6 -8623.48 -3.87262e-11 -4243.05 -2.50335e-11 11393.8)
(96996.9 -7606.09 -3.80249e-11 -3970.99 -2.43565e-11 11469.5)
(97466.1 -6642.83 -3.73667e-11 -3751.29 -2.3715e-11 11540.3)
(97924.1 -5724.87 -3.67453e-11 -3578.52 -2.31027e-11 11605.9)
(98365.9 -4842.73 -3.61519e-11 -3439.62 -2.25139e-11 11667.2)
(98790.9 -3985.18 -3.55776e-11 -3315.27 -2.19413e-11 11725.5)
(99179.9 -3143.13 -3.50121e-11 -3178.18 -2.13795e-11 11781.1)
(99539.1 -2295.2 -3.44329e-11 -2980.25 -2.0815e-11 11838.5)
(99800.5 -1440.99 -3.38337e-11 -2664.23 -2.02488e-11 11895.4)
(100022 -467.836 -3.31231e-11 -2121.92 -1.96077e-11 11966.8)
(103791 -23508.8 -4.90809e-11 -11183.7 -3.48395e-11 11439.3)
(101681 -21858.8 -4.81206e-11 -11337.7 -3.37372e-11 11237.9)
(101085 -20058.4 -4.68521e-11 -10447.8 -3.25515e-11 11263.6)
(100009 -18557.6 -4.58624e-11 -10022.8 -3.15581e-11 11205)
(99540 -16971.7 -4.47429e-11 -9234.35 -3.05136e-11 11233.4)
(98997 -15543.2 -4.37503e-11 -8603.06 -2.95714e-11 11241.4)
(98729.1 -14143.4 -4.2758e-11 -7908.26 -2.86489e-11 11280.6)
(98503.4 -12840.1 -4.18392e-11 -7293.64 -2.77895e-11 11317)
(98415.1 -11599.5 -4.09615e-11 -6712.26 -2.69709e-11 11363.6)
(98384.9 -10433.7 -4.01415e-11 -6202.23 -2.6201e-11 11409.7)
(98431.4 -9331.75 -3.93699e-11 -5755.18 -2.54723e-11 11457.9)
(98525.3 -8289.92 -3.86466e-11 -5380.22 -2.47821e-11 11504.8)
(98666 -7299.26 -3.7966e-11 -5073.02 -2.41249e-11 11550.5)
(98840.5 -6351.1 -3.73207e-11 -4829.85 -2.34943e-11 11594.4)
(99040.5 -5434.48 -3.67046e-11 -4641.36 -2.28842e-11 11636.3)
(99260.6 -4534.56 -3.61049e-11 -4489.94 -2.22843e-11 11677.1)
(99480.8 -3637.19 -3.55084e-11 -4353.27 -2.16856e-11 11716.9)
(99701.7 -2707.2 -3.48878e-11 -4191.86 -2.10659e-11 11758.8)
(99865.4 -1741.14 -3.42344e-11 -3962.18 -2.04233e-11 11800.8)
(100018 -577.553 -3.34307e-11 -3572.78 -1.9652e-11 11855.4)
(113960 -22001.9 -4.81946e-11 -13293.1 -3.37625e-11 12278.6)
(110306 -20853.5 -4.76418e-11 -13742 -3.2994e-11 11900.8)
(108762 -19249.4 -4.65036e-11 -12734.3 -3.19443e-11 11841.8)
(106608 -18021.9 -4.57179e-11 -12316.1 -3.11366e-11 11675.7)
(105295 -16623 -4.47259e-11 -11440.3 -3.02211e-11 11627.3)
(103943 -15354.8 -4.38396e-11 -10702.6 -2.93904e-11 11563.4)
(102972 -14081.2 -4.29268e-11 -9885.71 -2.85568e-11 11542.7)
(102113 -12872.9 -4.20629e-11 -9137.29 -2.77652e-11 11526.9)
(101460 -11706.8 -4.12264e-11 -8425.51 -2.70005e-11 11528)
(100929 -10596.4 -4.04342e-11 -7789.44 -2.62713e-11 11534.6)
(100530 -9537.42 -3.96834e-11 -7227.7 -2.55748e-11 11548)
(100230 -8527.92 -3.89748e-11 -6751.02 -2.49093e-11 11564)
(100022 -7562.53 -3.83056e-11 -6358.75 -2.42716e-11 11582.3)
(99890.3 -6632.67 -3.76705e-11 -6051.02 -2.36556e-11 11601.1)
(99823.5 -5727.28 -3.70613e-11 -5820.27 -2.30544e-11 11620.2)
(99811.4 -4828.7 -3.64667e-11 -5656.21 -2.24562e-11 11639.5)
(99836.7 -3919.3 -3.58725e-11 -5542.8 -2.18498e-11 11658.7)
(99893.9 -2954.43 -3.52455e-11 -5453.71 -2.12055e-11 11679.6)
(99945.7 -1928.09 -3.45794e-11 -5359.41 -2.05202e-11 11701)
(100009 -648.381 -3.37419e-11 -5200.66 -1.96664e-11 11730.6)
(123734 -18866.9 -4.6157e-11 -14598 -3.16127e-11 13155.2)
(118643 -18477.6 -4.61944e-11 -15476.3 -3.13474e-11 12598.8)
(116241 -17236.4 -4.53198e-11 -14532.5 -3.05416e-11 12448.6)
(113110 -16385 -4.48057e-11 -14158.5 -2.99869e-11 12181)
(110989 -15299.1 -4.40397e-11 -13319.5 -2.92825e-11 12048.7)
(108893 -14280.5 -4.33265e-11 -12550.4 -2.86213e-11 11912.9)
(107244 -13231.8 -4.25683e-11 -11694.2 -2.79407e-11 11827.3)
(105779 -12204 -4.18229e-11 -10869.6 -2.7273e-11 11757)
(104573 -11193.2 -4.10858e-11 -10068.6 -2.66158e-11 11709.8)
(103548 -10209.8 -4.03706e-11 -9330.24 -2.59749e-11 11675.2)
(102704 -9256.78 -3.96819e-11 -8664.22 -2.53526e-11 11652.3)
(102006 -8335.75 -3.90234e-11 -8088.04 -2.47494e-11 11636.7)
(101444 -7444.39 -3.83964e-11 -7607.64 -2.41639e-11 11626.5)
(100997 -6576.81 -3.77982e-11 -7228.97 -2.35917e-11 11619.6)
(100652 -5723.4 -3.7222e-11 -6952.56 -2.30267e-11 11614.8)
(100395 -4865.58 -3.66579e-11 -6776.4 -2.24569e-11 11610.9)
(100214 -3984.91 -3.60917e-11 -6693.57 -2.18694e-11 11607.6)
(100095 -3031.27 -3.54921e-11 -6695.59 -2.12313e-11 11604.4)
(100030 -1998.39 -3.48522e-11 -6767.9 -2.05385e-11 11601.9)
(99995.8 -677.915 -3.40373e-11 -6889.27 -1.96522e-11 11601.2)
(132781 -14406 -4.31261e-11 -14841 -2.85984e-11 14053.7)
(126403 -14915.3 -4.38485e-11 -16215.2 -2.89279e-11 13326.8)
(123207 -14294.8 -4.34701e-11 -15765.8 -2.85297e-11 13056.7)
(119289 -13893.1 -4.32792e-11 -15499.8 -2.8276e-11 12700.7)
(116396 -13251.3 -4.28376e-11 -14794.6 -2.78681e-11 12479.4)
(113660 -12543.3 -4.23362e-11 -14013.4 -2.74169e-11 12279.7)
(111383 -11770.5 -4.17664e-11 -13135.5 -2.69231e-11 12132.5)
(109372 -10962.1 -4.11659e-11 -12254 -2.64049e-11 12011.5)
(107655 -10141.1 -4.05519e-11 -11389.5 -2.58771e-11 11917.9)
(106169 -9319.73 -3.99402e-11 -10579.9 -2.53472e-11 11842.5)
(104900 -8508.41 -3.93409e-11 -9842.6 -2.48223e-11 11782.6)
(103818 -7712.07 -3.87612e-11 -9198.35 -2.43049e-11 11733.7)
(102905 -6931.76 -3.82044e-11 -8658.06 -2.37958e-11 11693.2)
(102142 -6163.87 -3.76698e-11 -8233.94 -2.3292e-11 11658.2)
(101515 -5400.4 -3.71547e-11 -7933.32 -2.27886e-11 11627)
(101006 -4623.43 -3.66495e-11 -7763.53 -2.22735e-11 11597.5)
(100612 -3815.33 -3.61433e-11 -7728.38 -2.1734e-11 11569.2)
(100308 -2923.83 -3.56055e-11 -7838.6 -2.11358e-11 11539.4)
(100123 -1943.33 -3.50322e-11 -8094.62 -2.04748e-11 11510.8)
(99983.2 -664.284 -3.42969e-11 -8520.97 -1.96103e-11 11476.5)
(140309 -8682.01 -3.92085e-11 -14293.6 -2.47587e-11 14876.2)
(133838 -9789.86 -4.02684e-11 -15401.3 -2.54945e-11 14155.1)
(129746 -10054.9 -4.063e-11 -15899.1 -2.56721e-11 13718.4)
(125388 -10165.4 -4.08354e-11 -15997.3 -2.57551e-11 13287.5)
(121727 -10121.2 -4.08634e-11 -15725.8 -2.57402e-11 12953.6)
(118388 -9896.37 -4.07245e-11 -15185.6 -2.56093e-11 12672.9)
(115477 -9546.24 -4.04619e-11 -14448.8 -2.53972e-11 12449.7)
(112908 -9090.67 -4.01072e-11 -13612 -2.51157e-11 12268.1)
(110672 -8562.27 -3.96903e-11 -12729.6 -2.47855e-11 12123)
(108723 -7984.95 -3.92357e-11 -11860.6 -2.44214e-11 12005.1)
(107037 -7377.3 -3.87633e-11 -11040.6 -2.40355e-11 11909.2)
(105580 -6754.15 -3.82878e-11 -10303.6 -2.36369e-11 11829.3)
(104330 -6122.71 -3.78198e-11 -9673.23 -2.32301e-11 11761.6)
(103262 -5485.8 -3.73636e-11 -9172.02 -2.28164e-11 11701.8)
(102362 -4839.79 -3.69215e-11 -8816.81 -2.23934e-11 11647.2)
(101608 -4170.94 -3.6488e-11 -8627.48 -2.19514e-11 11594.4)
(101004 -3463.99 -3.60558e-11 -8619.2 -2.14799e-11 11542.9)
(100514 -2670.85 -3.56015e-11 -8823.82 -2.09461e-11 11487)
(100208 -1786.44 -3.51214e-11 -9258.03 -2.03462e-11 11432.4)
(99964.9 -613.234 -3.45064e-11 -9992.86 -1.95466e-11 11363.6)
(144568 -3971.42 -3.58506e-11 -12701.5 -2.16265e-11 15451.7)
(138617 -4564.23 -3.65783e-11 -13854.7 -2.20154e-11 14782.2)
(133935 -5655.52 -3.75815e-11 -14980.3 -2.27351e-11 14233.4)
(129441 -6175.37 -3.81134e-11 -15471.9 -2.30845e-11 13755.9)
(125463 -6543.54 -3.84595e-11 -15494.7 -2.33405e-11 13365.3)
(121820 -6711.79 -3.86199e-11 -15211 -2.34683e-11 13032.1)
(118580 -6723.01 -3.86267e-11 -14667.7 -2.3495e-11 12759.2)
(115675 -6604.34 -3.85182e-11 -13977 -2.34368e-11 12531)
(113106 -6380.23 -3.83191e-11 -13196 -2.33091e-11 12343.1)
(110832 -6076.61 -3.80575e-11 -12391.7 -2.31279e-11 12186.3)
(108835 -5713.65 -3.77544e-11 -11608.3 -2.29057e-11 12055.4)
(107086 -5308.59 -3.7428e-11 -10888.3 -2.26536e-11 11944)
(105563 -4872.8 -3.70916e-11 -10263.3 -2.23782e-11 11847.6)
(104243 -4412.29 -3.67547e-11 -9764.34 -2.20834e-11 11761.6)
(103113 -3927.98 -3.64224e-11 -9417.53 -2.17692e-11 11682.7)
(102150 -3411.47 -3.60952e-11 -9253.04 -2.14291e-11 11606.4)
(101367 -2851.93 -3.577e-11 -9298.17 -2.10555e-11 11532.1)
(100719 -2211.94 -3.54329e-11 -9602.19 -2.06227e-11 11452)
(100305 -1488.29 -3.50838e-11 -10197.5 -2.01274e-11 11373.3)
(99960.4 -512.471 -3.46402e-11 -11197.9 -1.94548e-11 11272.8)
(142373 648.706 -3.26964e-11 -10918.2 -1.85753e-11 15415.5)
(137706 -29.6385 -3.36473e-11 -13323.3 -1.89927e-11 14774.7)
(133405 -1359.47 -3.47983e-11 -14491.9 -1.98703e-11 14257.5)
(129325 -2233.32 -3.55717e-11 -15154.9 -2.04523e-11 13803.9)
(125643 -2922.89 -3.61318e-11 -15295.8 -2.09205e-11 13430.2)
(122221 -3413.34 -3.65071e-11 -15120.7 -2.12611e-11 13107.3)
(119129 -3732.2 -3.67212e-11 -14677 -2.14913e-11 12838.4)
(116308 -3907.27 -3.68102e-11 -14073.8 -2.16279e-11 12609.1)
(113772 -3960.86 -3.67982e-11 -13367.1 -2.16845e-11 12416.4)
(111490 -3917.43 -3.67112e-11 -12624.5 -2.1676e-11 12251.8)
(109454 -3796.35 -3.65707e-11 -11891.2 -2.1615e-11 12111.1)
(107643 -3614.87 -3.63945e-11 -11211.8 -2.15118e-11 11988.7)
(106044 -3385.68 -3.61961e-11 -10621.2 -2.13743e-11 11880.5)
(104638 -3117.2 -3.59887e-11 -10154.5 -2.12076e-11 11781.9)
(103420 -2812.38 -3.57782e-11 -9841.75 -2.1013e-11 11690.3)
(102369 -2468.93 -3.55697e-11 -9720.06 -2.07882e-11 11600.7)
(101505 -2078.7 -3.53635e-11 -9823.27 -2.0527e-11 11512.6)
(100784 -1618.46 -3.51553e-11 -10210.2 -2.0213e-11 11417.6)
(100325 -1090.05 -3.49508e-11 -10926.3 -1.98459e-11 11323.6)
(99942.5 -374.156 -3.47009e-11 -12101.7 -1.9344e-11 11203.9)
(140717 5280.99 -2.94665e-11 -8819.79 -1.55205e-11 15455.4)
(136419 4217.23 -3.07151e-11 -11611.8 -1.61874e-11 14817.7)
(132781 2652.07 -3.2042e-11 -13057.5 -1.72154e-11 14341.6)
(129023 1493.16 -3.30359e-11 -14020 -1.79813e-11 13894)
(125637 532.842 -3.38011e-11 -14415.2 -1.86248e-11 13527.3)
(122396 -232.634 -3.43834e-11 -14469.1 -1.91444e-11 13202.1)
(119435 -818.502 -3.4794e-11 -14217.5 -1.95492e-11 12929)
(116690 -1254.83 -3.50729e-11 -13776.7 -1.98572e-11 12692.5)
(114194 -1559.12 -3.52397e-11 -13202.3 -2.00787e-11 12491.2)
(111919 -1754.23 -3.53213e-11 -12566 -2.0228e-11 12317.3)
(109869 -1858.07 -3.5337e-11 -11915.8 -2.03161e-11 12166.8)
(108025 -1887.87 -3.5306e-11 -11301.8 -2.03529e-11 12034.3)
(106381 -1856.6 -3.52432e-11 -10763.7 -2.0347e-11 11916)
(104922 -1774.68 -3.51619e-11 -10340.8 -2.03043e-11 11807.4)
(103645 -1647.86 -3.50724e-11 -10069.3 -2.02283e-11 11705.3)
(102536 -1479.21 -3.49831e-11 -9991.37 -2.01197e-11 11605.2)
(101618 -1264.85 -3.4899e-11 -10150.1 -1.99753e-11 11506.1)
(100848 -998.244 -3.48255e-11 -10603.3 -1.97897e-11 11399.5)
(100361 -678.048 -3.47675e-11 -11403.7 -1.95605e-11 11294.6)
(99938.4 -233.035 -3.47113e-11 -12711.8 -1.92372e-11 11158.5)
(137798 8868.36 -2.69891e-11 -7057.37 -1.31624e-11 15338)
(134077 7783.09 -2.82863e-11 -10162.4 -1.38358e-11 14732.4)
(131055 6147.09 -2.96694e-11 -11781.9 -1.49059e-11 14302.2)
(127720 4854.82 -3.07687e-11 -12943.1 -1.5756e-11 13879.3)
(124711 3717.83 -3.16639e-11 -13513.4 -1.65132e-11 13534.3)
(121749 2756.31 -3.23888e-11 -13730.1 -1.71602e-11 13222.2)
(119014 1960.76 -3.29504e-11 -13625.7 -1.77018e-11 12957.9)
(116437 1310.61 -3.33814e-11 -13316 -1.81497e-11 12725.7)
(114065 792.901 -3.36992e-11 -12856.5 -1.85117e-11 12526.1)
(111879 388.246 -3.3927e-11 -12318.7 -1.8799e-11 12351.2)
(109886 81.548 -3.40826e-11 -11753.3 -1.90206e-11 12198.2)
(108077 -142.429 -3.41848e-11 -11210.1 -1.91861e-11 12061.9)
(106448 -297.181 -3.42494e-11 -10731.4 -1.93037e-11 11939)
(104992 -394.068 -3.42901e-11 -10359.6 -1.93796e-11 11825.1)
(103708 -441.242 -3.43173e-11 -10132.5 -1.9419e-11 11717.4)
(102587 -448.726 -3.43475e-11 -10097.9 -1.94276e-11 11611.4)
(101652 -410.907 -3.43816e-11 -10295.8 -1.94008e-11 11506.1)
(100873 -348.498 -3.44457e-11 -10794.4 -1.93509e-11 11393.3)
(100377 -234.772 -3.45296e-11 -11667.8 -1.92582e-11 11280.1)
(99935.7 -76.1444 -3.46671e-11 -13045.2 -1.91257e-11 11134.4)
(134122 11845.3 -2.49213e-11 -5316.4 -1.12139e-11 15140.3)
(130987 10747.7 -2.62309e-11 -8547.09 -1.18916e-11 14581.8)
(128580 9124.01 -2.76082e-11 -10280.9 -1.29498e-11 14202.6)
(125707 7774.67 -2.87602e-11 -11618 -1.38334e-11 13810.8)
(123116 6537.05 -2.9735e-11 -12356.4 -1.46535e-11 13492.6)
(120482 5447.23 -3.05595e-11 -12742.8 -1.5382e-11 13198.3)
(118026 4501.61 -3.12338e-11 -12793.6 -1.60202e-11 12948)