/*--------------------------------*- C++ -*----------------------------------*\
  =========                 |
  \\      /  F ield         | OpenFOAM: The Open Source CFD Toolbox
   \\    /   O peration     | Website:  https://openfoam.org
    \\  /    A nd           | Version:  9
     \\/     M anipulation  |
\*---------------------------------------------------------------------------*/
FoamFile
{
    format      ascii;
    class       volScalarField;
    location    "1";
    object      sigmaEq;
}
// * * * * * * * * * * * * * * * * * * * * * * * * * * * * * * * * * * * * * //

dimensions      [1 -1 -2 0 0 0 0];

internalField   nonuniform List<scalar> 
1000
(
171318
161934
159014
158936
158340
157283
155700
153633
151495
148864
199916
181545
172733
168782
165579
162673
159683
156605
153377
150330
227817
200535
185510
177254
171093
166052
161461
157163
152908
149169
254488
218651
197315
184449
175042
167651
161317
155733
150462
146032
279099
235452
207915
190288
177442
167539
159379
152458
146217
141071
301820
250873
217245
194787
178393
165910
155905
147658
140496
134635
321404
264044
224390
197254
177505
162644
150995
141584
133659
127152
340237
274992
229009
197614
174969
158201
145320
135080
126661
119684
354480
279497
227183
192982
169310
151997
138894
128489
120017
112854
372507
274161
219772
186237
164022
147508
134969
124830
116520
109305
2836
2556.3
5637.77
11711.6
18747.8
26129.9
33350.7
40257.3
46606
52509.8
2607.45
7758.6
17030
26186.5
34389.7
41729.3
48186.8
54000.8
59011.2
63760.3
6433.55
19024.8
30814.8
41378.6
50241.1
57638.5
63705.2
68843.4
72901.6
76801.5
15080.4
32924.5
46227.4
57329.6
66210
73340.8
78924.7
83442
86707.8
89925.2
27996
48738.4
62822.5
73926.3
82339.2
88847.6
93726.7
97501.8
99965
102498
44962.1
65832.4
79783.8
90438.1
98067.7
103723
107742
110674
112317
114130
65539.8
83937.8
96696.4
106410
112992
117622
120672
122686
123498
124545
89184.5
102826
113227
121426
126688
130148
132164
133218
133250
133479
115192
122290
129201
135266
138911
141046
141950
142015
141296
140757
142835
142088
144486
147769
149450
150060
149754
148739
147452
145806
57813.4
62402.7
66651
70488.4
73958.7
77078.2
79878.4
82379.2
84606.5
86577.1
88309.5
89815.2
91104.8
92184.6
93056.8
93727
94192.7
94470.6
94558.2
94514.7
67427.4
70173.9
72939.1
75491.9
77890.4
80107.8
82156.8
84030.6
85740.9
87286.4
88676.3
89913.7
91004
91950.4
92754
93418.2
93934.7
94304.8
94488
94475.8
79015.6
80015.1
81275.1
82457.1
83664
84838.9
85996
87104.5
88168.9
89172.3
90115.4
90991
91798.3
92533.5
93192.3
93769.2
94243.8
94598.7
94750.4
94670.6
90917.7
90425.4
90367.1
90309.9
90398.8
90559.7
90822.9
91140.9
91521.4
91934.1
92377
92832.7
93295.6
93753.4
94195
94607.1
94957.1
95219.8
95293.4
95156
102412
100665
99471.4
98335.9
97436.2
96670.4
96100.3
95658.9
95366.5
95183.9
95108.7
95118.3
95201.9
95343.7
95524.8
95727.7
95913.4
96054.2
96048.9
95883
113084
110295
108150
106090
104348
102767
101457
100325
99407.6
98657.2
98076.5
97638
97331.7
97137
97035.1
97004.6
97009.4
97021.1
96959.3
96808
122659
119034
116151
113312
110885
108600
106642
104890
103400
102123
101063
100196
99507.8
98980
98593.6
98327.9
98153.6
98045.3
97953.2
97855.3
130900
126630
123258
119767
116811
113965
111477
109208
107220
105472
103971
102697
101641
100787
100119
99620.4
99274.1
99057.4
98961.7
98951.3
137783
132916
129429
125464
122080
118773
115813
113097
110674
108516
106627
104993
103606
102454
101529
100816
100314
100005
99925.5
100023
143071
137922
134460
130450
126811
123251
119928
116836
114011
111461
109189
107195
105475
104022
102833
101901
101240
100836
100775
100993
145416
140584
137021
133165
129470
125857
122427
119191
116193
113448
110970
108766
106840
105192
103828
102747
101980
101518
101484
101804
141973
139125
135845
132454
129096
125768
122561
119492
116611
113937
111497
109300
107361
105686
104292
103184
102405
101955
101981
102402
139299
136940
134331
131355
128386
125342
122368
119472
116722
114138
111754
109588
107660
105984
104581
103466
102691
102256
102328
102816
135928
134222
132176
129627
127044
124307
121596
118912
116334
113886
111608
109521
107651
106017
104644
103554
102799
102394
102516
103041
132023
130859
129352
127256
125089
122698
120290
117861
115498
113229
111098
109132
107359
105802
104487
103451
102713
102384
102364
103074
127795
127127
126111
124451
122684
120645
118551
116396
114275
112214
110265
108453
106812
105365
104146
103177
102519
102187
102329
102840
123338
123098
122518
121273
119891
118206
116434
114570
112710
110884
109141
107513
106032
104723
103619
102742
102149
101841
101971
102451
118744
118874
118680
117818
116796
115455
114003
112437
110852
109276
107762
106339
105042
103893
102926
102156
101637
101368
101481
101893
114061
114501
114644
114132
113446
112437
111301
110036
108734
107423
106154
104956
103862
102894
102081
101436
101002
100775
100865
101196
109314
110014
110449
110255
109883
109192
108367
107404
106391
105355
104346
103388
102515
101745
101102
100597
100261
100086
100150
100390
104503
105421
106110
106208
106130
105748
105229
104571
103854
103104
102364
101662
101023
100466
100009
99658.6
99432.7
99319.6
99363.7
99511.3
99610.5
100714
101631
102001
102206
102127
101914
101566
101153
100699
100242
99805.9
99415.1
99083.3
98825.3
98642.3
98540.7
98502.8
98537.8
98600.2
94599.1
95870.4
96998.9
97633.7
98119.8
98347.7
98449.1
98420.4
98322.8
98176.3
98014.3
97857
97724.5
97629
97579.7
97575.4
97610.2
97662.1
97704.5
97697.5
89425.1
90862.9
92202.4
93108.6
93885.8
94433.7
94864.3
95170.9
95405.3
95581.2
95728.4
95860.6
95996.5
96144.4
96310.4
96491.3
96672.7
96827.3
96896.7
96843.5
84027.7
85651
87220.7
88422.7
89517.1
90411.9
91197.8
91865.2
92453.5
92972.1
93442.8
93877.1
94288.2
94683.8
95066.8
95434.4
95765.5
96031.6
96149.8
96077.5
78363.5
80218
82058.1
83599.9
85053.8
86335.4
87513.3
88572.8
89542.4
90424.8
91235.4
91981.9
92673.2
93315.6
93911
94456.8
94933.5
95311.2
95495.7
95433.6
72368.6
74533.2
76717
78669.4
80546.4
82272
83890.1
85382.5
86765.3
88037
89205.1
90273.1
91247.1
92131.5
92927.8
93634.9
94237.9
94712
94969.6
94945.5
66087.2
68677.9
71301.8
73754.1
76128.9
78359.7
80467.3
82430.5
84254.8
85933.5
87469.8
88863.4
90116.9
91232.2
92210.6
93053.2
93750.7
94288.4
94602
94627
59531.6
62719.5
65926.2
68993.9
71960.4
74766.7
77417.1
79887.4
82178.1
84279.4
86191.1
87911.1
89439.2
90774.6
91914.6
92859.1
93600.6
94138.3
94443.5
94497.2
53169.6
57120.7
61029
64788
68397.9
71806.2
75009.1
77983.7
80727.9
83234.3
85501.8
87528.5
89311.8
90848.3
92128.9
93148
93890
94361.6
94549.2
94531.1
103209
106664
113256
120657
128280
135016
140396
144034
145961
145704
97601.2
100862
107065
114228
121915
129080
135244
139869
142840
143446
92545.4
95649.8
101453
108207
115595
122654
128992
134173
138130
140399
87909.8
90919.5
96426.6
102857
110012
116990
123400
128831
133088
136298
83558.7
86489.5
91717.3
97801.5
104645
111437
117819
123478
128002
131855
79467.6
82349.9
87360.3
93149.4
99699.6
106267
112501
118201
122793
127069
75556
78398.8
83217.8
88733.7
94994
101328
107391
113078
117675
122153
71805
74616.5
79274.4
84546.5
90532.2
96617.2
102467
108063
112614
117175
68176.9
70955.3
75467.3
80515.8
86241.1
92079.8
97710.9
103171
107645
112191
64662.1
67399.6
71772.8
76608.7
82081.8
87668.3
93070.7
98360.6
102738
107214
61251.3
63931.5
68159.2
72781.6
78004.5
83334.2
88503.3
93597.8
97863.9
102233
57952.9
60549.3
64609.3
69002
73961.9
79021.6
83948.8
88829.7
92973.5
97215.6
54792.9
57261
61106.1
65230.4
69898.7
74666.6
79339
83991.8
88005
92111.3
51818.9
54086.6
57636.6
61428.7
65756.1
70200.3
74598.6
79010.8
82889.4
86860.3
49128.4
51067.8
54173.5
57522.3
61433.2
65511.1
69617.2
73783.9
77532.7
81381.9
46859
48225.4
50669.9
53436.5
56838.3
60501.6
64297.2
68221.5
71856.6
75609.3
45282.8
45613
46976.2
48937.3
51721.3
54939.3
58436.4
62152.9
65725.8
69441.6
44573.5
42988.8
42850.4
43846.8
45950.9
48722.9
51963.2
55538
59128.4
62891.7
45433.6
39994.7
37489.5
37324
38842.4
41334.4
44505.6
48127.5
51916.7
55895.3
45787
34322.5
30415.3
29283.3
30543.9
33006.3
36366.9
40287.7
44508.1
48911.4
)
;

boundaryField
{
    left
    {
        type            calculated;
        value           nonuniform List<scalar> 
30
(
102310
96719.2
91678.2
87049
82707.7
78629.5
74738.4
71018.2
67434.4
63981
60651.7
57460.2
54435.8
51633.4
49157.4
47189.3
46080.3
46416
49929.9
57642.5
396009
266931
212627
181781
161511
145922
133872
123922
115695
108441
)
;
    }
    right
    {
        type            calculated;
        value           nonuniform List<scalar> 
30
(
94495.5
94475.9
94660.3
95139.9
95864
96791
97842.9
98947.3
100027
101011
101827
102438
102855
103084
103085
102875
102489
101926
101222
100407
99520.5
98602
97693
96834.5
96066.9
95423.5
94939.6
94626.2
94501.6
94509.3
)
;
    }
    down
    {
        type            calculated;
        value           nonuniform List<scalar> 
30
(
2638.28
2300.88
4024.38
9945.22
17138.3
24726.5
32160.5
39257.1
45771
51806.9
57242.6
61979.9
66331.4
70245.2
73775.3
76939
79775
82302.2
84551
86537.8
88283.3
89798.9
91095.5
92180.5
93055.9
93727.5
94192.8
94470.2
94557.9
94525.4
)
;
    }
    up
    {
        type            calculated;
        value           nonuniform List<scalar> 
30
(
44425.9
33917.3
30279.2
29152.5
30385.6
32815.5
36154.6
40065.2
44281
48691.5
52958.5
56931.5
60864.9
64645.7
68277.8
71704.7
74925.4
77915.7
80674.1
83192.5
85470.4
87506.2
89297.1
90839.3
92125
93147.1
93890.5
94361.6
94548.2
94537.5
)
;
    }
    hole
    {
        type            calculated;
        value           nonuniform List<scalar> 
20
(
170404
199851
228553
255957
281215
304506
324566
343934
358767
376044
2480.9
2487.2
3191.76
10689.3
23281.8
40414
61450.5
85761.3
112557
141052
)
;
    }
    frontAndBack
    {
        type            empty;
    }
}


// ************************************************************************* //
