/*--------------------------------*- C++ -*----------------------------------*\
  =========                 |
  \\      /  F ield         | OpenFOAM: The Open Source CFD Toolbox
   \\    /   O peration     | Website:  https://openfoam.org
    \\  /    A nd           | Version:  9
     \\/     M anipulation  |
\*---------------------------------------------------------------------------*/
FoamFile
{
    format      ascii;
    class       volScalarField;
    location    "1";
    object      epsilonEq;
}
// * * * * * * * * * * * * * * * * * * * * * * * * * * * * * * * * * * * * * //

dimensions      [0 0 0 0 0 0 0];

internalField   nonuniform List<scalar> 
1000
(
6.81673e-07
6.47063e-07
6.37231e-07
6.42005e-07
6.42689e-07
6.41312e-07
6.36842e-07
6.30052e-07
6.22443e-07
6.13018e-07
7.94612e-07
7.21346e-07
6.86016e-07
6.75002e-07
6.65246e-07
6.56849e-07
6.47134e-07
6.36812e-07
6.25168e-07
6.14863e-07
9.05027e-07
7.92922e-07
7.30184e-07
7.0118e-07
6.7927e-07
6.62563e-07
6.46714e-07
6.3198e-07
6.16547e-07
6.0417e-07
1.01073e-06
8.6089e-07
7.69845e-07
7.21137e-07
6.85571e-07
6.59494e-07
6.36877e-07
6.17433e-07
5.98326e-07
5.83753e-07
1.10847e-06
9.23653e-07
8.0426e-07
7.3473e-07
6.84298e-07
6.47943e-07
6.18065e-07
5.93633e-07
5.71059e-07
5.54154e-07
1.19863e-06
9.80693e-07
8.32918e-07
7.41886e-07
6.75753e-07
6.28596e-07
5.91238e-07
5.61778e-07
5.35949e-07
5.1665e-07
1.27625e-06
1.0283e-06
8.518e-07
7.39597e-07
6.58309e-07
6.0102e-07
5.56918e-07
5.2304e-07
4.94608e-07
4.73133e-07
1.34921e-06
1.06442e-06
8.57269e-07
7.25996e-07
6.31828e-07
5.66685e-07
5.17819e-07
4.81066e-07
4.51281e-07
4.28333e-07
1.39987e-06
1.06817e-06
8.30418e-07
6.87778e-07
5.90255e-07
5.24125e-07
4.75519e-07
4.39079e-07
4.10004e-07
3.86743e-07
1.4438e-06
1.00667e-06
7.66607e-07
6.32865e-07
5.48292e-07
4.89719e-07
4.46544e-07
4.12914e-07
3.85681e-07
3.62554e-07
1.88887e-09
5.4726e-09
2.4523e-08
5.09008e-08
7.99401e-08
1.09955e-07
1.39144e-07
1.6697e-07
1.9254e-07
2.16239e-07
6.42641e-09
3.41254e-08
7.28072e-08
1.10915e-07
1.4477e-07
1.74851e-07
2.01127e-07
2.24624e-07
2.44822e-07
2.63779e-07
2.81281e-08
8.12876e-08
1.30129e-07
1.74378e-07
2.11333e-07
2.42044e-07
2.6703e-07
2.87976e-07
3.0442e-07
3.19934e-07
6.47214e-08
1.3897e-07
1.94077e-07
2.4075e-07
2.77973e-07
3.07822e-07
3.31044e-07
3.49617e-07
3.62976e-07
3.75757e-07
1.16778e-07
2.03974e-07
2.6272e-07
3.09755e-07
3.4525e-07
3.72726e-07
3.93209e-07
4.08858e-07
4.19047e-07
4.29052e-07
1.84078e-07
2.73189e-07
3.32022e-07
3.77702e-07
4.1021e-07
4.34368e-07
4.51463e-07
4.63761e-07
4.70707e-07
4.77788e-07
2.65228e-07
3.45432e-07
4.00074e-07
4.4254e-07
4.71059e-07
4.9126e-07
5.04545e-07
5.13218e-07
5.16895e-07
5.20888e-07
3.58258e-07
4.19711e-07
4.6525e-07
5.02232e-07
5.25729e-07
5.41454e-07
5.50733e-07
5.55668e-07
5.56346e-07
5.57085e-07
4.60565e-07
4.9531e-07
5.26787e-07
5.55742e-07
5.73034e-07
5.83752e-07
5.88761e-07
5.8995e-07
5.87773e-07
5.85698e-07
5.69385e-07
5.71404e-07
5.84163e-07
6.02325e-07
6.11998e-07
6.1694e-07
6.17359e-07
6.14459e-07
6.1034e-07
6.03861e-07
2.37573e-07
2.55935e-07
2.72956e-07
2.88352e-07
3.02274e-07
3.14803e-07
3.26052e-07
3.36106e-07
3.45066e-07
3.53e-07
3.5998e-07
3.66054e-07
3.71263e-07
3.7563e-07
3.79169e-07
3.81895e-07
3.83799e-07
3.84941e-07
3.85305e-07
3.85083e-07
2.78445e-07
2.89159e-07
2.99953e-07
3.09991e-07
3.19409e-07
3.28163e-07
3.36255e-07
3.43681e-07
3.50465e-07
3.56613e-07
3.62152e-07
3.67094e-07
3.71457e-07
3.75252e-07
3.7848e-07
3.81143e-07
3.83203e-07
3.84636e-07
3.85249e-07
3.84913e-07
3.28613e-07
3.32069e-07
3.36455e-07
3.40693e-07
3.45004e-07
3.49298e-07
3.53547e-07
3.57676e-07
3.61669e-07
3.65472e-07
3.69075e-07
3.72448e-07
3.75581e-07
3.78455e-07
3.81042e-07
3.83305e-07
3.85141e-07
3.86436e-07
3.86796e-07
3.85986e-07
3.79477e-07
3.76882e-07
3.75746e-07
3.74855e-07
3.74455e-07
3.74487e-07
3.74945e-07
3.7572e-07
3.76796e-07
3.78078e-07
3.79538e-07
3.81112e-07
3.82764e-07
3.84443e-07
3.86089e-07
3.8763e-07
3.88912e-07
3.89783e-07
3.89775e-07
3.88673e-07
4.28397e-07
4.20819e-07
4.14937e-07
4.09637e-07
4.05094e-07
4.01259e-07
3.982e-07
3.95766e-07
3.93984e-07
3.92729e-07
3.91978e-07
3.91644e-07
3.91676e-07
3.92001e-07
3.92538e-07
3.93189e-07
3.9378e-07
3.94146e-07
3.93837e-07
3.92675e-07
4.73272e-07
4.61723e-07
4.51912e-07
4.42918e-07
4.34903e-07
4.27719e-07
4.21585e-07
4.16268e-07
4.11863e-07
4.0822e-07
4.05331e-07
4.03102e-07
4.01479e-07
4.00383e-07
3.99727e-07
3.99408e-07
3.99263e-07
3.99139e-07
3.98678e-07
3.97724e-07
5.13024e-07
4.98488e-07
4.85687e-07
4.73653e-07
4.62873e-07
4.52832e-07
4.44039e-07
4.36157e-07
4.2937e-07
4.23524e-07
4.18628e-07
4.14593e-07
4.1137e-07
4.08879e-07
4.07043e-07
4.05764e-07
4.04917e-07
4.04371e-07
4.03911e-07
4.03382e-07
5.46562e-07
5.29938e-07
5.15307e-07
5.00779e-07
4.87968e-07
4.75705e-07
4.64801e-07
4.54824e-07
4.46002e-07
4.38211e-07
4.3148e-07
4.25749e-07
4.20987e-07
4.17135e-07
4.14136e-07
4.11916e-07
4.10406e-07
4.09504e-07
4.09172e-07
4.0924e-07
5.73749e-07
5.55283e-07
5.40645e-07
5.24388e-07
5.10031e-07
4.95966e-07
4.83202e-07
4.71427e-07
4.60838e-07
4.51372e-07
4.4305e-07
4.35837e-07
4.29715e-07
4.24644e-07
4.20598e-07
4.17529e-07
4.1544e-07
4.14261e-07
4.14147e-07
4.14905e-07
5.94011e-07
5.74259e-07
5.60563e-07
5.44441e-07
5.29468e-07
5.14616e-07
5.00557e-07
4.87346e-07
4.75178e-07
4.64117e-07
4.54225e-07
4.45516e-07
4.38001e-07
4.31671e-07
4.26535e-07
4.22577e-07
4.19873e-07
4.18397e-07
4.18504e-07
4.19992e-07
6.01889e-07
5.83352e-07
5.69848e-07
5.54652e-07
5.39714e-07
5.2487e-07
5.1055e-07
4.969e-07
4.8414e-07
4.72374e-07
4.61708e-07
4.52192e-07
4.43875e-07
4.36782e-07
4.30965e-07
4.26444e-07
4.23368e-07
4.21746e-07
4.22089e-07
4.24192e-07
5.8643e-07
5.76902e-07
5.64569e-07
5.51372e-07
5.37888e-07
5.24276e-07
5.10941e-07
4.98041e-07
4.85821e-07
4.74411e-07
4.63945e-07
4.54508e-07
4.46182e-07
4.39025e-07
4.33124e-07
4.2854e-07
4.25471e-07
4.23963e-07
4.24644e-07
4.27282e-07
5.73977e-07
5.6677e-07
5.5732e-07
5.46024e-07
5.3428e-07
5.21983e-07
5.09729e-07
4.97654e-07
4.86062e-07
4.75099e-07
4.64936e-07
4.55683e-07
4.47451e-07
4.4033e-07
4.34437e-07
4.29866e-07
4.26857e-07
4.25466e-07
4.26393e-07
4.29393e-07
5.59159e-07
5.54834e-07
5.4775e-07
5.38306e-07
5.28228e-07
5.17273e-07
5.06173e-07
4.95042e-07
4.84225e-07
4.73881e-07
4.64204e-07
4.55324e-07
4.47373e-07
4.40462e-07
4.34726e-07
4.30294e-07
4.27395e-07
4.2616e-07
4.27337e-07
4.30533e-07
5.42286e-07
5.40243e-07
5.3539e-07
5.27885e-07
5.19582e-07
5.10132e-07
5.00349e-07
4.90331e-07
4.80462e-07
4.70909e-07
4.6189e-07
4.53549e-07
4.46036e-07
4.39479e-07
4.34011e-07
4.29818e-07
4.27021e-07
4.26105e-07
4.26692e-07
4.30625e-07
5.24329e-07
5.24318e-07
5.2147e-07
5.15786e-07
5.09159e-07
5.01198e-07
4.9275e-07
4.83908e-07
4.75075e-07
4.66424e-07
4.58188e-07
4.50519e-07
4.4358e-07
4.37502e-07
4.32445e-07
4.28542e-07
4.26063e-07
4.25148e-07
4.26367e-07
4.29441e-07
5.05608e-07
5.07274e-07
5.06179e-07
5.02195e-07
4.97158e-07
4.90674e-07
4.83579e-07
4.75966e-07
4.68242e-07
4.60585e-07
4.53234e-07
4.46347e-07
4.4009e-07
4.34596e-07
4.30025e-07
4.26499e-07
4.24277e-07
4.23415e-07
4.2454e-07
4.27425e-07
4.86503e-07
4.89558e-07
4.89989e-07
4.8754e-07
4.83968e-07
4.78894e-07
4.73122e-07
4.66747e-07
4.60168e-07
4.53565e-07
4.47174e-07
4.41154e-07
4.35668e-07
4.30845e-07
4.26835e-07
4.23743e-07
4.21795e-07
4.21051e-07
4.22034e-07
4.24525e-07
4.67181e-07
4.71339e-07
4.73065e-07
4.71987e-07
4.69758e-07
4.66025e-07
4.61542e-07
4.56406e-07
4.50998e-07
4.45494e-07
4.40124e-07
4.35041e-07
4.30402e-07
4.26325e-07
4.22945e-07
4.20346e-07
4.18712e-07
4.18073e-07
4.18865e-07
4.20885e-07
4.47729e-07
4.52751e-07
4.5557e-07
4.55706e-07
4.54704e-07
4.52238e-07
4.49004e-07
4.45097e-07
4.40874e-07
4.36503e-07
4.32202e-07
4.28113e-07
4.24384e-07
4.21119e-07
4.18431e-07
4.16383e-07
4.15105e-07
4.14603e-07
4.15182e-07
4.16655e-07
4.28115e-07
4.33799e-07
4.37537e-07
4.38757e-07
4.38888e-07
4.3763e-07
4.35617e-07
4.32936e-07
4.29916e-07
4.2671e-07
4.2352e-07
4.20478e-07
4.17714e-07
4.15319e-07
4.13382e-07
4.1194e-07
4.1107e-07
4.10739e-07
4.11113e-07
4.12021e-07
4.08244e-07
4.14441e-07
4.18967e-07
4.21175e-07
4.22377e-07
4.22294e-07
4.21491e-07
4.20046e-07
4.18252e-07
4.16248e-07
4.14211e-07
4.12261e-07
4.10511e-07
4.09037e-07
4.07901e-07
4.07121e-07
4.06713e-07
4.0661e-07
4.06821e-07
4.07184e-07
3.87926e-07
3.94545e-07
3.99783e-07
4.02937e-07
4.05192e-07
4.06287e-07
4.06717e-07
4.06543e-07
4.06019e-07
4.05262e-07
4.04428e-07
4.03617e-07
4.02925e-07
4.02414e-07
4.02124e-07
4.02052e-07
4.02162e-07
4.02351e-07
4.02473e-07
4.02357e-07
3.66968e-07
3.73991e-07
3.79929e-07
3.84045e-07
3.87388e-07
3.89711e-07
3.91431e-07
3.9259e-07
3.93399e-07
3.93951e-07
3.94372e-07
3.94746e-07
3.9515e-07
3.95633e-07
3.96218e-07
3.96886e-07
3.97563e-07
3.98111e-07
3.98242e-07
3.97757e-07
3.45044e-07
3.5255e-07
3.59266e-07
3.64447e-07
3.68988e-07
3.72651e-07
3.75774e-07
3.78373e-07
3.80611e-07
3.82553e-07
3.84297e-07
3.85906e-07
3.8744e-07
3.88936e-07
3.90406e-07
3.91826e-07
3.93095e-07
3.94057e-07
3.94312e-07
3.93607e-07
3.22026e-07
3.30198e-07
3.37859e-07
3.44287e-07
3.50199e-07
3.5537e-07
3.60046e-07
3.64216e-07
3.67995e-07
3.71417e-07
3.7455e-07
3.77436e-07
3.80119e-07
3.82626e-07
3.84964e-07
3.87112e-07
3.88966e-07
3.90365e-07
3.9085e-07
3.90103e-07
2.97464e-07
3.06658e-07
3.1559e-07
3.23582e-07
3.31153e-07
3.38087e-07
3.44536e-07
3.50464e-07
3.55932e-07
3.60949e-07
3.65552e-07
3.69764e-07
3.7361e-07
3.77112e-07
3.80274e-07
3.83083e-07
3.85456e-07
3.87254e-07
3.88043e-07
3.87443e-07
2.71838e-07
2.82532e-07
2.93141e-07
3.03064e-07
3.12605e-07
3.21555e-07
3.29979e-07
3.37814e-07
3.45079e-07
3.51759e-07
3.57869e-07
3.63411e-07
3.68399e-07
3.72844e-07
3.76749e-07
3.80111e-07
3.8288e-07
3.84963e-07
3.86032e-07
3.85712e-07
2.44641e-07
2.57635e-07
2.70588e-07
2.82997e-07
2.94955e-07
3.06267e-07
3.16929e-07
3.26862e-07
3.36059e-07
3.44492e-07
3.52158e-07
3.59052e-07
3.65174e-07
3.70521e-07
3.75085e-07
3.78862e-07
3.81816e-07
3.83929e-07
3.85049e-07
3.85022e-07
2.19069e-07
2.35013e-07
2.50761e-07
2.65911e-07
2.80443e-07
2.94159e-07
3.07036e-07
3.18988e-07
3.30004e-07
3.40056e-07
3.49144e-07
3.57259e-07
3.64393e-07
3.70532e-07
3.75648e-07
3.79714e-07
3.82673e-07
3.84548e-07
3.85288e-07
3.85166e-07
3.43e-07
3.66234e-07
4.05789e-07
4.49355e-07
4.92667e-07
5.30802e-07
5.61675e-07
5.83836e-07
5.97542e-07
6.00417e-07
3.24877e-07
3.46546e-07
3.83051e-07
4.24223e-07
4.66582e-07
5.05465e-07
5.38747e-07
5.64327e-07
5.82077e-07
5.89076e-07
3.08647e-07
3.29314e-07
3.63284e-07
4.01852e-07
4.42213e-07
4.80076e-07
5.13645e-07
5.41153e-07
5.62604e-07
5.75819e-07
2.93797e-07
3.13791e-07
3.4566e-07
3.81914e-07
4.20406e-07
4.5716e-07
4.90428e-07
5.18529e-07
5.41034e-07
5.58036e-07
2.79872e-07
2.99407e-07
3.29494e-07
3.63571e-07
4.00075e-07
4.35448e-07
4.68096e-07
4.9668e-07
5.19901e-07
5.39082e-07
2.66794e-07
2.86039e-07
3.14657e-07
3.46805e-07
3.81387e-07
4.15206e-07
4.46735e-07
4.75072e-07
4.98309e-07
5.18895e-07
2.54332e-07
2.73378e-07
3.00755e-07
3.31182e-07
3.63959e-07
3.96245e-07
4.26577e-07
4.54425e-07
4.7733e-07
4.9838e-07
2.42438e-07
2.61325e-07
2.87631e-07
3.1651e-07
3.47573e-07
3.78291e-07
4.0728e-07
4.34346e-07
4.56744e-07
4.77814e-07
2.31034e-07
2.49759e-07
2.75105e-07
3.02575e-07
3.32035e-07
3.61226e-07
3.88855e-07
4.14959e-07
4.36694e-07
4.57405e-07
2.20119e-07
2.3863e-07
2.6306e-07
2.89194e-07
3.17111e-07
3.44775e-07
3.71019e-07
3.96033e-07
4.17033e-07
4.37183e-07
2.09721e-07
2.27916e-07
2.51409e-07
2.76219e-07
3.02616e-07
3.28747e-07
3.53593e-07
3.77421e-07
3.97615e-07
4.1707e-07
1.99924e-07
2.17644e-07
2.40093e-07
2.6351e-07
2.88341e-07
3.12891e-07
3.36305e-07
3.58878e-07
3.7822e-07
3.96911e-07
1.90892e-07
2.07889e-07
2.29062e-07
2.509e-07
2.74035e-07
2.96912e-07
3.1884e-07
3.40098e-07
3.58552e-07
3.7645e-07
1.82876e-07
1.98771e-07
2.18293e-07
2.38252e-07
2.59468e-07
2.80526e-07
3.00885e-07
3.20776e-07
3.38318e-07
3.55428e-07
1.76351e-07
1.90482e-07
2.07646e-07
2.25193e-07
2.44139e-07
2.63185e-07
2.81887e-07
3.00389e-07
3.17044e-07
3.33425e-07
1.71884e-07
1.83119e-07
1.96969e-07
2.11482e-07
2.2774e-07
2.44557e-07
2.61518e-07
2.78635e-07
2.94464e-07
3.10219e-07
1.70716e-07
1.76855e-07
1.85454e-07
1.95866e-07
2.08936e-07
2.2338e-07
2.38655e-07
2.5455e-07
2.69783e-07
2.85177e-07
1.73108e-07
1.70516e-07
1.72194e-07
1.77907e-07
1.87539e-07
1.99614e-07
2.13383e-07
2.28329e-07
2.43299e-07
2.58678e-07
1.82083e-07
1.62497e-07
1.53134e-07
1.53109e-07
1.59697e-07
1.70144e-07
1.83261e-07
1.98121e-07
2.13665e-07
2.2981e-07
1.85964e-07
1.42455e-07
1.26873e-07
1.22418e-07
1.27526e-07
1.3752e-07
1.51132e-07
1.66997e-07
1.84081e-07
2.01862e-07
)
;

boundaryField
{
    left
    {
        type            calculated;
        value           nonuniform List<scalar> 
30
(
3.39031e-07
3.21124e-07
3.05095e-07
2.90423e-07
2.76692e-07
2.63826e-07
2.51615e-07
2.40023e-07
2.28991e-07
2.18533e-07
2.08696e-07
1.99583e-07
1.91377e-07
1.84353e-07
1.79009e-07
1.76086e-07
1.77065e-07
1.8378e-07
2.02327e-07
2.31455e-07
1.53715e-06
9.85216e-07
7.41801e-07
6.16556e-07
5.38532e-07
4.83182e-07
4.41667e-07
4.0871e-07
3.81791e-07
3.58575e-07
)
;
    }
    right
    {
        type            calculated;
        value           nonuniform List<scalar> 
30
(
3.85017e-07
3.84914e-07
3.85952e-07
3.88618e-07
3.92608e-07
3.97661e-07
4.03334e-07
4.0922e-07
4.14917e-07
4.20051e-07
4.24269e-07
4.27408e-07
4.29533e-07
4.30681e-07
4.30665e-07
4.29567e-07
4.27558e-07
4.24635e-07
4.20969e-07
4.16709e-07
4.12046e-07
4.07181e-07
4.02332e-07
3.97718e-07
3.93563e-07
3.90064e-07
3.8742e-07
3.85709e-07
3.85037e-07
3.85091e-07
)
;
    }
    down
    {
        type            calculated;
        value           nonuniform List<scalar> 
30
(
1.65995e-09
1.54574e-09
1.76481e-08
4.31141e-08
7.24939e-08
1.03228e-07
1.33273e-07
1.61924e-07
1.8822e-07
2.12585e-07
2.34513e-07
2.53636e-07
2.71197e-07
2.86991e-07
3.0124e-07
3.1401e-07
3.25459e-07
3.35665e-07
3.44749e-07
3.5278e-07
3.59837e-07
3.65969e-07
3.7122e-07
3.75617e-07
3.79172e-07
3.81902e-07
3.838e-07
3.84935e-07
3.853e-07
3.85177e-07
)
;
    }
    up
    {
        type            calculated;
        value           nonuniform List<scalar> 
30
(
1.8326e-07
1.40782e-07
1.26002e-07
1.21458e-07
1.26426e-07
1.36271e-07
1.49791e-07
1.65629e-07
1.827e-07
2.00557e-07
2.17819e-07
2.33892e-07
2.49794e-07
2.65071e-07
2.79735e-07
2.93566e-07
3.06551e-07
3.18598e-07
3.297e-07
3.39828e-07
3.4898e-07
3.5715e-07
3.6433e-07
3.70506e-07
3.75646e-07
3.79727e-07
3.82686e-07
3.84553e-07
3.8528e-07
3.85224e-07
)
;
    }
    hole
    {
        type            calculated;
        value           nonuniform List<scalar> 
20
(
6.86669e-07
8.05499e-07
9.2166e-07
1.03283e-06
1.13555e-06
1.23034e-06
1.31217e-06
1.39106e-06
1.45169e-06
1.52309e-06
3.98116e-10
4.34031e-10
1.36048e-08
4.61354e-08
9.69115e-08
1.65479e-07
2.49577e-07
3.46816e-07
4.54156e-07
5.68543e-07
)
;
    }
    frontAndBack
    {
        type            empty;
    }
}


// ************************************************************************* //
