/*--------------------------------*- C++ -*----------------------------------*\
  =========                 |
  \\      /  F ield         | OpenFOAM: The Open Source CFD Toolbox
   \\    /   O peration     | Website:  https://openfoam.org
    \\  /    A nd           | Version:  9
     \\/     M anipulation  |
\*---------------------------------------------------------------------------*/
FoamFile
{
    format      ascii;
    class       pointVectorField;
    location    "1";
    object      pointD;
}
// * * * * * * * * * * * * * * * * * * * * * * * * * * * * * * * * * * * * * //

dimensions      [0 1 0 0 0 0 0];

internalField   nonuniform List<vector> 
2142
(
(7.41108e-07 2.17056e-07 -4.2419e-24)
(6.86842e-07 2.5136e-07 0)
(6.48915e-07 2.75814e-07 0)
(6.21332e-07 2.9567e-07 0)
(6.01482e-07 3.11943e-07 0)
(5.87406e-07 3.25954e-07 0)
(5.77694e-07 3.38276e-07 0)
(5.71356e-07 3.49413e-07 0)
(5.67628e-07 3.59669e-07 0)
(5.65948e-07 3.69247e-07 0)
(5.66293e-07 3.79645e-07 0)
(6.77187e-07 1.99127e-07 -2.87544e-23)
(6.19743e-07 2.2617e-07 0)
(5.79932e-07 2.45209e-07 0)
(5.51152e-07 2.60805e-07 0)
(5.30496e-07 2.73559e-07 0)
(5.15824e-07 2.84588e-07 0)
(5.0561e-07 2.94297e-07 0)
(4.98803e-07 3.03108e-07 0)
(4.94574e-07 3.11225e-07 0)
(4.92343e-07 3.18891e-07 0)
(4.82527e-07 3.19265e-07 0)
(6.10668e-07 1.81499e-07 -2.4852e-23)
(5.5166e-07 2.00454e-07 0)
(5.11023e-07 2.13662e-07 0)
(4.81813e-07 2.24801e-07 0)
(4.60928e-07 2.33978e-07 0)
(4.46103e-07 2.42052e-07 0)
(4.35735e-07 2.49218e-07 0)
(4.28722e-07 2.55788e-07 0)
(4.2421e-07 2.61854e-07 0)
(4.21577e-07 2.67647e-07 0)
(4.12782e-07 2.67047e-07 0)
(5.41816e-07 1.6433e-07 -1.08203e-23)
(4.82996e-07 1.74726e-07 0)
(4.42679e-07 1.81903e-07 0)
(4.13878e-07 1.88539e-07 0)
(3.934e-07 1.94201e-07 0)
(3.78912e-07 1.99448e-07 0)
(3.68775e-07 2.0424e-07 0)
(3.61866e-07 2.08759e-07 0)
(3.57332e-07 2.12978e-07 0)
(3.54544e-07 2.17073e-07 0)
(3.46947e-07 2.15813e-07 0)
(4.7088e-07 1.47714e-07 -1.75035e-23)
(4.14034e-07 1.49472e-07 0)
(3.7524e-07 1.50659e-07 0)
(3.47742e-07 1.52923e-07 0)
(3.28352e-07 1.55265e-07 0)
(3.14728e-07 1.5792e-07 0)
(3.0523e-07 1.60593e-07 0)
(2.98746e-07 1.63316e-07 0)
(2.94453e-07 1.65946e-07 0)
(2.91731e-07 1.68581e-07 0)
(2.85388e-07 1.66953e-07 0)
(3.98186e-07 1.31646e-07 -2.05241e-23)
(3.44993e-07 1.25078e-07 0)
(3.08925e-07 1.2058e-07 0)
(2.83667e-07 1.18819e-07 0)
(2.66086e-07 1.18208e-07 0)
(2.53868e-07 1.18642e-07 0)
(2.45421e-07 1.19558e-07 0)
(2.39673e-07 1.20828e-07 0)
(2.35857e-07 1.22193e-07 0)
(2.33389e-07 1.23664e-07 0)
(2.28294e-07 1.21953e-07 0)
(3.23956e-07 1.15949e-07 5.47589e-24)
(2.75891e-07 1.01761e-07 0)
(2.43782e-07 9.21834e-08 0)
(2.21749e-07 8.70201e-08 0)
(2.0673e-07 8.40429e-08 0)
(1.96468e-07 8.27915e-08 0)
(1.89463e-07 8.24236e-08 0)
(1.84731e-07 8.26603e-08 0)
(1.81593e-07 8.31395e-08 0)
(1.7953e-07 8.37899e-08 0)
(1.75635e-07 8.22602e-08 0)
(2.48814e-07 1.00156e-07 4.12787e-23)
(2.06809e-07 7.94239e-08 0)
(1.79904e-07 6.57954e-08 0)
(1.62135e-07 5.82611e-08 0)
(1.50416e-07 5.37963e-08 0)
(1.42599e-07 5.15823e-08 0)
(1.37353e-07 5.05175e-08 0)
(1.33842e-07 5.02003e-08 0)
(1.31516e-07 5.02017e-08 0)
(1.2996e-07 5.03918e-08 0)
(1.27179e-07 4.92589e-08 0)
(1.7318e-07 8.28635e-08 2.65145e-23)
(1.37425e-07 5.7253e-08 0)
(1.17291e-07 4.14171e-08 0)
(1.04878e-07 3.32086e-08 0)
(9.71015e-08 2.85409e-08 0)
(9.2091e-08 2.62732e-08 0)
(8.87877e-08 2.51578e-08 0)
(8.65948e-08 2.47554e-08 0)
(8.51329e-08 2.46445e-08 0)
(8.41255e-08 2.46848e-08 0)
(8.23535e-08 2.40618e-08 0)
(1.01799e-07 6.10127e-08 8.862e-24)
(6.83189e-08 3.37139e-08 0)
(5.68721e-08 1.96997e-08 0)
(5.0753e-08 1.34091e-08 0)
(4.71603e-08 1.01901e-08 0)
(4.49164e-08 8.78586e-09 0)
(4.34411e-08 8.16256e-09 0)
(4.24573e-08 7.98785e-09 0)
(4.17852e-08 7.97354e-09 0)
(4.12993e-08 8.02965e-09 0)
(4.04272e-08 7.84709e-09 0)
(3.42385e-08 2.42486e-08 4.31353e-24)
(0 0 0)
(0 0 0)
(0 0 0)
(0 0 0)
(0 0 0)
(0 0 0)
(0 0 0)
(0 0 0)
(0 0 0)
(0 0 0)
(7.41108e-07 2.17056e-07 -4.2419e-24)
(6.86842e-07 2.5136e-07 0)
(6.48915e-07 2.75814e-07 0)
(6.21332e-07 2.9567e-07 0)
(6.01482e-07 3.11943e-07 0)
(5.87406e-07 3.25954e-07 0)
(5.77694e-07 3.38276e-07 0)
(5.71356e-07 3.49413e-07 0)
(5.67628e-07 3.59669e-07 0)
(5.65948e-07 3.69247e-07 0)
(5.66293e-07 3.79645e-07 0)
(6.77187e-07 1.99127e-07 -2.87544e-23)
(6.19743e-07 2.2617e-07 0)
(5.79932e-07 2.45209e-07 0)
(5.51152e-07 2.60805e-07 0)
(5.30496e-07 2.73559e-07 0)
(5.15824e-07 2.84588e-07 0)
(5.0561e-07 2.94297e-07 0)
(4.98803e-07 3.03108e-07 0)
(4.94574e-07 3.11225e-07 0)
(4.92343e-07 3.18891e-07 0)
(4.82527e-07 3.19265e-07 0)
(6.10668e-07 1.81499e-07 -2.4852e-23)
(5.5166e-07 2.00454e-07 0)
(5.11023e-07 2.13662e-07 0)
(4.81813e-07 2.24801e-07 0)
(4.60928e-07 2.33978e-07 0)
(4.46103e-07 2.42052e-07 0)
(4.35735e-07 2.49218e-07 0)
(4.28722e-07 2.55788e-07 0)
(4.2421e-07 2.61854e-07 0)
(4.21577e-07 2.67647e-07 0)
(4.12782e-07 2.67047e-07 0)
(5.41816e-07 1.6433e-07 -1.08203e-23)
(4.82996e-07 1.74726e-07 0)
(4.42679e-07 1.81903e-07 0)
(4.13878e-07 1.88539e-07 0)
(3.934e-07 1.94201e-07 0)
(3.78912e-07 1.99448e-07 0)
(3.68775e-07 2.0424e-07 0)
(3.61866e-07 2.08759e-07 0)
(3.57332e-07 2.12978e-07 0)
(3.54544e-07 2.17073e-07 0)
(3.46947e-07 2.15813e-07 0)
(4.7088e-07 1.47714e-07 -1.75035e-23)
(4.14034e-07 1.49472e-07 0)
(3.7524e-07 1.50659e-07 0)
(3.47742e-07 1.52923e-07 0)
(3.28352e-07 1.55265e-07 0)
(3.14728e-07 1.5792e-07 0)
(3.0523e-07 1.60593e-07 0)
(2.98746e-07 1.63316e-07 0)
(2.94453e-07 1.65946e-07 0)
(2.91731e-07 1.68581e-07 0)
(2.85388e-07 1.66953e-07 0)
(3.98186e-07 1.31646e-07 -2.05241e-23)
(3.44993e-07 1.25078e-07 0)
(3.08925e-07 1.2058e-07 0)
(2.83667e-07 1.18819e-07 0)
(2.66086e-07 1.18208e-07 0)
(2.53868e-07 1.18642e-07 0)
(2.45421e-07 1.19558e-07 0)
(2.39673e-07 1.20828e-07 0)
(2.35857e-07 1.22193e-07 0)
(2.33389e-07 1.23664e-07 0)
(2.28294e-07 1.21953e-07 0)
(3.23956e-07 1.15949e-07 5.47589e-24)
(2.75891e-07 1.01761e-07 0)
(2.43782e-07 9.21834e-08 0)
(2.21749e-07 8.70201e-08 0)
(2.0673e-07 8.40429e-08 0)
(1.96468e-07 8.27915e-08 0)
(1.89463e-07 8.24236e-08 0)
(1.84731e-07 8.26603e-08 0)
(1.81593e-07 8.31395e-08 0)
(1.7953e-07 8.37899e-08 0)
(1.75635e-07 8.22602e-08 0)
(2.48814e-07 1.00156e-07 4.12787e-23)
(2.06809e-07 7.94239e-08 0)
(1.79904e-07 6.57954e-08 0)
(1.62135e-07 5.82611e-08 0)
(1.50416e-07 5.37963e-08 0)
(1.42599e-07 5.15823e-08 0)
(1.37353e-07 5.05175e-08 0)
(1.33842e-07 5.02003e-08 0)
(1.31516e-07 5.02017e-08 0)
(1.2996e-07 5.03918e-08 0)
(1.27179e-07 4.92589e-08 0)
(1.7318e-07 8.28635e-08 2.65145e-23)
(1.37425e-07 5.7253e-08 0)
(1.17291e-07 4.14171e-08 0)
(1.04878e-07 3.32086e-08 0)
(9.71015e-08 2.85409e-08 0)
(9.2091e-08 2.62732e-08 0)
(8.87877e-08 2.51578e-08 0)
(8.65948e-08 2.47554e-08 0)
(8.51329e-08 2.46445e-08 0)
(8.41255e-08 2.46848e-08 0)
(8.23535e-08 2.40618e-08 0)
(1.01799e-07 6.10127e-08 8.862e-24)
(6.83189e-08 3.37139e-08 0)
(5.68721e-08 1.96997e-08 0)
(5.0753e-08 1.34091e-08 0)
(4.71603e-08 1.01901e-08 0)
(4.49164e-08 8.78586e-09 0)
(4.34411e-08 8.16256e-09 0)
(4.24573e-08 7.98785e-09 0)
(4.17852e-08 7.97354e-09 0)
(4.12993e-08 8.02965e-09 0)
(4.04272e-08 7.84709e-09 0)
(3.42385e-08 2.42486e-08 4.31353e-24)
(0 0 0)
(0 0 0)
(0 0 0)
(0 0 0)
(0 0 0)
(0 0 0)
(0 0 0)
(0 0 0)
(0 0 0)
(0 0 0)
(1.20237e-06 3.56396e-07 -9.33443e-25)
(1.21094e-06 3.90894e-07 2.58423e-23)
(1.20988e-06 4.35256e-07 5.02269e-24)
(1.20915e-06 4.76422e-07 -6.09679e-24)
(1.20985e-06 5.14314e-07 -1.09229e-23)
(1.21237e-06 5.49314e-07 -1.23807e-23)
(1.21687e-06 5.81874e-07 9.33823e-24)
(1.22333e-06 6.12453e-07 1.44213e-23)
(1.23167e-06 6.41435e-07 1.00697e-23)
(1.24172e-06 6.69182e-07 9.57744e-24)
(1.25336e-06 6.9584e-07 1.53373e-23)
(1.17564e-06 3.4303e-07 -3.16975e-23)
(1.17196e-06 3.89345e-07 0)
(1.16888e-06 4.33427e-07 0)
(1.16723e-06 4.73985e-07 0)
(1.16741e-06 5.11028e-07 0)
(1.16957e-06 5.45005e-07 0)
(1.17368e-06 5.76416e-07 0)
(1.17966e-06 6.05763e-07 0)
(1.18738e-06 6.33456e-07 0)
(1.19667e-06 6.59885e-07 0)
(1.20809e-06 6.85374e-07 0)
(1.13925e-06 3.37369e-07 -2.47611e-23)
(1.1316e-06 3.84702e-07 0)
(1.12538e-06 4.28379e-07 0)
(1.12138e-06 4.68087e-07 0)
(1.11976e-06 5.04044e-07 0)
(1.12049e-06 5.3681e-07 0)
(1.12337e-06 5.66933e-07 0)
(1.12822e-06 5.94943e-07 0)
(1.13482e-06 6.21268e-07 0)
(1.14296e-06 6.46321e-07 0)
(1.15408e-06 6.70692e-07 0)
(1.1007e-06 3.28206e-07 1.04053e-23)
(1.08824e-06 3.7709e-07 0)
(1.07826e-06 4.20208e-07 0)
(1.07128e-06 4.5875e-07 0)
(1.06728e-06 4.93272e-07 0)
(1.06604e-06 5.24519e-07 0)
(1.06724e-06 5.53098e-07 0)
(1.07056e-06 5.79567e-07 0)
(1.07575e-06 6.04365e-07 0)
(1.0825e-06 6.27912e-07 0)
(1.0933e-06 6.51197e-07 0)
(1.05929e-06 3.16384e-07 -2.05716e-24)
(1.04121e-06 3.66619e-07 0)
(1.02706e-06 4.08932e-07 0)
(1.01676e-06 4.46021e-07 0)
(1.01008e-06 4.78803e-07 0)
(1.00661e-06 5.08242e-07 0)
(1.00589e-06 5.35021e-07 0)
(1.0075e-06 5.59725e-07 0)
(1.01111e-06 5.82804e-07 0)
(1.01635e-06 6.04678e-07 0)
(1.02686e-06 6.26877e-07 0)
(1.01464e-06 3.02472e-07 -5.36804e-23)
(9.9028e-07 3.53338e-07 0)
(9.717e-07 3.94417e-07 0)
(9.57963e-07 4.29703e-07 0)
(9.48539e-07 4.60432e-07 0)
(9.42788e-07 4.87789e-07 0)
(9.4011e-07 5.12522e-07 0)
(9.3998e-07 5.3525e-07 0)
(9.42001e-07 5.56427e-07 0)
(9.45716e-07 5.76466e-07 0)
(9.56028e-07 5.97594e-07 0)
(9.66578e-07 2.86988e-07 -3.16057e-23)
(9.35564e-07 3.37372e-07 0)
(9.1247e-07 3.76626e-07 0)
(8.95334e-07 4.09713e-07 0)
(8.83247e-07 4.38093e-07 0)
(8.75308e-07 4.63126e-07 0)
(8.70758e-07 4.85612e-07 0)
(8.68969e-07 5.06187e-07 0)
(8.69473e-07 5.25309e-07 0)
(8.7175e-07 5.43373e-07 0)
(8.81969e-07 5.63453e-07 0)
(9.15095e-07 2.70349e-07 3.96838e-23)
(8.77383e-07 3.18892e-07 0)
(8.49884e-07 3.55603e-07 0)
(8.2953e-07 3.86049e-07 0)
(8.14976e-07 4.11786e-07 0)
(8.05042e-07 4.34285e-07 0)
(7.98798e-07 4.5436e-07 0)
(7.95513e-07 4.72647e-07 0)
(7.94647e-07 4.89598e-07 0)
(7.95631e-07 5.0558e-07 0)
(8.05871e-07 5.24649e-07 0)
(8.60258e-07 2.52936e-07 7.43102e-23)
(8.16188e-07 2.9816e-07 0)
(7.84606e-07 3.31546e-07 0)
(7.61352e-07 3.58892e-07 0)
(7.44626e-07 3.81708e-07 0)
(7.32964e-07 4.01498e-07 0)
(7.25265e-07 4.19041e-07 0)
(7.20698e-07 4.34956e-07 0)
(7.18652e-07 4.49663e-07 0)
(7.18527e-07 4.63493e-07 0)
(7.28897e-07 4.81577e-07 0)
(8.02203e-07 2.35075e-07 3.52081e-23)
(7.52496e-07 2.75512e-07 0)
(7.1737e-07 3.0479e-07 0)
(6.91664e-07 3.28589e-07 0)
(6.73146e-07 3.48236e-07 0)
(6.60084e-07 3.65179e-07 0)
(6.51214e-07 3.80121e-07 0)
(6.45617e-07 3.93628e-07 0)
(6.42608e-07 4.06076e-07 0)
(6.41597e-07 4.17708e-07 0)
(6.52148e-07 4.34799e-07 0)
(1.20237e-06 3.56396e-07 -9.33443e-25)
(1.21094e-06 3.90894e-07 2.58423e-23)
(1.20988e-06 4.35256e-07 5.02269e-24)
(1.20915e-06 4.76422e-07 -6.09679e-24)
(1.20985e-06 5.14314e-07 -1.09229e-23)
(1.21237e-06 5.49314e-07 -1.23807e-23)
(1.21687e-06 5.81874e-07 9.33823e-24)
(1.22333e-06 6.12453e-07 1.44213e-23)
(1.23167e-06 6.41435e-07 1.00697e-23)
(1.24172e-06 6.69182e-07 9.57744e-24)
(1.25336e-06 6.9584e-07 1.53373e-23)
(1.17564e-06 3.4303e-07 -3.16975e-23)
(1.17196e-06 3.89345e-07 0)
(1.16888e-06 4.33427e-07 0)
(1.16723e-06 4.73985e-07 0)
(1.16741e-06 5.11028e-07 0)
(1.16957e-06 5.45005e-07 0)
(1.17368e-06 5.76416e-07 0)
(1.17966e-06 6.05763e-07 0)
(1.18738e-06 6.33456e-07 0)
(1.19667e-06 6.59885e-07 0)
(1.20809e-06 6.85374e-07 0)
(1.13925e-06 3.37369e-07 -2.47611e-23)
(1.1316e-06 3.84702e-07 0)
(1.12538e-06 4.28379e-07 0)
(1.12138e-06 4.68087e-07 0)
(1.11976e-06 5.04044e-07 0)
(1.12049e-06 5.3681e-07 0)
(1.12337e-06 5.66933e-07 0)
(1.12822e-06 5.94943e-07 0)
(1.13482e-06 6.21268e-07 0)
(1.14296e-06 6.46321e-07 0)
(1.15408e-06 6.70692e-07 0)
(1.1007e-06 3.28206e-07 1.04053e-23)
(1.08824e-06 3.7709e-07 0)
(1.07826e-06 4.20208e-07 0)
(1.07128e-06 4.5875e-07 0)
(1.06728e-06 4.93272e-07 0)
(1.06604e-06 5.24519e-07 0)
(1.06724e-06 5.53098e-07 0)
(1.07056e-06 5.79567e-07 0)
(1.07575e-06 6.04365e-07 0)
(1.0825e-06 6.27912e-07 0)
(1.0933e-06 6.51197e-07 0)
(1.05929e-06 3.16384e-07 -2.05716e-24)
(1.04121e-06 3.66619e-07 0)
(1.02706e-06 4.08932e-07 0)
(1.01676e-06 4.46021e-07 0)
(1.01008e-06 4.78803e-07 0)
(1.00661e-06 5.08242e-07 0)
(1.00589e-06 5.35021e-07 0)
(1.0075e-06 5.59725e-07 0)
(1.01111e-06 5.82804e-07 0)
(1.01635e-06 6.04678e-07 0)
(1.02686e-06 6.26877e-07 0)
(1.01464e-06 3.02472e-07 -5.36804e-23)
(9.9028e-07 3.53338e-07 0)
(9.717e-07 3.94417e-07 0)
(9.57963e-07 4.29703e-07 0)
(9.48539e-07 4.60432e-07 0)
(9.42788e-07 4.87789e-07 0)
(9.4011e-07 5.12522e-07 0)
(9.3998e-07 5.3525e-07 0)
(9.42001e-07 5.56427e-07 0)
(9.45716e-07 5.76466e-07 0)
(9.56028e-07 5.97594e-07 0)
(9.66578e-07 2.86988e-07 -3.16057e-23)
(9.35564e-07 3.37372e-07 0)
(9.1247e-07 3.76626e-07 0)
(8.95334e-07 4.09713e-07 0)
(8.83247e-07 4.38093e-07 0)
(8.75308e-07 4.63126e-07 0)
(8.70758e-07 4.85612e-07 0)
(8.68969e-07 5.06187e-07 0)
(8.69473e-07 5.25309e-07 0)
(8.7175e-07 5.43373e-07 0)
(8.81969e-07 5.63453e-07 0)
(9.15095e-07 2.70349e-07 3.96838e-23)
(8.77383e-07 3.18892e-07 0)
(8.49884e-07 3.55603e-07 0)
(8.2953e-07 3.86049e-07 0)
(8.14976e-07 4.11786e-07 0)
(8.05042e-07 4.34285e-07 0)
(7.98798e-07 4.5436e-07 0)
(7.95513e-07 4.72647e-07 0)
(7.94647e-07 4.89598e-07 0)
(7.95631e-07 5.0558e-07 0)
(8.05871e-07 5.24649e-07 0)
(8.60258e-07 2.52936e-07 7.43102e-23)
(8.16188e-07 2.9816e-07 0)
(7.84606e-07 3.31546e-07 0)
(7.61352e-07 3.58892e-07 0)
(7.44626e-07 3.81708e-07 0)
(7.32964e-07 4.01498e-07 0)
(7.25265e-07 4.19041e-07 0)
(7.20698e-07 4.34956e-07 0)
(7.18652e-07 4.49663e-07 0)
(7.18527e-07 4.63493e-07 0)
(7.28897e-07 4.81577e-07 0)
(8.02203e-07 2.35075e-07 3.52081e-23)
(7.52496e-07 2.75512e-07 0)
(7.1737e-07 3.0479e-07 0)
(6.91664e-07 3.28589e-07 0)
(6.73146e-07 3.48236e-07 0)
(6.60084e-07 3.65179e-07 0)
(6.51214e-07 3.80121e-07 0)
(6.45617e-07 3.93628e-07 0)
(6.42608e-07 4.06076e-07 0)
(6.41597e-07 4.17708e-07 0)
(6.52148e-07 4.34799e-07 0)
(1.2666e-06 7.21743e-07 1.45123e-23)
(1.28121e-06 7.47237e-07 -1.24612e-23)
(1.29696e-06 7.72347e-07 -2.00165e-23)
(1.31374e-06 7.97195e-07 -9.06529e-24)
(1.33145e-06 8.21882e-07 -3.81804e-24)
(1.34997e-06 8.46489e-07 0)
(1.36923e-06 8.71089e-07 5.12402e-24)
(1.38913e-06 8.95739e-07 6.49678e-24)
(1.40961e-06 9.20489e-07 1.16342e-23)
(1.4306e-06 9.45382e-07 1.44631e-23)
(1.45203e-06 9.70453e-07 2.79232e-24)
(1.47385e-06 9.95732e-07 2.83512e-24)
(1.49599e-06 1.02124e-06 -1.14015e-23)
(1.51841e-06 1.04701e-06 -1.1818e-23)
(1.54104e-06 1.07303e-06 3.828e-24)
(1.56383e-06 1.09932e-06 -5.29726e-24)
(1.58671e-06 1.12586e-06 1.80608e-26)
(1.60963e-06 1.15263e-06 -1.19101e-24)
(1.6325e-06 1.17955e-06 -2.51253e-23)
(1.64007e-06 1.19631e-06 -3.8926e-24)
(1.22222e-06 7.10496e-07 0)
(1.23807e-06 7.35448e-07 0)
(1.25485e-06 7.60069e-07 0)
(1.27247e-06 7.84488e-07 0)
(1.29084e-06 8.08803e-07 0)
(1.30989e-06 8.33091e-07 0)
(1.32957e-06 8.57421e-07 0)
(1.34979e-06 8.81847e-07 0)
(1.37051e-06 9.06415e-07 0)
(1.39167e-06 9.31167e-07 0)
(1.41321e-06 9.56134e-07 0)
(1.4351e-06 9.81344e-07 0)
(1.45729e-06 1.00682e-06 0)
(1.47973e-06 1.03258e-06 0)
(1.50237e-06 1.05864e-06 0)
(1.52518e-06 1.08499e-06 0)
(1.54812e-06 1.11163e-06 0)
(1.57113e-06 1.13852e-06 0)
(1.59419e-06 1.1656e-06 0)
(1.61715e-06 1.19273e-06 1.64192e-23)
(1.16957e-06 6.95303e-07 0)
(1.18735e-06 7.20074e-07 0)
(1.2058e-06 7.44533e-07 0)
(1.22485e-06 7.68817e-07 0)
(1.24446e-06 7.93028e-07 0)
(1.26458e-06 8.1724e-07 0)
(1.28517e-06 8.41525e-07 0)
(1.30618e-06 8.65935e-07 0)
(1.32758e-06 8.90516e-07 0)
(1.34934e-06 9.15308e-07 0)
(1.37141e-06 9.40344e-07 0)
(1.39376e-06 9.65651e-07 0)
(1.41636e-06 9.91253e-07 0)
(1.43919e-06 1.01717e-06 0)
(1.46221e-06 1.0434e-06 0)
(1.48539e-06 1.06997e-06 0)
(1.5087e-06 1.09686e-06 0)
(1.53211e-06 1.12404e-06 0)
(1.55557e-06 1.15147e-06 0)
(1.57885e-06 1.17902e-06 1.60449e-24)
(1.11049e-06 6.75603e-07 0)
(1.13067e-06 7.00605e-07 0)
(1.15125e-06 7.25287e-07 0)
(1.17218e-06 7.49785e-07 0)
(1.19345e-06 7.7421e-07 0)
(1.21504e-06 7.98637e-07 0)
(1.23692e-06 8.23141e-07 0)
(1.25909e-06 8.47777e-07 0)
(1.28152e-06 8.72595e-07 0)
(1.3042e-06 8.97635e-07 0)
(1.3271e-06 9.22931e-07 0)
(1.35022e-06 9.48514e-07 0)
(1.37352e-06 9.74408e-07 0)
(1.39701e-06 1.00063e-06 0)
(1.42065e-06 1.02721e-06 0)
(1.44444e-06 1.05414e-06 0)
(1.46835e-06 1.08143e-06 0)
(1.49235e-06 1.10908e-06 0)
(1.51639e-06 1.13707e-06 0)
(1.54016e-06 1.16529e-06 1.54428e-23)
(1.04603e-06 6.51362e-07 0)
(1.06899e-06 6.76982e-07 0)
(1.09208e-06 7.02257e-07 0)
(1.11525e-06 7.27305e-07 0)
(1.13853e-06 7.52255e-07 0)
(1.16191e-06 7.77181e-07 0)
(1.18542e-06 8.02168e-07 0)
(1.20904e-06 8.27273e-07 0)
(1.23279e-06 8.52551e-07 0)
(1.25666e-06 8.78046e-07 0)
(1.28066e-06 9.03797e-07 0)
(1.30477e-06 9.29837e-07 0)
(1.32901e-06 9.56195e-07 0)
(1.35337e-06 9.82897e-07 0)
(1.37784e-06 1.00996e-06 0)
(1.40242e-06 1.03742e-06 0)
(1.42709e-06 1.06527e-06 0)
(1.45183e-06 1.09354e-06 0)
(1.47661e-06 1.12225e-06 0)
(1.50103e-06 1.15131e-06 8.506e-24)
(9.77401e-07 6.22454e-07 0)
(1.00343e-06 6.49091e-07 0)
(1.0293e-06 6.75337e-07 0)
(1.05498e-06 7.01282e-07 0)
(1.08053e-06 7.27079e-07 0)
(1.10597e-06 7.528e-07 0)
(1.13133e-06 7.78542e-07 0)
(1.15665e-06 8.04367e-07 0)
(1.18193e-06 8.30339e-07 0)
(1.20721e-06 8.56505e-07 0)
(1.23249e-06 8.82912e-07 0)
(1.2578e-06 9.09597e-07 0)
(1.28315e-06 9.36594e-07 0)
(1.30854e-06 9.63936e-07 0)
(1.33399e-06 9.91652e-07 0)
(1.35949e-06 1.01977e-06 0)
(1.38505e-06 1.04833e-06 0)
(1.41066e-06 1.07737e-06 0)
(1.43629e-06 1.10692e-06 0)
(1.46151e-06 1.13696e-06 -1.30328e-23)
(9.05699e-07 5.8898e-07 0)
(9.34979e-07 6.17018e-07 0)
(9.63836e-07 6.44602e-07 0)
(9.92206e-07 6.71778e-07 0)
(1.02022e-06 6.98732e-07 0)
(1.0479e-06 7.25536e-07 0)
(1.07531e-06 7.52298e-07 0)
(1.10249e-06 7.7909e-07 0)
(1.12948e-06 8.05984e-07 0)
(1.15632e-06 8.33036e-07 0)
(1.18304e-06 8.60297e-07 0)
(1.20968e-06 8.87812e-07 0)
(1.23627e-06 9.15622e-07 0)
(1.26281e-06 9.43767e-07 0)
(1.28934e-06 9.72284e-07 0)
(1.31588e-06 1.00122e-06 0)
(1.34243e-06 1.03061e-06 0)
(1.36899e-06 1.06052e-06 0)
(1.39556e-06 1.09102e-06 0)
(1.42171e-06 1.1221e-06 -9.26338e-24)
(8.32028e-07 5.5113e-07 0)
(8.6464e-07 5.80924e-07 0)
(8.96581e-07 6.10186e-07 0)
(9.27758e-07 6.38915e-07 0)
(9.58357e-07 6.67322e-07 0)
(9.88396e-07 6.95487e-07 0)
(1.01797e-06 7.23529e-07 0)
(1.04714e-06 7.5153e-07 0)
(1.07595e-06 7.7957e-07 0)
(1.10447e-06 8.07716e-07 0)
(1.13275e-06 8.36025e-07 0)
(1.16082e-06 8.64552e-07 0)
(1.18873e-06 8.93344e-07 0)
(1.21651e-06 9.22447e-07 0)
(1.24421e-06 9.51907e-07 0)
(1.27184e-06 9.81776e-07 0)
(1.29944e-06 1.01211e-06 0)
(1.32702e-06 1.043e-06 0)
(1.3546e-06 1.0745e-06 0)
(1.38178e-06 1.10667e-06 -1.30555e-23)
(7.57468e-07 5.09258e-07 0)
(7.93379e-07 5.41127e-07 0)
(8.28413e-07 5.72359e-07 0)
(8.62434e-07 6.02928e-07 0)
(8.9566e-07 6.33047e-07 0)
(9.28121e-07 6.62822e-07 0)
(9.59931e-07 6.92376e-07 0)
(9.91153e-07 7.21808e-07 0)
(1.02187e-06 7.51205e-07 0)
(1.05214e-06 7.80643e-07 0)
(1.08203e-06 8.10189e-07 0)
(1.11159e-06 8.39904e-07 0)
(1.14089e-06 8.6984e-07 0)
(1.16997e-06 9.00051e-07 0)
(1.19888e-06 9.30591e-07 0)
(1.22766e-06 9.61517e-07 0)
(1.25634e-06 9.92897e-07 0)
(1.28498e-06 1.02482e-06 0)
(1.31359e-06 1.05738e-06 0)
(1.34189e-06 1.09066e-06 2.06174e-25)
(6.82992e-07 4.63871e-07 0)
(7.22032e-07 4.98046e-07 0)
(7.6004e-07 5.31454e-07 0)
(7.96875e-07 5.64114e-07 0)
(8.32723e-07 5.96184e-07 0)
(8.67633e-07 6.27797e-07 0)
(9.01709e-07 6.59079e-07 0)
(9.35031e-07 6.90142e-07 0)
(9.67684e-07 7.21086e-07 0)
(9.99746e-07 7.51996e-07 0)
(1.03129e-06 7.82948e-07 0)
(1.06239e-06 8.14008e-07 0)
(1.09311e-06 8.45238e-07 0)
(1.12351e-06 8.76695e-07 0)
(1.15365e-06 9.08437e-07 0)
(1.18358e-06 9.40526e-07 0)
(1.21337e-06 9.73035e-07 0)
(1.24307e-06 1.00606e-06 0)
(1.27274e-06 1.0397e-06 0)
(1.30223e-06 1.07408e-06 1.7013e-23)
(6.16882e-07 4.22576e-07 0)
(6.58252e-07 4.58732e-07 0)
(6.98483e-07 4.93918e-07 0)
(7.37499e-07 5.28347e-07 0)
(7.75415e-07 5.62114e-07 0)
(8.12287e-07 5.95355e-07 0)
(8.48203e-07 6.28188e-07 0)
(8.83242e-07 6.60727e-07 0)
(9.17489e-07 6.93074e-07 0)
(9.51026e-07 7.25317e-07 0)
(9.83933e-07 7.57537e-07 0)
(1.01629e-06 7.89803e-07 0)
(1.04816e-06 8.22178e-07 0)
(1.07963e-06 8.54721e-07 0)
(1.11077e-06 8.87489e-07 0)
(1.14163e-06 9.20545e-07 0)
(1.17229e-06 9.53958e-07 0)
(1.20282e-06 9.87822e-07 0)
(1.23332e-06 1.02223e-06 0)
(1.26377e-06 1.05735e-06 7.03555e-24)
(1.2666e-06 7.21743e-07 1.45123e-23)
(1.28121e-06 7.47237e-07 -1.24612e-23)
(1.29696e-06 7.72347e-07 -2.00165e-23)
(1.31374e-06 7.97195e-07 -9.06529e-24)
(1.33145e-06 8.21882e-07 -3.81804e-24)
(1.34997e-06 8.46489e-07 0)
(1.36923e-06 8.71089e-07 5.12402e-24)
(1.38913e-06 8.95739e-07 6.49678e-24)
(1.40961e-06 9.20489e-07 1.16342e-23)
(1.4306e-06 9.45382e-07 1.44631e-23)
(1.45203e-06 9.70453e-07 2.79232e-24)
(1.47385e-06 9.95732e-07 2.83512e-24)
(1.49599e-06 1.02124e-06 -1.14015e-23)
(1.51841e-06 1.04701e-06 -1.1818e-23)
(1.54104e-06 1.07303e-06 3.828e-24)
(1.56383e-06 1.09932e-06 -5.29726e-24)
(1.58671e-06 1.12586e-06 1.80608e-26)
(1.60963e-06 1.15263e-06 -1.19101e-24)
(1.6325e-06 1.17955e-06 -2.51253e-23)
(1.64007e-06 1.19631e-06 -3.8926e-24)
(1.22222e-06 7.10496e-07 0)
(1.23807e-06 7.35448e-07 0)
(1.25485e-06 7.60069e-07 0)
(1.27247e-06 7.84488e-07 0)
(1.29084e-06 8.08803e-07 0)
(1.30989e-06 8.33091e-07 0)
(1.32957e-06 8.57421e-07 0)
(1.34979e-06 8.81847e-07 0)
(1.37051e-06 9.06415e-07 0)
(1.39167e-06 9.31167e-07 0)
(1.41321e-06 9.56134e-07 0)
(1.4351e-06 9.81344e-07 0)
(1.45729e-06 1.00682e-06 0)
(1.47973e-06 1.03258e-06 0)
(1.50237e-06 1.05864e-06 0)
(1.52518e-06 1.08499e-06 0)
(1.54812e-06 1.11163e-06 0)
(1.57113e-06 1.13852e-06 0)
(1.59419e-06 1.1656e-06 0)
(1.61715e-06 1.19273e-06 1.64192e-23)
(1.16957e-06 6.95303e-07 0)
(1.18735e-06 7.20074e-07 0)
(1.2058e-06 7.44533e-07 0)
(1.22485e-06 7.68817e-07 0)
(1.24446e-06 7.93028e-07 0)
(1.26458e-06 8.1724e-07 0)
(1.28517e-06 8.41525e-07 0)
(1.30618e-06 8.65935e-07 0)
(1.32758e-06 8.90516e-07 0)
(1.34934e-06 9.15308e-07 0)
(1.37141e-06 9.40344e-07 0)
(1.39376e-06 9.65651e-07 0)
(1.41636e-06 9.91253e-07 0)
(1.43919e-06 1.01717e-06 0)
(1.46221e-06 1.0434e-06 0)
(1.48539e-06 1.06997e-06 0)
(1.5087e-06 1.09686e-06 0)
(1.53211e-06 1.12404e-06 0)
(1.55557e-06 1.15147e-06 0)
(1.57885e-06 1.17902e-06 1.60449e-24)
(1.11049e-06 6.75603e-07 0)
(1.13067e-06 7.00605e-07 0)
(1.15125e-06 7.25287e-07 0)
(1.17218e-06 7.49785e-07 0)
(1.19345e-06 7.7421e-07 0)
(1.21504e-06 7.98637e-07 0)
(1.23692e-06 8.23141e-07 0)
(1.25909e-06 8.47777e-07 0)
(1.28152e-06 8.72595e-07 0)
(1.3042e-06 8.97635e-07 0)
(1.3271e-06 9.22931e-07 0)
(1.35022e-06 9.48514e-07 0)
(1.37352e-06 9.74408e-07 0)
(1.39701e-06 1.00063e-06 0)
(1.42065e-06 1.02721e-06 0)
(1.44444e-06 1.05414e-06 0)
(1.46835e-06 1.08143e-06 0)
(1.49235e-06 1.10908e-06 0)
(1.51639e-06 1.13707e-06 0)
(1.54016e-06 1.16529e-06 1.54428e-23)
(1.04603e-06 6.51362e-07 0)
(1.06899e-06 6.76982e-07 0)
(1.09208e-06 7.02257e-07 0)
(1.11525e-06 7.27305e-07 0)
(1.13853e-06 7.52255e-07 0)
(1.16191e-06 7.77181e-07 0)
(1.18542e-06 8.02168e-07 0)
(1.20904e-06 8.27273e-07 0)
(1.23279e-06 8.52551e-07 0)
(1.25666e-06 8.78046e-07 0)
(1.28066e-06 9.03797e-07 0)
(1.30477e-06 9.29837e-07 0)
(1.32901e-06 9.56195e-07 0)
(1.35337e-06 9.82897e-07 0)
(1.37784e-06 1.00996e-06 0)
(1.40242e-06 1.03742e-06 0)
(1.42709e-06 1.06527e-06 0)
(1.45183e-06 1.09354e-06 0)
(1.47661e-06 1.12225e-06 0)
(1.50103e-06 1.15131e-06 8.506e-24)
(9.77401e-07 6.22454e-07 0)
(1.00343e-06 6.49091e-07 0)
(1.0293e-06 6.75337e-07 0)
(1.05498e-06 7.01282e-07 0)
(1.08053e-06 7.27079e-07 0)
(1.10597e-06 7.528e-07 0)
(1.13133e-06 7.78542e-07 0)
(1.15665e-06 8.04367e-07 0)
(1.18193e-06 8.30339e-07 0)
(1.20721e-06 8.56505e-07 0)
(1.23249e-06 8.82912e-07 0)
(1.2578e-06 9.09597e-07 0)
(1.28315e-06 9.36594e-07 0)
(1.30854e-06 9.63936e-07 0)
(1.33399e-06 9.91652e-07 0)
(1.35949e-06 1.01977e-06 0)
(1.38505e-06 1.04833e-06 0)
(1.41066e-06 1.07737e-06 0)
(1.43629e-06 1.10692e-06 0)
(1.46151e-06 1.13696e-06 -1.30328e-23)
(9.05699e-07 5.8898e-07 0)
(9.34979e-07 6.17018e-07 0)
(9.63836e-07 6.44602e-07 0)
(9.92206e-07 6.71778e-07 0)
(1.02022e-06 6.98732e-07 0)
(1.0479e-06 7.25536e-07 0)
(1.07531e-06 7.52298e-07 0)
(1.10249e-06 7.7909e-07 0)
(1.12948e-06 8.05984e-07 0)
(1.15632e-06 8.33036e-07 0)
(1.18304e-06 8.60297e-07 0)
(1.20968e-06 8.87812e-07 0)
(1.23627e-06 9.15622e-07 0)
(1.26281e-06 9.43767e-07 0)
(1.28934e-06 9.72284e-07 0)
(1.31588e-06 1.00122e-06 0)
(1.34243e-06 1.03061e-06 0)
(1.36899e-06 1.06052e-06 0)
(1.39556e-06 1.09102e-06 0)
(1.42171e-06 1.1221e-06 -9.26338e-24)
(8.32028e-07 5.5113e-07 0)
(8.6464e-07 5.80924e-07 0)
(8.96581e-07 6.10186e-07 0)
(9.27758e-07 6.38915e-07 0)
(9.58357e-07 6.67322e-07 0)
(9.88396e-07 6.95487e-07 0)
(1.01797e-06 7.23529e-07 0)
(1.04714e-06 7.5153e-07 0)
(1.07595e-06 7.7957e-07 0)
(1.10447e-06 8.07716e-07 0)
(1.13275e-06 8.36025e-07 0)
(1.16082e-06 8.64552e-07 0)
(1.18873e-06 8.93344e-07 0)
(1.21651e-06 9.22447e-07 0)
(1.24421e-06 9.51907e-07 0)
(1.27184e-06 9.81776e-07 0)
(1.29944e-06 1.01211e-06 0)
(1.32702e-06 1.043e-06 0)
(1.3546e-06 1.0745e-06 0)
(1.38178e-06 1.10667e-06 -1.30555e-23)
(7.57468e-07 5.09258e-07 0)
(7.93379e-07 5.41127e-07 0)
(8.28413e-07 5.72359e-07 0)
(8.62434e-07 6.02928e-07 0)
(8.9566e-07 6.33047e-07 0)
(9.28121e-07 6.62822e-07 0)
(9.59931e-07 6.92376e-07 0)
(9.91153e-07 7.21808e-07 0)
(1.02187e-06 7.51205e-07 0)
(1.05214e-06 7.80643e-07 0)
(1.08203e-06 8.10189e-07 0)
(1.11159e-06 8.39904e-07 0)
(1.14089e-06 8.6984e-07 0)
(1.16997e-06 9.00051e-07 0)
(1.19888e-06 9.30591e-07 0)
(1.22766e-06 9.61517e-07 0)
(1.25634e-06 9.92897e-07 0)
(1.28498e-06 1.02482e-06 0)
(1.31359e-06 1.05738e-06 0)
(1.34189e-06 1.09066e-06 2.06174e-25)
(6.82992e-07 4.63871e-07 0)
(7.22032e-07 4.98046e-07 0)
(7.6004e-07 5.31454e-07 0)
(7.96875e-07 5.64114e-07 0)
(8.32723e-07 5.96184e-07 0)
(8.67633e-07 6.27797e-07 0)
(9.01709e-07 6.59079e-07 0)
(9.35031e-07 6.90142e-07 0)
(9.67684e-07 7.21086e-07 0)
(9.99746e-07 7.51996e-07 0)
(1.03129e-06 7.82948e-07 0)
(1.06239e-06 8.14008e-07 0)
(1.09311e-06 8.45238e-07 0)
(1.12351e-06 8.76695e-07 0)
(1.15365e-06 9.08437e-07 0)
(1.18358e-06 9.40526e-07 0)
(1.21337e-06 9.73035e-07 0)
(1.24307e-06 1.00606e-06 0)
(1.27274e-06 1.0397e-06 0)
(1.30223e-06 1.07408e-06 1.7013e-23)
(6.16882e-07 4.22576e-07 0)
(6.58252e-07 4.58732e-07 0)
(6.98483e-07 4.93918e-07 0)
(7.37499e-07 5.28347e-07 0)
(7.75415e-07 5.62114e-07 0)
(8.12287e-07 5.95355e-07 0)
(8.48203e-07 6.28188e-07 0)
(8.83242e-07 6.60727e-07 0)
(9.17489e-07 6.93074e-07 0)
(9.51026e-07 7.25317e-07 0)
(9.83933e-07 7.57537e-07 0)
(1.01629e-06 7.89803e-07 0)
(1.04816e-06 8.22178e-07 0)
(1.07963e-06 8.54721e-07 0)
(1.11077e-06 8.87489e-07 0)
(1.14163e-06 9.20545e-07 0)
(1.17229e-06 9.53958e-07 0)
(1.20282e-06 9.87822e-07 0)
(1.23332e-06 1.02223e-06 0)
(1.26377e-06 1.05735e-06 7.03555e-24)
(5.18942e-07 3.53618e-07 0)
(5.68751e-07 3.94245e-07 0)
(6.1092e-07 4.31238e-07 0)
(6.5194e-07 4.67225e-07 0)
(6.91798e-07 5.0252e-07 0)
(7.3056e-07 5.37184e-07 0)
(7.68274e-07 5.71332e-07 0)
(8.0501e-07 6.05065e-07 0)
(8.40836e-07 6.3848e-07 0)
(8.75828e-07 6.71667e-07 0)
(9.10063e-07 7.04706e-07 0)
(9.43616e-07 7.37671e-07 0)
(9.76564e-07 7.70625e-07 0)
(1.00898e-06 8.03626e-07 0)
(1.04094e-06 8.3673e-07 0)
(1.07251e-06 8.69989e-07 0)
(1.10378e-06 9.03458e-07 0)
(1.13481e-06 9.37198e-07 0)
(1.16569e-06 9.71288e-07 0)
(1.19652e-06 1.0058e-06 0)
(1.22739e-06 1.04091e-06 1.16316e-25)
(4.83675e-07 3.32883e-07 0)
(5.3184e-07 3.7299e-07 0)
(5.73715e-07 4.10051e-07 0)
(6.14587e-07 4.46299e-07 0)
(6.5441e-07 4.81966e-07 0)
(6.93227e-07 5.17085e-07 0)
(7.31057e-07 5.51736e-07 0)
(7.67954e-07 5.85997e-07 0)
(8.03968e-07 6.19944e-07 0)
(8.39161e-07 6.53649e-07 0)
(8.73598e-07 6.87179e-07 0)
(9.07347e-07 7.20595e-07 0)
(9.40478e-07 7.53952e-07 0)
(9.73062e-07 7.87299e-07 0)
(1.00517e-06 8.20683e-07 0)
(1.03687e-06 8.54149e-07 0)
(1.06824e-06 8.87741e-07 0)
(1.09937e-06 9.21509e-07 0)
(1.13033e-06 9.5551e-07 0)
(1.16125e-06 9.89798e-07 0)
(1.19221e-06 1.02449e-06 3.72126e-24)
(4.52372e-07 3.12919e-07 0)
(4.98753e-07 3.52476e-07 0)
(5.39893e-07 3.89449e-07 0)
(5.80245e-07 4.2581e-07 0)
(6.1969e-07 4.61728e-07 0)
(6.58255e-07 4.972e-07 0)
(6.95926e-07 5.32274e-07 0)
(7.32737e-07 5.66998e-07 0)
(7.68719e-07 6.01426e-07 0)
(8.03921e-07 6.35612e-07 0)
(8.38393e-07 6.69605e-07 0)
(8.72195e-07 7.03453e-07 0)
(9.05387e-07 7.372e-07 0)
(9.38035e-07 7.70885e-07 0)
(9.70204e-07 8.04544e-07 0)
(1.00197e-06 8.38212e-07 0)
(1.03339e-06 8.7192e-07 0)
(1.06457e-06 9.05704e-07 0)
(1.09558e-06 9.39599e-07 0)
(1.12656e-06 9.73634e-07 0)
(1.15757e-06 1.00787e-06 7.37715e-24)
(4.24457e-07 2.93882e-07 0)
(4.68946e-07 3.32759e-07 0)
(5.09093e-07 3.69504e-07 0)
(5.48652e-07 4.05857e-07 0)
(5.87457e-07 4.41922e-07 0)
(6.2552e-07 4.77657e-07 0)
(6.62799e-07 5.13074e-07 0)
(6.99312e-07 5.48196e-07 0)
(7.3507e-07 5.83051e-07 0)
(7.70107e-07 6.17672e-07 0)
(8.04463e-07 6.52092e-07 0)
(8.38184e-07 6.86344e-07 0)
(8.71324e-07 7.20459e-07 0)
(9.03939e-07 7.54464e-07 0)
(9.36091e-07 7.88385e-07 0)
(9.67846e-07 8.22243e-07 0)
(9.99274e-07 8.56058e-07 0)
(1.03045e-06 8.89847e-07 0)
(1.06148e-06 9.23621e-07 0)
(1.09248e-06 9.57383e-07 0)
(1.12352e-06 9.91145e-07 -3.52976e-24)
(3.99447e-07 2.75833e-07 0)
(4.42003e-07 3.13961e-07 0)
(4.80966e-07 3.50368e-07 0)
(5.19524e-07 3.86602e-07 0)
(5.57484e-07 4.22708e-07 0)
(5.94843e-07 4.58608e-07 0)
(6.31539e-07 4.94284e-07 0)
(6.67573e-07 5.29728e-07 0)
(7.0294e-07 5.64945e-07 0)
(7.37663e-07 5.99946e-07 0)
(7.71767e-07 6.34747e-07 0)
(8.05289e-07 6.69365e-07 0)
(8.38273e-07 7.03817e-07 0)
(8.70767e-07 7.38117e-07 0)
(9.02828e-07 7.72279e-07 0)
(9.34514e-07 8.06312e-07 0)
(9.65891e-07 8.4022e-07 0)
(9.97036e-07 8.74002e-07 0)
(1.02804e-06 9.07643e-07 0)
(1.05902e-06 9.4113e-07 0)
(1.09004e-06 9.74429e-07 -7.18565e-24)
(3.76844e-07 2.58773e-07 0)
(4.17479e-07 2.96095e-07 0)
(4.55138e-07 3.32078e-07 0)
(4.92552e-07 3.68104e-07 0)
(5.29515e-07 4.04161e-07 0)
(5.66015e-07 4.4014e-07 0)
(6.01973e-07 4.75995e-07 0)
(6.37381e-07 5.11689e-07 0)
(6.7222e-07 5.47202e-07 0)
(7.06499e-07 5.82526e-07 0)
(7.40234e-07 6.17658e-07 0)
(7.73452e-07 6.52598e-07 0)
(8.06187e-07 6.87349e-07 0)
(8.38482e-07 7.21913e-07 0)
(8.70383e-07 7.56291e-07 0)