/*--------------------------------*- C++ -*----------------------------------*\
  =========                 |
  \\      /  F ield         | OpenFOAM: The Open Source CFD Toolbox
   \\    /   O peration     | Website:  https://openfoam.org
    \\  /    A nd           | Version:  9
     \\/     M anipulation  |
\*---------------------------------------------------------------------------*/
FoamFile
{
    format      ascii;
    class       volScalarField;
    location    "1";
    object      sigmaHyd;
}
// * * * * * * * * * * * * * * * * * * * * * * * * * * * * * * * * * * * * * //

dimensions      [1 -1 -2 0 0 0 0];

internalField   nonuniform List<scalar> 
1000
(
84251.5
79430.2
77445.6
74217.9
71887.4
69332.7
67163.8
65027.8
63210.3
61073.5
98826.9
91493.9
87949
83261.9
79833.1
76281.9
73288.3
70371.7
67893.4
65002.8
113078
103354
98312.2
92193
87683.3
83146.5
79352.6
75678.4
72598.9
69029.3
126727
114809
108381
100869
95290.7
89773.2
85167.5
80764.7
77064
72973.2
139350
125602
117957
109131
102523
96052.3
90657.7
85557.7
81255.6
76700.5
151087
135826
127139
117009
109364
101936
95754.6
89983.8
85097.5
80137.7
161395
145269
135684
124240
115545
107170
100228
93832.1
88405.5
83098.5
172290
155037
144364
131295
121317
111898
104151
97153.1
91228.6
85636.7
183404
165090
152333
137110
125696
115279
106832
99362.9
93068.4
87293.4
208890
181296
162043
143706
129964
118299
109011
101100
94504.3
88623.7
-388.315
212.664
1843.18
4559.5
7786.67
11206.7
14580.5
17820.7
20788.3
23595.1
293.767
3696.4
7043.3
10209.9
13404.9
16459.9
19340.6
22054.3
24453.7
26847.8
2075.02
7344.02
11732.5
15090.9
18168
20889.9
23360
25647.7
27594.1
29664.2
6025.77
12206
17132.8
20559.3
23491.9
25896.6
27972.3
29845.6
31331.7
33072.3
12155.1
18335.3
23215
26379.7
28984.3
30980.4
32625.3
34073.6
35113.3
36534.4
20485.1
25923.1
30320.1
32947.3
35062.1
36547.7
37699.5
38678.6
39245.3
40316.7
30731.4
34811.1
38347.1
40156.8
41608.8
42462.7
43050.8
43501.6
43576.8
44244.6
42612.9
44864.4
47258.8
48025
48669.2
48784
48735.6
48604.9
48149.6
48363.5
55750.2
55829.4
56875.7
56418.4
56141.6
55421.4
54689.6
53897
52925.5
52509.8
69766.1
67447.6
67009.1
65199.8
63911.6
62289.8
60816.7
59365.7
57829.1
56905
26063.4
28285.6
30312.3
32127.2
33767.5
35231.7
36545.7
37714.3
38754
39671.5
40476.7
41175
41771.4
42269
42669
42973.9
43182.6
43306.6
43348.2
43367.9
28675.4
30287.8
31869.8
33268.2
34582.9
35757.5
36837.1
37803.7
38677.7
39456.1
40149.2
40759
41291.1
41749.2
42137.5
42462.7
42729.1
42955.2
43147.1
43363.2
30984.5
32041.7
33270
34308.4
35358.6
36288.9
37175.3
37972
38706.9
39366.6
39962.1
40491.8
40961.5
41374.9
41737.4
42058.7
42346.1
42624.2
42900.8
43242
33870.8
34297.1
35133.4
35748.3
36490.6
37129
37783.9
38375.1
38940.4
39454.4
39928.9
40357.7
40745.8
41095.1
41410.6
41701.6
41974.4
42254.3
42542.3
42912.6
36850.7
36616.7
37095.2
37281.7
37728.5
38077.8
38505.7
38893.4
39289.5
39656.4
40005.8
40326.8
40622.8
40893.5
41142.2
41376.8
41601.7
41839.7
42087
42415.9
40152.8
39181.9
39299.7
39025.5
39158.3
39200
39382.1
39551.1
39762.5
39969.3
40180.8
40382.1
40573.4
40751.4
40916.7
41073.8
41224.6
41386
41553.1
41784
43636.7
41872.6
41629.2
40887.4
40692.7
40430.9
40362.3
40315.3
40339.7
40384.6
40453.3
40528.2
40605.7
40679.3
40747
40809
40865.3
40923.8
40982.9
41074.6
47292.8
44722.6
44079.2
42896.4
42336.9
41767.8
41423.6
41148.7
40973.3
40849.7
40771.6
40718.5
40681.3
40649.5
40617
40578.4
40532.2
40474.7
40411.1
40338.4
51090.1
47749.6
46550.9
44980.8
44031.3
43190.1
42585.4
42098.8
41730.4
41438.6
41208.8
41019.4
40857.5
40709.3
40565.9
40416.1
40257.4
40073.6
39878.4
39627.9
54575.2
51301.6
49309.9
47387.8
45922.5
44716.2
43778.6
43032.5
42449.5
41984.9
41611.8
41301.4
41033.4
40787.7
40550.6
40303.9
40043.1
39739
39414.4
38985.2
57103.8
54026.6
51513.4
49358.9
47629.6
46180.3
45017.1
44063.1
43292.8
42660.4
42138
41694.7
41307.4
40952.7
40613.7
40267.2
39906.8
39492.2
39051.7
38464.8
56909.7
53851.4
51484.1
49435.1
47783
46382.9
45240.8
44286.2
43498.7
42836.9
42277
41790.4
41356.3
40951.8
40560.7
40158.6
39739.5
39258.6
38747.6
38068.9
57094.8
54031.9
51828.1
49789.8
48155
46734.1
45565.9
44574.1
43746.9
43043
42441
41912.5
41436.9
40991.2
40558
40113
39647.4
39117.4
38558.5
37806.5
56589.2
53642.5
51628.2
49687.1
48138.5
46768
45633.6
44657.7
43835
43126.5
42513.7
41970.1
41476.5
41010.6
40556.2
40088.5
39599.4
39047.1
38454
37664.7
55752.4
53004.5
51204.3
49386.8
47945
46643.4
45561.7
44620.5
43821.9
43128.2
42524.2
41984.7
41491.9
41025
40565.8
40096.2
39589.5
39048.9
38401.5
37695.5
54584.2
52062.9
50476.8
48816.3
47508.7
46309.9
45311.9
44435.5
43688.5
43035.2
42463.3
41949.5
41478.3
41029.3
40589.3
40132.8
39658.9
39110.2
38552.7
37806.2
53180.3
50916.3
49546.9
48062.9
46904.4
45827.2
44930.9
44138.3
43461.5
42867
42345.1
41874.7
41442
41028.7
40622.4
40201.7
39762.5
39263
38744.8
38049
51576.2
49577.8
48422.6
47129.7
46133.8
45197
44420.9
43731.6
43143.7
42626.3
42172.2
41762
41384.3
41022.4
40666.7
40296.4
39912.3
39470.5
39015
38411.4
49815.4
48089.8
47147.9
46056.3
45232.5
44449.4
43807.2
43236
42751.9
42326.4
41954.4
41618.6
41309.5
41012.8
40720.7
40415.9
40099.4
39736.1
39361.9
38866.7
47922
46470.4
45740.7
44858.2
44214.8
43597.5
43101.5
42661.9
42295
41974.9
41697.9
41449
41220.5
41000.5
40783.2
40554.9
40317.7
40044.3
39765.1
39396.9
45920
44743.8
44226.9
43559.8
43104
42662.1
42322.8
42025.8
41787.2
41583.4
41412
41260.1
41121.7
40987.4
40853.2
40709.6
40559.4
40384.7
40209.5
39978.2
43818.7
42920.4
42618.8
42173.6
41913.1
41655.9
41483
41338.9
41238.7
41161.1
41104.4
41057.9
41017.1
40975
40929.6
40875.2
40816
40743.3
40675.7
40585.6
41637.7
41021
40938.6
40721.7
40663.5
40599.3
40601
40618.3
40664.6
40720.8
40785.9
40850.9
40912.7
40966.7
41012.4
41048.4
41079.7
41107
41144.8
41192
39366.7
39041
39185.8
39206.9
39360.2
39498.8
39684.6
39872.4
40073.5
40271.1
40464.5
40646.2
40814.3
40966.2
41103
41226.7
41343.9
41463.3
41598
41769.6
37044.4
37018.8
37397.6
37664.5
38036.6
38385.1
38761.5
39125.9
39487.2
39830.7
40155.9
40456.5
40731.7
40980.5
41204.9
41410
41603.7
41801.4
42016.8
42289.5
34613.5
34909.4
35538.6
36067.7
36673.1
37244.8
37823.7
38375.1
38905.6
39402.5
39865.2
40288.7
40672.7
41017.1
41324.9
41602.6
41859.5
42115.3
42387.4
42726.5
32198.1
32827
33712.6
34509.7
35352.2
36150
36933.3
37672.7
38372.7
39022.5
39621.4
40165.6
40654.8
41089.5
41472.6
41810.8
42113.5
42401.8
42697
43054.2
29582.4
30586.1
31762.3
32858.8
33965.8
35014
36022.8
36968.5
37853.5
38669
39414.5
40086.9
40685.7
41211.4
41665.4
42053.4
42382.9
42673.6
42949.3
43264.5
27207.7
28581.2
30037
31418.4
32775.1
34057.2
35275.1
36410.8
37465.1
38431.7
39310.2
40098.4
40795.8
41402.1
41916.9
42342.3
42680.4
42944.4
43147.1
43344.1
24271.8
26105.9
27926.3
29669.1
31344.4
32922
34403.8
35777.6
37043.6
38197.9
39240.7
40170.9
40987.7
41689.2
42271.5
42731.7
43062.2
43268.1
43344.8
43361.1
83649.6
82431.5
81019.8
78843.5
76311
73321.4
70027.8
66490.9
62838.3
59516.1
79118.1
78039.5
76982.6
75352.7
73535
71403.3
69064.5
66499.4
63621
60329.6
74998.8
73935.6
72997.1
71568.8
70016.1
68199.3
66223.5
64130.7
61888.1
59695.8
71209.9
70167
69383.7
68215.7
67017.4
65628.8
64108.9
62481.6
60576.2
58855.4
67652.8
66586.9
65871
64835.8
63833.5
62702.5
61488.1
60263.1
58764
57673
64299.9
63210.6
62564.8
61664.2
60858.7
59977.1
59030.2
58117.2
56878.2
56220.4
61081.7
59952.2
59340.9
58523.4
57853.4
57159.4
56431.7
55801.3
54829.9
54550.6
57974.2
56802.9
56220.5
55475.4
54925.4
54393.8
53849.8
53444.1
52691.6
52698.5
54933.9
53713.5
53143.6
52448.1
51992
51595.2
51213.6
51006.4
50464.2
50701.1
51938.2
50665.4
50100.2
49443.5
49068.3
48788
48549.8
48510.7
48161.2
48580.5
48958.9
47627.4
47055.6
46425.5
46118.9
45941.5
45837.1
45949.9
45786.2
46357.3
45977.3
44578.5
43988.3
43374.9
43127.9
43044.1
43066
43318.3
43334.9
44037.8
42975.2
41497.1
40873.6
40269
40076.1
40082.2
40229.5
40617
40813.6
41638.7
39942.1
38360.8
37678.4
37069.7
36924.4
37019
37293.6
37817.5
38198.3
39144.5
36866.1
35153.6
34385.2
33770.9
33676.6
33867.7
34278.9
34947.1
35520.3
36592.9
33760.2
31845.3
30925.5
30280.6
30232.9
30527.9
31089.7
31917.5
32700.7
33915.2
30597.9
28412.6
27306.2
26662.3
26690.8
27120.8
27857.5
28865.4
29874.5
31244.7
27535
24785.3
23327.7
22619.5
22729.1
23316.4
24263.9
25490
26766.3
28331.2
24572.7
20775.3
19119.8
18546.7
18853.6
19676.6
20876.6
22348
23901.2
25661.9
23270
16008.9
13968.7
13338
13881
14990.9
16525.8
18331.8
20263.7
22313.7
)
;

boundaryField
{
    left
    {
        type            zeroGradient;
    }
    right
    {
        type            zeroGradient;
    }
    down
    {
        type            zeroGradient;
    }
    up
    {
        type            zeroGradient;
    }
    hole
    {
        type            zeroGradient;
    }
    frontAndBack
    {
        type            empty;
    }
}


// ************************************************************************* //
