/*--------------------------------*- C++ -*----------------------------------*\
  =========                 |
  \\      /  F ield         | OpenFOAM: The Open Source CFD Toolbox
   \\    /   O peration     | Website:  https://openfoam.org
    \\  /    A nd           | Version:  9
     \\/     M anipulation  |
\*---------------------------------------------------------------------------*/
FoamFile
{
    format      ascii;
    class       volScalarField;
    location    "1";
    object      sigmaEq;
}
// * * * * * * * * * * * * * * * * * * * * * * * * * * * * * * * * * * * * * //

dimensions      [1 -1 -2 0 0 0 0];

internalField   nonuniform List<scalar> 
1000
(
157309
149322
147053
148155
148313
147995
146963
145397
143641
141466
183372
166465
158311
155770
153518
151581
149339
146957
144270
141891
208852
182982
168504
161811
156755
152899
149242
145842
142280
139424
233245
198667
177657
166416
158209
152191
146972
142484
138075
134712
255802
213151
185598
169553
157915
149525
142630
136992
131783
127882
276606
226314
192212
171204
155943
145061
136439
129641
123681
119227
294519
237300
196569
170676
151917
138697
128519
120701
114140
109185
311357
245635
197831
167538
145806
130773
119497
111015
104142
98846.1
323047
246500
191635
158718
136213
120952
109735
101326
94616.3
89248.5
333185
232310
176909
146046
126529
113012
103049
95287.8
89003.3
83666.3
435.894
1262.91
5659.15
11746.3
18447.7
25374.2
32110.3
38531.6
44432.3
49901.3
1483.02
7875.1
16801.7
25595.7
33408.5
40350.2
46413.9
51836.3
56497.4
60872.2
6491.09
18758.7
30029.7
40241
48769.1
55856.3
61622.4
66456
70250.8
73830.8
14935.7
32070
44787
55557.6
64147.6
71035.9
76394.8
80680.9
83763.6
86713.1
26948.7
47070.8
60627.8
71482
79673.2
86013.8
90740.6
94351.8
96703.3
99012
42479.6
63043.5
76620.4
87162.1
94663.8
100239
104184
107022
108625
110259
61206.5
79715.1
92324.9
102125
108706
113368
116433
118435
119283
120205
82675
96856.4
107365
115900
121322
124951
127092
128231
128387
128558
106284
114302
121566
128248
132239
134712
135868
136142
135640
135161
131396
131862
134807
138998
141230
142371
142467
141798
140848
139352
54824.7
59062
62989.9
66542.8
69755.6
72646.8
75242.7
77562.9
79630.5
81461.5
83072.3
84474.1
85676
86683.9
87500.4
88129.5
88569
88832.5
88916.5
88865.3
64256.6
66729.1
69220
71536.4
73709.8
75730
77597.3
79311.1
80876.6
82295.4
83573.6
84714
85720.8
86596.5
87341.5
87956.2
88431.6
88762.1
88903.6
88826
75833.7
76631.3
77643.4
78621.5
79616.3
80607.3
81587.7
82540.6
83462
84339.7
85171.1
85949.6
86672.6
87335.8
87932.7
88455
88878.7
89177.5
89260.6
89073.7
87571.6
86972.8
86710.7
86505
86412.7
86420.1
86525.8
86704.5
86952.9
87248.8
87585.7
87948.9
88330.1
88717.6
89097.5
89453.1
89748.9
89949.9
89948
89693.7
98860.8
97112
95754.7
94531.7
93483.2
92598.3
91892.4
91330.6
90919.3
90629.8
90456.5
90379.3
90386.7
90461.8
90585.6
90735.9
90872.2
90956.8
90885.4
90617.3
109217
106552
104287
102212
100362
98704.3
97288.9
96061.9
95045.4
94204.7
93538
93023.4
92649
92396.1
92244.7
92171.1
92137.5
92108.9
92002.7
91782.5
118390
115036
112082
109305
106817
104500
102471
100652
99085.5
97736.2
96606.5
95675.3
94931.5
94356.8
93933
93637.9
93442.5
93316.4
93210.3
93088.2
126130
122293
118917
115564
112608
109778
107262
104959
102923
101126
99572.2
98249.8
97150.9
96261.9
95569.9
95057.5
94709
94500.9
94424.3
94440
132404
128142
124764
121013
117699
114454
111508
108791
106347
104163
102242
100578
99165
97994.7
97061
96352.9
95870.7
95598.7
95572.4
95747.3
137080
132521
129361
125640
122185
118758
115513
112464
109656
107104
104821
102811
101077
99616.5
98431.1
97517.8
96893.8
96553.2
96577.8
96921.2
138898
134620
131503
127997
124549
121124
117819
114669
111725
109009
106548
104352
102433
100796
99453.4
98410.3
97700.4
97326
97405.2
97890.6
135330
133131
130285
127240
124128
120987
117909
114933
112113
109479
107064
104887
102965
101313
99951.7
98893.9
98185.7
97837.5
97994.7
98603.6
132456
130793
128612
126006
123295
120458
117630
114843
112168
109638
107293
105158
103258
101615
100255
99199.8
98505.6
98184.5
98398.5
99090.7
129037
128039
126404
124225
121899
119371
116809
114240
111744
109357
107124
105075
103240
101645
100321
99298.5
98629.6
98344.6
98616.3
99353.8
125143
124672
123551
121820
119904
117723
115465
113153
110876
108671
106590
104665
102931
101418
100156
99188.8
98543.4
98332
98467.4
99375.1
120999
120997
120339
119028
117498
115661
113712
111671
109633
107636
105736
103966
102365
100962
99795
98894.3
98322.2
98111
98392.4
99101.9
116679
117063
116811
115891
114729
113232
111595
109838
108056
106289
104593
103003
101559
100291
99236.6
98422.8
97910
97711.1
97970.8
98636.6
112270
112975
113074
112509
111685
110514
109182
107711
106193
104669
103194
101805
100539
99425.8
98500.4
97786.8
97337.2
97165.6
97392.4
97967.2
107811
108771
109169
108920
108406
107544
106510
105324
104077
102806
101567
100394
99323.5
98382.8
97602.7
97002.9
96625.9
96478.3
96661.2
97127.4
103322
104481
105131
105163
104932
104363
103616
102715
101740
100732
99738.8
98795.3
97934.8
97181.4
96561
96088.3
95793.5
95677.6
95811.3
96151.2
98795.7
100107
100970
101252
101282
100992
100527
99908.3
99211.4
98471.6
97735.5
97033.4
96395.6
95843
95395.8
95063.1
94862.2
94786
94872.3
95081.8
94210.2
95640.1
96684.6
97194.3
97471.7
97452.4
97267.2
96933.6
96519.7
96057.1
95587.2
95137.2
94733.4
94393.2
94131.1
93951
93856.8
93833
93881.8
93965.5
89521.3
91048.8
92257.6
92985.4
93505.9
93758.6
93857.8
93817.5
93696.6
93522
93329.5
93142.4
92982.8
92864.8
92797.8
92781.1
92806.5
92850.1
92878.3
92851.6
84684.9
86305.7
87675.9
88625.8
89397.3
89933.2
90330.3
90597.7
90784.4
90911.7
91009
91095.3
91188.6
91299.9
91434.8
91589.2
91745.3
91871.8
91902.1
91790.1
79625.6
81357.8
82907.6
84103.2
85151
85996.5
86717.2
87316.9
87833.2
88281.4
88684
89055.3
89409.2
89754.4
90093.6
90421.3
90714.3
90936.3
90995
90832.4
74313.7
76199.5
77967.5
79450.7
80815.2
82008.4
83087.5
84050
84921.8
85711.6
86434.7
87100.7
87719.8
88298.2
88837.9
89333.4
89761.4
90084.3
90196.3
90023.7
68645.5
70767.2
72828.4
74672.7
76420
78020
79508.4
80876.3
82138.1
83295.8
84358.2
85330
86217.8
87025.8
87755.5
88403.7
88951.5
89366.4
89548.3
89409.8
62731.9
65199.7
67648
69937.8
72139.7
74205
76149
77957
79633.5
81175.3
82585.1
83864.1
85015.2
86040.9
86942.1
87717.8
88356.9
88837.6
89084.3
89010.5
56455.7
59454.1
62443.4
65307
68066.6
70676.9
73137.4
75429.8
77552.1
79498.1
81267.3
82858.2
84270.9
85504.8
86558.1
87429.6
88111.5
88598.9
88857.6
88851.2
50554.3
54233.9
57868
61364.1
64717.6
67882.8
70854.4
73612.5
76154.7
78474.5
80571.7
82444.3
84090.6
85507.5
86688
87626.3
88309.2
88741.8
88912.5
88884.5
79153.7
84515.5
93643.5
103697
113692
122493
129617
134731
137894
138558
74971.7
79972.1
88396.4
97897.6
107673
116646
124326
130229
134325
135941
71226.3
75995.6
83834.7
92735
102049
110787
118533
124882
129832
132881
67799.3
72413.4
79767.7
88134
97016.8
105499
113176
119661
124854
128777
64585.8
69094
76037
83901
92325
100488
108022
114618
119977
124404
61567.9
66009
72613.2
80032
88012.4
95816.7
103093
109632
114994
119745
58692
63087.2
69404.9
76426.7
83990.5
91441.2
98440.9
104867
110153
115011
55947.2
60305.8
66376.3
73040.7
80209.1
87298
93987.7
100234
105402
110265
53315.5
57636.8
63485.8
69824.9
76623.5
83359.9
89735.8
95759.8
100776
105555
50796.8
55068.4
60706.2
66737
73179.5
79563.4
85619.7
91392.2
96238.4
100888
48397.2
52596.1
58017.5
63742.9
69834.5
75864.8
81598.4
87097.2
91757.3
96246.9
46136.2
50225.6
55406.1
60810
66540.1
72205.6
77609
82818
87281.5
91594.7
44052
47974.3
52860.5
57900.1
63238.8
68518.1
73578.6
78484.3
82742.7
86873
42202.3
45870.2
50375.3
54981.3
59877.2
64736.8
69435
74025.2
78073.4
82021.8
40696.3
43957.5
47918.4
51967.6
56339.8
60734.9
65050.9
69320.6
73164
76944.1
39665.4
42258.3
45454.3
48803.4
52555.5
56436.1
60350.3
64300.4
67953.2
71589
39396
40812.7
42797
45199.8
48216.1
51549.1
55074.2
58742.4
62257.6
65810.2
39948
39349.8
39737.1
41055.5
43278.3
46064.8
49242.2
52691.3
56145.9
59694.8
42019.2
37499.4
35338.5
35332.8
36853
39263.9
42291
45720.3
49307.4
53033
42914.8
32874.2
29278.4
28250.3
29429.2
31735.3
34876.7
38537.7
42480.3
46583.6
)
;

boundaryField
{
    left
    {
        type            calculated;
        value           nonuniform List<scalar> 
30
(
78238
74105.5
70406.6
67020.6
63851.9
60882.8
58065
55390
52844.1
50430.8
48160.7
46057.7
44163.9
42543
41309.8
40635.1
40861.1
42410.7
46690.8
53412.7
354727
227358
171185
142282
124277
111504
101923
94317.7
88105.7
82748.2
)
;
    }
    right
    {
        type            calculated;
        value           nonuniform List<scalar> 
30
(
88850
88826.3
89065.8
89681
90601.8
91767.9
93077.1
94435.4
95750.1
96934.7
97908.1
98632.6
99123
99387.9
99384.3
99130.9
98667.2
97992.7
97146.7
96163.6
95087.5
93964.9
92845.9
91781.1
90822.3
90014.7
89404.7
89009.8
88854.8
88867.1
)
;
    }
    down
    {
        type            calculated;
        value           nonuniform List<scalar> 
30
(
383.065
356.71
4072.65
9949.41
16729.4
23821.8
30755.4
37367
43435.4
49058
54118.4
58531.5
62583.9
66228.8
69516.9
72463.9
75105.9
77461.3
79557.5
81410.7
83039.2
84454.4
85666.2
86680.9
87501.1
88131.3
88569.2
88831.1
88915.5
88887
)
;
    }
    up
    {
        type            calculated;
        value           nonuniform List<scalar> 
30
(
42290.7
32488.1
29077.4
28028.7
29175.3
31447.1
34567.1
38222.1
42161.6
46282.3
50265.8
53975
57644.7
61170.3
64554.2
67746
70742.6
73522.7
76084.7
78421.8
80533.9
82419.3
84076.2
85501.3
86687.7
87629.2
88312.2
88743.1
88910.8
88897.9
)
;
    }
    hole
    {
        type            calculated;
        value           nonuniform List<scalar> 
20
(
158462
185884
212691
238344
262050
283925
302808
321013
335006
351482
91.8728
100.161
3139.56
10646.6
22364.2
38187.5
57594.7
80034.4
104805
131202
)
;
    }
    frontAndBack
    {
        type            empty;
    }
}


// ************************************************************************* //
