/*--------------------------------*- C++ -*----------------------------------*\
  =========                 |
  \\      /  F ield         | OpenFOAM: The Open Source CFD Toolbox
   \\    /   O peration     | Website:  https://openfoam.org
    \\  /    A nd           | Version:  9
     \\/     M anipulation  |
\*---------------------------------------------------------------------------*/
FoamFile
{
    format      ascii;
    class       volVectorField;
    location    "5";
    object      D;
}
// * * * * * * * * * * * * * * * * * * * * * * * * * * * * * * * * * * * * * //

dimensions      [0 1 0 0 0 0 0];

internalField   nonuniform List<vector> 
1000
(
(3.38129e-06 1.1369e-06 0)
(3.15519e-06 1.25564e-06 0)
(2.99071e-06 1.35557e-06 0)
(2.87186e-06 1.43366e-06 0)
(2.78706e-06 1.50107e-06 0)
(2.72725e-06 1.55906e-06 0)
(2.68676e-06 1.61132e-06 0)
(2.66107e-06 1.65891e-06 0)
(2.6466e-06 1.70331e-06 0)
(2.64152e-06 1.7454e-06 0)
(3.04719e-06 1.02519e-06 0)
(2.81238e-06 1.11145e-06 0)
(2.64272e-06 1.18712e-06 0)
(2.52067e-06 1.24551e-06 0)
(2.4337e-06 1.29681e-06 0)
(2.37214e-06 1.34091e-06 0)
(2.32997e-06 1.38091e-06 0)
(2.30238e-06 1.41749e-06 0)
(2.2857e-06 1.45143e-06 0)
(2.27747e-06 1.48454e-06 0)
(2.70594e-06 9.1324e-07 0)
(2.46897e-06 9.64904e-07 0)
(2.29876e-06 1.01529e-06 0)
(2.17697e-06 1.05374e-06 0)
(2.09047e-06 1.08919e-06 0)
(2.02924e-06 1.11997e-06 0)
(1.987e-06 1.14851e-06 0)
(1.95886e-06 1.17494e-06 0)
(1.94111e-06 1.19941e-06 0)
(1.93117e-06 1.22393e-06 0)
(2.35929e-06 8.02838e-07 0)
(2.12698e-06 8.19137e-07 0)
(1.96118e-06 8.44147e-07 0)
(1.84337e-06 8.63083e-07 0)
(1.76021e-06 8.8345e-07 0)
(1.70153e-06 9.01861e-07 0)
(1.66103e-06 9.20008e-07 0)
(1.63377e-06 9.37345e-07 0)
(1.61628e-06 9.53527e-07 0)
(1.6057e-06 9.70372e-07 0)
(2.00811e-06 6.95632e-07 0)
(1.78749e-06 6.77234e-07 0)
(1.63128e-06 6.77877e-07 0)
(1.52148e-06 6.78558e-07 0)
(1.4447e-06 6.85303e-07 0)
(1.39092e-06 6.92861e-07 0)
(1.35396e-06 7.02155e-07 0)
(1.329e-06 7.11855e-07 0)
(1.31285e-06 7.21205e-07 0)
(1.3026e-06 7.3157e-07 0)
(1.65389e-06 5.92378e-07 0)
(1.45146e-06 5.41368e-07 0)
(1.31016e-06 5.20002e-07 0)
(1.21254e-06 5.04733e-07 0)
(1.1453e-06 5.00165e-07 0)
(1.09877e-06 4.9903e-07 0)
(1.06708e-06 5.01488e-07 0)
(1.0457e-06 5.05384e-07 0)
(1.03185e-06 5.09654e-07 0)
(1.0227e-06 5.1508e-07 0)
(1.29527e-06 4.93007e-07 0)
(1.11808e-06 4.12991e-07 0)
(9.97453e-07 3.73656e-07 0)
(9.16493e-07 3.46213e-07 0)
(8.6204e-07 3.33686e-07 0)
(8.25009e-07 3.2674e-07 0)
(8.00138e-07 3.24814e-07 0)
(7.8341e-07 3.25014e-07 0)
(7.72588e-07 3.26103e-07 0)
(7.65127e-07 3.28275e-07 0)
(9.3477e-07 3.94681e-07 0)
(7.88711e-07 2.91603e-07 0)
(6.9496e-07 2.41287e-07 0)
(6.34979e-07 2.07508e-07 0)
(5.96032e-07 1.91647e-07 0)
(5.701e-07 1.82516e-07 0)
(5.52976e-07 1.79e-07 0)
(5.41467e-07 1.77767e-07 0)
(5.34011e-07 1.77594e-07 0)
(5.28607e-07 1.78234e-07 0)
(5.64289e-07 2.87683e-07 0)
(4.61085e-07 1.73692e-07 0)
(4.01746e-07 1.2425e-07 0)
(3.66523e-07 9.34596e-08 0)
(3.45157e-07 8.02424e-08 0)
(3.31171e-07 7.29306e-08 0)
(3.22139e-07 7.03782e-08 0)
(3.15955e-07 6.9513e-08 0)
(3.11883e-07 6.94418e-08 0)
(3.08672e-07 6.97826e-08 0)
(1.94496e-07 1.50567e-07 0)
(1.46607e-07 6.38907e-08 0)
(1.28343e-07 3.34521e-08 0)
(1.18683e-07 1.81467e-08 0)
(1.13075e-07 1.28775e-08 0)
(1.09156e-07 1.04936e-08 0)
(1.06595e-07 1.01594e-08 0)
(1.04716e-07 1.03554e-08 0)
(1.03429e-07 1.07422e-08 0)
(1.02293e-07 1.11697e-08 0)
(5.96196e-06 1.84136e-06 0)
(5.95212e-06 2.07045e-06 0)
(5.94534e-06 2.28391e-06 0)
(5.94557e-06 2.47933e-06 0)
(5.95454e-06 2.65873e-06 0)
(5.97289e-06 2.82433e-06 0)
(6.00074e-06 2.97871e-06 0)
(6.0375e-06 3.12411e-06 0)
(6.08286e-06 3.26229e-06 0)
(6.13566e-06 3.39522e-06 0)
(5.77504e-06 1.82625e-06 0)
(5.74857e-06 2.05468e-06 0)
(5.73054e-06 2.26554e-06 0)
(5.72255e-06 2.45703e-06 0)
(5.72551e-06 2.63161e-06 0)
(5.73887e-06 2.79167e-06 0)
(5.7622e-06 2.94002e-06 0)
(5.7944e-06 3.07904e-06 0)
(5.83502e-06 3.21056e-06 0)
(5.8825e-06 3.33683e-06 0)
(5.5768e-06 1.79558e-06 0)
(5.5306e-06 2.02342e-06 0)
(5.49726e-06 2.22999e-06 0)
(5.47718e-06 2.4153e-06 0)
(5.47058e-06 2.5831e-06 0)
(5.47591e-06 2.73609e-06 0)
(5.49219e-06 2.8773e-06 0)
(5.51776e-06 3.00914e-06 0)
(5.55205e-06 3.13351e-06 0)
(5.5929e-06 3.25272e-06 0)
(5.36255e-06 1.75099e-06 0)
(5.29421e-06 1.97774e-06 0)
(5.24306e-06 2.17904e-06 0)
(5.20865e-06 2.35679e-06 0)
(5.19034e-06 2.51643e-06 0)
(5.1857e-06 2.66105e-06 0)
(5.19328e-06 2.79397e-06 0)
(5.21087e-06 2.91761e-06 0)
(5.23773e-06 3.03396e-06 0)
(5.2711e-06 3.14529e-06 0)
(5.12984e-06 1.69288e-06 0)
(5.03722e-06 1.91674e-06 0)
(4.96701e-06 2.11111e-06 0)
(4.9175e-06 2.27957e-06 0)
(4.8868e-06 2.42945e-06 0)
(4.87163e-06 2.56426e-06 0)
(4.87001e-06 2.68765e-06 0)
(4.87922e-06 2.80203e-06 0)
(4.89835e-06 2.90949e-06 0)
(4.92405e-06 3.01215e-06 0)
(4.87833e-06 1.62263e-06 0)
(4.76005e-06 1.84049e-06 0)
(4.67039e-06 2.02594e-06 0)
(4.60579e-06 2.18351e-06 0)
(4.56283e-06 2.3223e-06 0)
(4.53728e-06 2.44613e-06 0)
(4.5266e-06 2.55898e-06 0)
(4.52759e-06 2.66317e-06 0)
(4.53915e-06 2.76094e-06 0)
(4.55743e-06 2.85416e-06 0)
(4.60866e-06 1.54128e-06 0)
(4.46435e-06 1.74901e-06 0)
(4.35567e-06 1.92297e-06 0)
(4.27668e-06 2.0679e-06 0)
(4.2222e-06 2.19433e-06 0)
(4.18703e-06 2.30616e-06 0)
(4.16797e-06 2.40761e-06 0)
(4.16138e-06 2.50089e-06 0)
(4.16593e-06 2.58835e-06 0)
(4.17742e-06 2.67152e-06 0)
(4.32224e-06 1.45037e-06 0)
(4.15278e-06 1.64313e-06 0)
(4.0263e-06 1.80278e-06 0)
(3.93417e-06 1.93335e-06 0)
(3.8694e-06 2.0463e-06 0)
(3.8257e-06 2.14532e-06 0)
(3.79925e-06 2.23477e-06 0)
(3.78603e-06 2.31662e-06 0)
(3.78436e-06 2.39333e-06 0)
(3.78996e-06 2.46595e-06 0)
(4.02085e-06 1.35144e-06 0)
(3.82851e-06 1.52419e-06 0)
(3.68629e-06 1.66659e-06 0)
(3.5828e-06 1.78109e-06 0)
(3.50933e-06 1.87956e-06 0)
(3.45854e-06 1.96517e-06 0)
(3.42593e-06 2.04223e-06 0)
(3.40722e-06 2.11244e-06 0)
(3.40023e-06 2.1781e-06 0)
(3.40103e-06 2.24002e-06 0)
(3.70652e-06 1.24631e-06 0)
(3.49489e-06 1.39418e-06 0)
(3.33974e-06 1.51655e-06 0)
(3.22719e-06 1.61347e-06 0)
(3.14692e-06 1.69668e-06 0)
(3.09065e-06 1.76852e-06 0)
(3.0533e-06 1.8331e-06 0)
(3.03033e-06 1.89166e-06 0)
(3.0191e-06 1.94645e-06 0)
(3.01649e-06 1.99699e-06 0)
(6.19876e-06 3.52309e-06 0)
(6.27121e-06 3.65e-06 0)
(6.34922e-06 3.77487e-06 0)
(6.43215e-06 3.89831e-06 0)
(6.5196e-06 4.02092e-06 0)
(6.61105e-06 4.14308e-06 0)
(6.70612e-06 4.2652e-06 0)
(6.8044e-06 4.38756e-06 0)
(6.90557e-06 4.51043e-06 0)
(7.00928e-06 4.63402e-06 0)
(7.11524e-06 4.75853e-06 0)
(7.22316e-06 4.88409e-06 0)
(7.33279e-06 5.01086e-06 0)
(7.44385e-06 5.13893e-06 0)
(7.5561e-06 5.26837e-06 0)
(7.66929e-06 5.39922e-06 0)
(7.78318e-06 5.53145e-06 0)
(7.8975e-06 5.66496e-06 0)
(8.01207e-06 5.79953e-06 0)
(8.12662e-06 5.93475e-06 0)
(5.94828e-06 3.45986e-06 0)
(6.02964e-06 3.58465e-06 0)
(6.11536e-06 3.70753e-06 0)
(6.20476e-06 3.8292e-06 0)
(6.2977e-06 3.95031e-06 0)
(6.39375e-06 4.07119e-06 0)
(6.49269e-06 4.19228e-06 0)
(6.59422e-06 4.31381e-06 0)
(6.6981e-06 4.43607e-06 0)
(6.80408e-06 4.55923e-06 0)
(6.91196e-06 4.6835e-06 0)
(7.02151e-06 4.80901e-06 0)
(7.13254e-06 4.93589e-06 0)
(7.24486e-06 5.06423e-06 0)
(7.35829e-06 5.19412e-06 0)
(7.47264e-06 5.32558e-06 0)
(7.58774e-06 5.45858e-06 0)
(7.7034e-06 5.59304e-06 0)
(7.81947e-06 5.72873e-06 0)
(7.93567e-06 5.86531e-06 0)
(5.66231e-06 3.3721e-06 0)
(5.75517e-06 3.4971e-06 0)
(5.85119e-06 3.62026e-06 0)
(5.94946e-06 3.74216e-06 0)
(6.05023e-06 3.8636e-06 0)
(6.15307e-06 3.98484e-06 0)
(6.25798e-06 4.10637e-06 0)
(6.36473e-06 4.22842e-06 0)
(6.47321e-06 4.35127e-06 0)
(6.58325e-06 4.47514e-06 0)
(6.69475e-06 4.60019e-06 0)
(6.80756e-06 4.72659e-06 0)
(6.92156e-06 4.85446e-06 0)
(7.03663e-06 4.9839e-06 0)
(7.15266e-06 5.115e-06 0)
(7.26953e-06 5.24781e-06 0)
(7.38712e-06 5.38234e-06 0)
(7.50528e-06 5.51854e-06 0)
(7.62388e-06 5.65631e-06 0)
(7.74259e-06 5.79543e-06 0)
(5.34506e-06 3.26174e-06 0)
(5.45159e-06 3.38876e-06 0)
(5.56009e-06 3.51401e-06 0)
(5.66932e-06 3.63777e-06 0)
(5.77995e-06 3.76107e-06 0)
(5.89151e-06 3.88405e-06 0)
(6.00425e-06 4.00731e-06 0)
(6.11796e-06 4.13106e-06 0)
(6.23271e-06 4.25562e-06 0)
(6.3484e-06 4.3812e-06 0)
(6.46501e-06 4.50801e-06 0)
(6.5825e-06 4.63619e-06 0)
(6.70082e-06 4.76591e-06 0)
(6.81991e-06 4.89727e-06 0)
(6.93973e-06 5.03038e-06 0)
(7.06022e-06 5.16532e-06 0)
(7.18131e-06 5.30216e-06 0)
(7.30288e-06 5.44092e-06 0)
(7.42483e-06 5.58164e-06 0)
(7.54684e-06 5.72424e-06 0)
(5.00343e-06 3.12666e-06 0)
(5.12525e-06 3.25775e-06 0)
(5.24791e-06 3.38718e-06 0)
(5.36964e-06 3.51464e-06 0)
(5.49167e-06 3.64151e-06 0)
(5.61342e-06 3.76782e-06 0)
(5.73538e-06 3.89425e-06 0)
(5.85741e-06 4.02103e-06 0)
(5.9797e-06 4.14853e-06 0)
(6.10224e-06 4.27696e-06 0)
(6.22512e-06 4.40656e-06 0)
(6.34836e-06 4.53751e-06 0)
(6.47201e-06 4.66997e-06 0)
(6.59607e-06 4.80411e-06 0)
(6.72056e-06 4.94004e-06 0)
(6.84549e-06 5.0779e-06 0)
(6.97083e-06 5.2178e-06 0)
(7.09651e-06 5.35988e-06 0)
(7.22248e-06 5.5043e-06 0)
(7.34844e-06 5.65112e-06 0)
(4.643e-06 2.96764e-06 0)
(4.78127e-06 3.10471e-06 0)
(4.91933e-06 3.24026e-06 0)
(5.05472e-06 3.37315e-06 0)
(5.1893e-06 3.50522e-06 0)
(5.32235e-06 3.63636e-06 0)
(5.45463e-06 3.76736e-06 0)
(5.58602e-06 3.89846e-06 0)
(5.71685e-06 4.03008e-06 0)
(5.84721e-06 4.16247e-06 0)
(5.97725e-06 4.2959e-06 0)
(6.1071e-06 4.43057e-06 0)
(6.23686e-06 4.56669e-06 0)
(6.36661e-06 4.70444e-06 0)
(6.49645e-06 4.84398e-06 0)
(6.62643e-06 4.9855e-06 0)
(6.75659e-06 5.12917e-06 0)
(6.88692e-06 5.2752e-06 0)
(7.01742e-06 5.42393e-06 0)
(7.14787e-06 5.57549e-06 0)
(4.26973e-06 2.78499e-06 0)
(4.42503e-06 2.92996e-06 0)
(4.57926e-06 3.0735e-06 0)
(4.72905e-06 3.21361e-06 0)
(4.87696e-06 3.35246e-06 0)
(5.0221e-06 3.48992e-06 0)
(5.16544e-06 3.62684e-06 0)
(5.30694e-06 3.76354e-06 0)
(5.44704e-06 3.90045e-06 0)
(5.58589e-06 4.0379e-06 0)
(5.72375e-06 4.17618e-06 0)
(5.86081e-06 4.31554e-06 0)
(5.99725e-06 4.45622e-06 0)
(6.13323e-06 4.59841e-06 0)
(6.26889e-06 4.74235e-06 0)
(6.40437e-06 4.88823e-06 0)
(6.53975e-06 5.03632e-06 0)
(6.67512e-06 5.18688e-06 0)
(6.81051e-06 5.34037e-06 0)
(6.94586e-06 5.49702e-06 0)
(3.88923e-06 2.58032e-06 0)
(4.06161e-06 2.735e-06 0)
(4.23219e-06 2.88805e-06 0)
(4.39675e-06 3.03701e-06 0)
(4.55831e-06 3.18406e-06 0)
(4.71601e-06 3.32928e-06 0)
(4.87089e-06 3.47344e-06 0)
(5.02302e-06 3.61697e-06 0)
(5.17288e-06 3.76033e-06 0)
(5.32072e-06 3.90391e-06 0)
(5.46687e-06 4.04803e-06 0)
(5.61157e-06 4.19299e-06 0)
(5.7551e-06 4.33906e-06 0)
(5.89766e-06 4.48649e-06 0)
(6.03948e-06 4.63553e-06 0)
(6.18074e-06 4.78642e-06 0)
(6.32162e-06 4.93948e-06 0)
(6.46226e-06 5.09504e-06 0)
(6.60277e-06 5.25363e-06 0)
(6.74329e-06 5.41557e-06 0)
(3.50721e-06 2.35556e-06 0)
(3.69624e-06 2.52186e-06 0)
(3.88273e-06 2.68559e-06 0)
(4.06214e-06 2.84491e-06 0)
(4.23732e-06 3.00135e-06 0)
(4.40772e-06 3.15545e-06 0)
(4.57427e-06 3.30792e-06 0)
(4.73721e-06 3.45932e-06 0)
(4.89704e-06 3.61015e-06 0)
(5.05409e-06 3.76083e-06 0)
(5.20876e-06 3.91174e-06 0)
(5.36135e-06 4.06322e-06 0)
(5.51218e-06 4.21554e-06 0)
(5.66154e-06 4.369e-06 0)
(5.8097e-06 4.52386e-06 0)
(5.95691e-06 4.68041e-06 0)
(6.10342e-06 4.83899e-06 0)
(6.24947e-06 4.99995e-06 0)
(6.39524e-06 5.1639e-06 0)
(6.54106e-06 5.33119e-06 0)
(3.12814e-06 2.11416e-06 0)
(3.33295e-06 2.29326e-06 0)
(3.53369e-06 2.46802e-06 0)
(3.72759e-06 2.6388e-06 0)
(3.91613e-06 2.80589e-06 0)
(4.09931e-06 2.9701e-06 0)
(4.2777e-06 3.13204e-06 0)
(4.45167e-06 3.29235e-06 0)
(4.62169e-06 3.45158e-06 0)
(4.78817e-06 3.61022e-06 0)
(4.95152e-06 3.76871e-06 0)
(5.11213e-06 3.92742e-06 0)
(5.27038e-06 4.08669e-06 0)
(5.42662e-06 4.24681e-06 0)
(5.58117e-06 4.40808e-06 0)
(5.73437e-06 4.5708e-06 0)
(5.88652e-06 4.73533e-06 0)
(6.03797e-06 4.90202e-06 0)
(6.18896e-06 5.0715e-06 0)
(6.34008e-06 5.24412e-06 0)
(2.83577e-06 1.93315e-06 0)
(3.04932e-06 2.12155e-06 0)
(3.25755e-06 2.30256e-06 0)
(3.45931e-06 2.47987e-06 0)
(3.65544e-06 2.65347e-06 0)
(3.84596e-06 2.82413e-06 0)
(4.03139e-06 2.9924e-06 0)
(4.21201e-06 3.15885e-06 0)
(4.38828e-06 3.32399e-06 0)
(4.56058e-06 3.48827e-06 0)
(4.72933e-06 3.65212e-06 0)
(4.89492e-06 3.81588e-06 0)
(5.05774e-06 3.9799e-06 0)
(5.21816e-06 4.14445e-06 0)
(5.37654e-06 4.30981e-06 0)
(5.53326e-06 4.47628e-06 0)
(5.68865e-06 4.64417e-06 0)
(5.84317e-06 4.81382e-06 0)
(5.99708e-06 4.98576e-06 0)
(6.15116e-06 5.16031e-06 0)
(2.6407e-06 1.82486e-06 0)
(2.85429e-06 2.01324e-06 0)
(3.06258e-06 2.19573e-06 0)
(3.26501e-06 2.37504e-06 0)
(3.46213e-06 2.55112e-06 0)
(3.65391e-06 2.72448e-06 0)
(3.84076e-06 2.89559e-06 0)
(4.02289e-06 3.06488e-06 0)
(4.20069e-06 3.23279e-06 0)
(4.37447e-06 3.3997e-06 0)
(4.54463e-06 3.56596e-06 0)
(4.71151e-06 3.7319e-06 0)
(4.87549e-06 3.89781e-06 0)
(5.03693e-06 4.06394e-06 0)
(5.19618e-06 4.23053e-06 0)
(5.35365e-06 4.39785e-06 0)
(5.50966e-06 4.56615e-06 0)
(5.66472e-06 4.73571e-06 0)
(5.8191e-06 4.90696e-06 0)
(5.97371e-06 5.08012e-06 0)
(2.46851e-06 1.72088e-06 0)
(2.67826e-06 1.9087e-06 0)
(2.88443e-06 2.09172e-06 0)
(3.0853e-06 2.27225e-06 0)
(3.28163e-06 2.4501e-06 0)
(3.47305e-06 2.62561e-06 0)
(3.65991e-06 2.79911e-06 0)
(3.84232e-06 2.97091e-06 0)
(4.02056e-06 3.14133e-06 0)
(4.1949e-06 3.3107e-06 0)
(4.36567e-06 3.47928e-06 0)
(4.53316e-06 3.64734e-06 0)
(4.69774e-06 3.81511e-06 0)
(4.85973e-06 3.98281e-06 0)
(5.01948e-06 4.15064e-06 0)
(5.17738e-06 4.31879e-06 0)
(5.33378e-06 4.48746e-06 0)
(5.48919e-06 4.65688e-06 0)
(5.6439e-06 4.82728e-06 0)
(5.79888e-06 4.99885e-06 0)
(2.31417e-06 1.62073e-06 0)
(2.5189e-06 1.80703e-06 0)
(2.72137e-06 1.98988e-06 0)
(2.91926e-06 2.17112e-06 0)
(3.11338e-06 2.35033e-06 0)
(3.30313e-06 2.52765e-06 0)
(3.48881e-06 2.70325e-06 0)
(3.6704e-06 2.87732e-06 0)
(3.84812e-06 3.05009e-06 0)
(4.02215e-06 3.22175e-06 0)
(4.19277e-06 3.39252e-06 0)
(4.36024e-06 3.56261e-06 0)
(4.52486e-06 3.73218e-06 0)
(4.68694e-06 3.9014e-06 0)
(4.84682e-06 4.07041e-06 0)
(5.00485e-06 4.23935e-06 0)
(5.16139e-06 4.40835e-06 0)
(5.31693e-06 4.57755e-06 0)
(5.47181e-06 4.74705e-06 0)
(5.62699e-06 4.91689e-06 0)
(2.17593e-06 1.52547e-06 0)
(2.37451e-06 1.70969e-06 0)
(2.57202e-06 1.89177e-06 0)
(2.76569e-06 2.07312e-06 0)
(2.95643e-06 2.25312e-06 0)
(3.14341e-06 2.43175e-06 0)
(3.32689e-06 2.60903e-06 0)
(3.50672e-06 2.78501e-06 0)
(3.68306e-06 2.9598e-06 0)
(3.85603e-06 3.13352e-06 0)
(4.02583e-06 3.30629e-06 0)
(4.19269e-06 3.47824e-06 0)
(4.35685e-06 3.64949e-06 0)
(4.51861e-06 3.82012e-06 0)
(4.67825e-06 3.99025e-06 0)
(4.83611e-06 4.15992e-06 0)
(4.99256e-06 4.3292e-06 0)
(5.14795e-06 4.49813e-06 0)
(5.30295e-06 4.66659e-06 0)
(5.45824e-06 4.83466e-06 0)
(2.05112e-06 1.43504e-06 0)
(2.24293e-06 1.61665e-06 0)
(2.43464e-06 1.79745e-06 0)
(2.62328e-06 1.97841e-06 0)
(2.80974e-06 2.15874e-06 0)
(2.99309e-06 2.33827e-06 0)
(3.17351e-06 2.51685e-06 0)
(3.35079e-06 2.6944e-06 0)
(3.52502e-06 2.87093e-06 0)
(3.69625e-06 3.04645e-06 0)
(3.86464e-06 3.221e-06 0)
(4.03035e-06 3.39463e-06 0)
(4.19361e-06 3.5674e-06 0)
(4.35465e-06 3.73933e-06 0)
(4.51373e-06 3.91046e-06 0)
(4.67118e-06 4.08078e-06 0)
(4.8273e-06 4.25027e-06 0)
(4.98255e-06 4.41883e-06 0)
(5.13722e-06 4.58632e-06 0)
(5.29222e-06 4.75271e-06 0)
(1.93757e-06 1.3495e-06 0)
(2.12223e-06 1.5282e-06 0)
(2.30757e-06 1.70735e-06 0)
(2.49055e-06 1.88749e-06 0)
(2.67205e-06 2.06773e-06 0)
(2.85108e-06 2.24775e-06 0)
(3.02778e-06 2.42724e-06 0)
(3.20186e-06 2.60602e-06 0)
(3.37337e-06 2.78397e-06 0)
(3.5423e-06 2.961e-06 0)
(3.70877e-06 3.13708e-06 0)
(3.87288e-06 3.31217e-06 0)
(4.03483e-06 3.48627e-06 0)
(4.19481e-06 3.65934e-06 0)
(4.35305e-06 3.83135e-06 0)
(4.50983e-06 4.00222e-06 0)
(4.66543e-06 4.17186e-06 0)
(4.82026e-06 4.34011e-06 0)
(4.97457e-06 4.50666e-06 0)
(5.1292e-06 4.67138e-06 0)
(1.83318e-06 1.26865e-06 0)
(2.0105e-06 1.44424e-06 0)
(2.1891e-06 1.62145e-06 0)
(2.36601e-06 1.80047e-06 0)
(2.54208e-06 1.98028e-06 0)
(2.71628e-06 2.16044e-06 0)
(2.88873e-06 2.3405e-06 0)
(3.05909e-06 2.52018e-06 0)
(3.22738e-06 2.69923e-06 0)
(3.39355e-06 2.8775e-06 0)
(3.55766e-06 3.05485e-06 0)
(3.71979e-06 3.23118e-06 0)
(3.88008e-06 3.4064e-06 0)
(4.0387e-06 3.58044e-06 0)
(4.19584e-06 3.75319e-06 0)
(4.35175e-06 3.92452e-06 0)
(4.50664e-06 4.09426e-06 0)
(4.66091e-06 4.26218e-06 0)
(4.81473e-06 4.42786e-06 0)
(4.96886e-06 4.59109e-06 0)
(1.73605e-06 1.19225e-06 0)
(1.90596e-06 1.36468e-06 0)
(2.07761e-06 1.53978e-06 0)
(2.24818e-06 1.71744e-06 0)
(2.41846e-06 1.89654e-06 0)
(2.58746e-06 2.07654e-06 0)
(2.75527e-06 2.25688e-06 0)
(2.92151e-06 2.43715e-06 0)
(3.08619e-06 2.61701e-06 0)
(3.24922e-06 2.79623e-06 0)
(3.41062e-06 2.97459e-06 0)
(3.57045e-06 3.15191e-06 0)
(3.72881e-06 3.32806e-06 0)
(3.88582e-06 3.50288e-06 0)
(4.04165e-06 3.67622e-06 0)
(4.19649e-06 3.84791e-06 0)
(4.35053e-06 4.01771e-06 0)
(4.50409e-06 4.18532e-06 0)
(4.65731e-06 4.35024e-06 0)
(4.81081e-06 4.51218e-06 0)
(1.64442e-06 1.12001e-06 0)
(1.80692e-06 1.2893e-06 0)
(1.97152e-06 1.46223e-06 0)
(2.13558e-06 1.63837e-06 0)
(2.29985e-06 1.81657e-06 0)
(2.46339e-06 1.99617e-06 0)
(2.62625e-06 2.17651e-06 0)
(2.78809e-06 2.3571e-06 0)
(2.94886e-06 2.53751e-06 0)
(3.10846e-06 2.7174e-06 0)
(3.26689e-06 2.89651e-06 0)
(3.42417e-06 3.07459e-06 0)
(3.58036e-06 3.25144e-06 0)
(3.73557e-06 3.42686e-06 0)
(3.88991e-06 3.60065e-06 0)
(4.04354e-06 3.77259e-06 0)
(4.1966e-06 3.94239e-06 0)
(4.34934e-06 4.10972e-06 0)
(4.50186e-06 4.27402e-06 0)
(4.65462e-06 4.43494e-06 0)
(1.5567e-06 1.05163e-06 0)
(1.71181e-06 1.21792e-06 0)
(1.8693e-06 1.38866e-06 0)
(2.02675e-06 1.56321e-06 0)
(2.18486e-06 1.74036e-06 0)
(2.34276e-06 1.91938e-06 0)
(2.50048e-06 2.0995e-06 0)
(2.6577e-06 2.28015e-06 0)
(2.81436e-06 2.46085e-06 0)
(2.97032e-06 2.64117e-06 0)
(3.12558e-06 2.82077e-06 0)
(3.28013e-06 2.99937e-06 0)
(3.43399e-06 3.17671e-06 0)
(3.58725e-06 3.35254e-06 0)
(3.73997e-06 3.52662e-06 0)
(3.89227e-06 3.6987e-06 0)
(4.04426e-06 3.86847e-06 0)
(4.1961e-06 4.03556e-06 0)
(4.34785e-06 4.19939e-06 0)
(4.49981e-06 4.35958e-06 0)
(1.47137e-06 9.86897e-07 0)
(1.61912e-06 1.15035e-06 0)
(1.76948e-06 1.31895e-06 0)
(1.92026e-06 1.49187e-06 0)
(2.07212e-06 1.66788e-06 0)
(2.22426e-06 1.84615e-06 0)
(2.37673e-06 2.02586e-06 0)
(2.5292e-06 2.20637e-06 0)
(2.68161e-06 2.38711e-06 0)
(2.83381e-06 2.56762e-06 0)
(2.98578e-06 2.74749e-06 0)
(3.13748e-06 2.92638e-06 0)
(3.28891e-06 3.10398e-06 0)
(3.44011e-06 3.28003e-06 0)
(3.59113e-06 3.45426e-06 0)
(3.74203e-06 3.62637e-06 0)
(3.89288e-06 3.79606e-06 0)
(4.04377e-06 3.96295e-06 0)
(4.19471e-06 4.12646e-06 0)
(4.34582e-06 4.28622e-06 0)
(1.38698e-06 9.25572e-07 0)
(1.52737e-06 1.08639e-06 0)
(1.67057e-06 1.25295e-06 0)
(1.81465e-06 1.42425e-06 0)
(1.96022e-06 1.59905e-06 0)
(2.10656e-06 1.77646e-06 0)
(2.25371e-06 1.95559e-06 0)
(2.40138e-06 2.13576e-06 0)
(2.54948e-06 2.31633e-06 0)
(2.69788e-06 2.4968e-06 0)
(2.8465e-06 2.6767e-06 0)
(2.99531e-06 2.85566e-06 0)
(3.14426e-06 3.03333e-06 0)
(3.29338e-06 3.20942e-06 0)
(3.44265e-06 3.38362e-06 0)
(3.59212e-06 3.55567e-06 0)
(3.74181e-06 3.72522e-06 0)
(3.89172e-06 3.89194e-06 0)
(4.04183e-06 4.05529e-06 0)
(4.19209e-06 4.21493e-06 0)
(1.3021e-06 8.67572e-07 0)
(1.43508e-06 1.02597e-06 0)
(1.5711e-06 1.19057e-06 0)
(1.70846e-06 1.36028e-06 0)
(1.84772e-06 1.53382e-06 0)
(1.98827e-06 1.71025e-06 0)
(2.13012e-06 1.88866e-06 0)
(2.273e-06 2.06829e-06 0)
(2.41682e-06 2.24849e-06 0)
(2.56142e-06 2.42869e-06 0)
(2.70674e-06 2.60841e-06 0)
(2.85268e-06 2.78722e-06 0)
(2.99919e-06 2.96476e-06 0)
(3.14623e-06 3.14071e-06 0)
(3.29379e-06 3.31475e-06 0)
(3.44184e-06 3.4866e-06 0)
(3.59037e-06 3.65597e-06 0)
(3.73932e-06 3.82254e-06 0)
(3.88861e-06 3.98585e-06 0)
(4.03806e-06 4.14565e-06 0)
(1.21522e-06 8.12733e-07 0)
(1.34072e-06 9.68924e-07 0)
(1.46951e-06 1.13167e-06 0)
(1.60016e-06 1.29981e-06 0)
(1.73314e-06 1.47204e-06 0)
(1.86794e-06 1.6474e-06 0)
(2.00457e-06 1.82492e-06 0)
(2.14275e-06 2.00385e-06 0)
(2.28239e-06 2.18348e-06 0)
(2.42332e-06 2.36322e-06 0)
(2.56544e-06 2.54255e-06 0)
(2.70863e-06 2.72102e-06 0)
(2.8528e-06 2.89824e-06 0)
(2.99788e-06 3.07387e-06 0)
(3.1438e-06 3.24761e-06 0)
(3.2905e-06 3.41916e-06 0)
(3.43792e-06 3.58827e-06 0)
(3.58596e-06 3.75469e-06 0)
(3.73449e-06 3.91806e-06 0)
(3.8832e-06 4.07823e-06 0)
(1.12482e-06 7.61241e-07 0)
(1.24272e-06 9.15375e-07 0)
(1.36424e-06 1.07632e-06 0)
(1.48818e-06 1.24286e-06 0)
(1.61495e-06 1.4137e-06 0)
(1.74412e-06 1.58785e-06 0)
(1.87566e-06 1.76433e-06 0)
(2.00932e-06 1.94237e-06 0)
(2.14497e-06 2.12122e-06 0)
(2.28244e-06 2.30028e-06 0)
(2.42156e-06 2.47901e-06 0)
(2.56221e-06 2.65694e-06 0)
(2.70424e-06 2.83366e-06 0)
(2.84753e-06 3.00882e-06 0)
(2.99198e-06 3.18211e-06 0)
(3.13748e-06 3.35326e-06 0)
(3.28391e-06 3.52205e-06 0)
(3.43113e-06 3.68828e-06 0)
(3.57897e-06 3.85176e-06 0)
(3.72705e-06 4.01245e-06 0)
(1.0291e-06 7.12822e-07 0)
(1.13927e-06 8.65026e-07 0)
(1.25346e-06 1.02419e-06 0)
(1.37075e-06 1.18911e-06 0)
(1.49144e-06 1.35847e-06 0)
(1.61517e-06 1.53128e-06 0)
(1.74186e-06 1.70657e-06 0)
(1.87127e-06 1.88353e-06 0)
(2.00324e-06 2.06141e-06 0)
(2.13755e-06 2.23961e-06 0)
(2.27401e-06 2.41755e-06 0)
(2.41243e-06 2.59476e-06 0)
(2.55264e-06 2.77083e-06 0)
(2.69444e-06 2.94538e-06 0)
(2.83769e-06 3.11811e-06 0)
(2.98221e-06 3.28877e-06 0)
(3.12785e-06 3.45715e-06 0)
(3.27441e-06 3.62316e-06 0)
(3.42169e-06 3.78673e-06 0)
(3.56928e-06 3.948e-06 0)
(9.26288e-07 6.68245e-07 0)
(1.02857e-06 8.18472e-07 0)
(1.13542e-06 9.75739e-07 0)
(1.24616e-06 1.13886e-06 0)
(1.36099e-06 1.30653e-06 0)
(1.47954e-06 1.47778e-06 0)
(1.60173e-06 1.65162e-06 0)
(1.72727e-06 1.82725e-06 0)
(1.85596e-06 2.00393e-06 0)
(1.98754e-06 2.18102e-06 0)
(2.12177e-06 2.35796e-06 0)
(2.25841e-06 2.53426e-06 0)
(2.39721e-06 2.70949e-06 0)
(2.53795e-06 2.8833e-06 0)
(2.68038e-06 3.05536e-06 0)
(2.82428e-06 3.22544e-06 0)
(2.96942e-06 3.39336e-06 0)
(3.11556e-06 3.55908e-06 0)
(3.26246e-06 3.72268e-06 0)
(3.40972e-06 3.88446e-06 0)
(8.13787e-07 6.26439e-07 0)
(9.08073e-07 7.74658e-07 0)
(1.00766e-06 9.29933e-07 0)
(1.11208e-06 1.09113e-06 0)
(1.22136e-06 1.25697e-06 0)
(1.33517e-06 1.42649e-06 0)
(1.45334e-06 1.59871e-06 0)
(1.57555e-06 1.77283e-06 0)
(1.70153e-06 1.94812e-06 0)
(1.83097e-06 2.12393e-06 0)
(1.96358e-06 2.29971e-06 0)
(2.09904e-06 2.47496e-06 0)
(2.23705e-06 2.64926e-06 0)
(2.37731e-06 2.82222e-06 0)
(2.5195e-06 2.99355e-06 0)
(2.66331e-06 3.163e-06 0)
(2.80844e-06 3.33042e-06 0)
(2.95456e-06 3.4958e-06 0)
(3.10138e-06 3.65933e-06 0)
(3.24851e-06 3.82146e-06 0)
(6.90127e-07 5.89867e-07 0)
(7.76363e-07 7.35599e-07 0)
(8.68863e-07 8.88389e-07 0)
(9.67248e-07 1.04718e-06 0)
(1.07142e-06 1.21072e-06 0)
(1.18101e-06 1.37805e-06 0)
(1.29574e-06 1.54822e-06 0)
(1.41525e-06 1.72044e-06 0)
(1.53919e-06 1.89397e-06 0)
(1.66718e-06 2.06819e-06 0)
(1.79885e-06 2.24252e-06 0)
(1.93384e-06 2.41647e-06 0)
(2.07175e-06 2.58963e-06 0)
(2.21222e-06 2.76161e-06 0)
(2.35486e-06 2.93211e-06 0)
(2.49926e-06 3.10089e-06 0)
(2.64502e-06 3.26782e-06 0)
(2.79168e-06 3.43288e-06 0)
(2.93887e-06 3.59627e-06 0)
(3.08609e-06 3.75849e-06 0)
(9.88904e-08 1.06592e-08 0)
(2.98737e-07 6.57646e-08 0)
(5.11185e-07 1.68466e-07 0)
(7.38915e-07 3.11913e-07 0)
(9.863e-07 4.92219e-07 0)
(1.2547e-06 7.02973e-07 0)
(1.54519e-06 9.37325e-07 0)
(1.85726e-06 1.18809e-06 0)
(2.18999e-06 1.44801e-06 0)
(2.54161e-06 1.71113e-06 0)
(9.31525e-08 9.5159e-09 0)
(2.81608e-07 5.90206e-08 0)
(4.81434e-07 1.5227e-07 0)
(6.94707e-07 2.8371e-07 0)
(9.25413e-07 4.50413e-07 0)
(1.17481e-06 6.46988e-07 0)
(1.444e-06 8.67485e-07 0)
(1.73252e-06 1.10557e-06 0)
(2.0393e-06 1.35427e-06 0)
(2.3625e-06 1.60886e-06 0)
(8.79948e-08 8.17124e-09 0)
(2.66239e-07 5.22017e-08 0)
(4.54894e-07 1.36612e-07 0)
(6.55346e-07 2.56843e-07 0)
(8.71149e-07 4.10696e-07 0)
(1.10337e-06 5.93604e-07 0)
(1.35318e-06 8.0038e-07 0)
(1.62039e-06 1.02557e-06 0)
(1.90461e-06 1.26285e-06 0)
(2.20384e-06 1.50886e-06 0)
(8.3275e-08 6.61388e-09 0)
(2.52238e-07 4.53599e-08 0)
(4.31007e-07 1.21789e-07 0)
(6.20336e-07 2.32052e-07 0)
(8.23399e-07 3.74488e-07 0)
(1.04098e-06 5.45161e-07 0)
(1.27416e-06 7.39439e-07 0)
(1.52263e-06 9.52451e-07 0)
(1.78645e-06 1.1782e-06 0)
(2.06319e-06 1.41377e-06 0)
(7.88623e-08 4.8282e-09 0)
(2.3917e-07 3.82566e-08 0)
(4.08864e-07 1.07117e-07 0)
(5.88116e-07 2.08092e-07 0)
(7.79768e-07 3.39917e-07 0)
(9.84335e-07 4.99161e-07 0)
(1.20291e-06 6.81686e-07 0)
(1.43502e-06 8.83168e-07 0)
(1.6812e-06 1.09812e-06 0)
(1.93827e-06 1.32358e-06 0)
(7.47208e-08 2.84384e-09 0)
(2.26924e-07 3.09382e-08 0)
(3.88264e-07 9.26755e-08 0)
(5.58383e-07 1.85125e-07 0)
(7.39838e-07 3.0731e-07 0)
(9.32854e-07 4.56163e-07 0)
(1.13848e-06 6.27907e-07 0)
(1.35604e-06 8.18565e-07 0)
(1.5865e-06 1.02314e-06 0)
(1.82617e-06 1.23848e-06 0)
(7.07668e-08 6.50717e-10 0)
(2.15242e-07 2.32978e-08 0)
(3.6871e-07 7.81559e-08 0)
(5.30345e-07 1.62583e-07 0)
(7.02467e-07 2.75812e-07 0)
(8.85044e-07 4.1506e-07 0)
(1.0791e-06 5.76869e-07 0)
(1.28376e-06 7.57522e-07 0)
(1.50029e-06 9.52508e-07 0)
(1.72465e-06 1.15832e-06 0)
(6.69696e-08 -1.7227e-09 0)
(2.04026e-07 1.53679e-08 0)
(3.50016e-07 6.35685e-08 0)
(5.03688e-07 1.40449e-07 0)
(6.6716e-07 2.45388e-07 0)
(8.40168e-07 3.75802e-07 0)
(1.0237e-06 5.28477e-07 0)
(1.21674e-06 6.99863e-07 0)
(1.42074e-06 8.859e-07 0)
(1.63153e-06 1.0828e-06 0)
(6.32801e-08 -4.2778e-09 0)
(1.93129e-07 7.10527e-09 0)
(3.3191e-07 4.87757e-08 0)
(4.77985e-07 1.18462e-07 0)
(6.33303e-07 2.15645e-07 0)
(7.97402e-07 3.3788e-07 0)
(9.71235e-07 4.82157e-07 0)
(1.1537e-06 6.45041e-07 0)
(1.34631e-06 8.22843e-07 0)
(1.54498e-06 1.01156e-06 0)
(5.96715e-08 -6.99712e-09 0)
(1.82471e-07 -1.47469e-09 0)
(3.14237e-07 3.37639e-08 0)
(4.52976e-07 9.65683e-08 0)
(6.00486e-07 1.86478e-07 0)
(7.56146e-07 3.01135e-07 0)
(9.20871e-07 4.37679e-07 0)
(1.09353e-06 5.92753e-07 0)
(1.27564e-06 7.62979e-07 0)
(1.46331e-06 9.44227e-07 0)
(5.61141e-08 -9.87936e-09 0)
(1.71965e-07 -1.03922e-08 0)
(2.96837e-07 1.84658e-08 0)
(4.284e-07 7.46432e-08 0)
(5.68315e-07 1.57697e-07 0)
(7.1584e-07 2.65315e-07 0)
(8.71858e-07 3.94742e-07 0)
(1.03526e-06 5.42674e-07 0)
(1.20752e-06 7.05969e-07 0)
(1.38504e-06 8.80455e-07 0)
(5.25892e-08 -1.29192e-08 0)
(1.61559e-07 -1.96483e-08 0)
(2.79605e-07 2.86226e-09 0)
(4.04065e-07 5.26496e-08 0)
(5.36471e-07 1.29237e-07 0)
(6.76008e-07 2.3032e-07 0)
(8.2353e-07 3.53198e-07 0)
(9.7801e-07 4.94605e-07 0)
(1.14084e-06 6.5158e-07 0)
(1.30878e-06 8.19968e-07 0)
(4.90855e-08 -1.61243e-08 0)
(1.5123e-07 -2.92723e-08 0)
(2.62471e-07 -1.30981e-08 0)
(3.79816e-07 3.05201e-08 0)
(5.04676e-07 1.01012e-07 0)
(6.36208e-07 1.96037e-07 0)
(7.75262e-07 3.12904e-07 0)
(9.20939e-07 4.48371e-07 0)
(1.07455e-06 5.99606e-07 0)
(1.23323e-06 7.62523e-07 0)
(4.56025e-08 -1.95215e-08 0)
(1.40994e-07 -3.9297e-08 0)
(2.45413e-07 -2.94317e-08 0)
(3.55545e-07 8.27429e-09 0)
(4.72685e-07 7.3064e-08 0)
(5.96032e-07 1.6251e-07 0)
(7.26456e-07 2.73887e-07 0)
(8.63237e-07 4.03967e-07 0)
(1.0076e-06 5.50012e-07 0)
(1.15711e-06 7.08036e-07 0)
(4.21716e-08 -2.31605e-08 0)
(1.30976e-07 -4.98103e-08 0)
(2.28524e-07 -4.62186e-08 0)
(3.31231e-07 -1.41424e-08 0)
(4.40302e-07 4.53601e-08 0)
(5.55075e-07 1.29711e-07 0)
(6.76492e-07 2.36108e-07 0)
(8.0405e-07 3.61325e-07 0)
(9.38925e-07 5.02696e-07 0)
(1.0791e-06 6.5636e-07 0)
(3.88597e-08 -2.72116e-08 0)
(1.21385e-07 -6.09392e-08 0)
(2.1196e-07 -6.34305e-08 0)
(3.0688e-07 -3.653e-08 0)
(4.07335e-07 1.8212e-08 0)
(5.12924e-07 9.80041e-08 0)
(6.24723e-07 1.99936e-07 0)
(7.42499e-07 3.20791e-07 0)
(8.6739e-07 4.57964e-07 0)
(9.97811e-07 6.07739e-07 0)
(3.59139e-08 -3.18745e-08 0)
(1.1286e-07 -7.29353e-08 0)
(1.96252e-07 -8.12344e-08 0)
(2.82725e-07 -5.90052e-08 0)
(3.73659e-07 -8.45188e-09 0)
(4.6911e-07 6.73199e-08 0)
(5.70365e-07 1.65285e-07 0)
(6.77502e-07 2.82238e-07 0)
(7.91639e-07 4.15641e-07 0)
(9.11628e-07 5.61942e-07 0)
(3.38597e-08 -3.80202e-08 0)
(1.06143e-07 -8.61923e-08 0)
(1.81915e-07 -9.92771e-08 0)
(2.5888e-07 -8.06746e-08 0)
(3.39042e-07 -3.34883e-08 0)
(4.23068e-07 3.88939e-08 0)
(5.12569e-07 1.33375e-07 0)
(6.07939e-07 2.46823e-07 0)
(7.10299e-07 3.76784e-07 0)
(8.18924e-07 5.19905e-07 0)
(3.52542e-08 -4.62825e-08 0)
(1.03994e-07 -1.01187e-07 0)
(1.70709e-07 -1.17899e-07 0)
(2.35967e-07 -1.02049e-07 0)
(3.03216e-07 -5.75143e-08 0)
(3.73892e-07 1.19852e-08 0)
(4.4994e-07 1.03369e-07 0)
(5.32018e-07 2.13617e-07 0)
(6.21247e-07 3.40397e-07 0)
(7.17247e-07 4.80561e-07 0)
(4.55126e-08 -6.12671e-08 0)
(1.08154e-07 -1.18287e-07 0)
(1.63471e-07 -1.34747e-07 0)
(2.13905e-07 -1.19463e-07 0)
(2.65769e-07 -7.66294e-08 0)
(3.20887e-07 -9.53811e-09 0)
(3.81598e-07 7.89468e-08 0)
(4.48675e-07 1.86069e-07 0)
(5.23268e-07 3.09652e-07 0)
(6.05192e-07 4.46788e-07 0)
)
;

boundaryField
{
    left
    {
        type            fixedDisplacement;
        value           uniform (0 0 0);
    }
    right
    {
        type            solidTraction;
        tractionSeries  
{
        file            "$FOAM_CASE/constant/timeVsTraction";
        outOfBounds     clamp;
}
        pressure        uniform 0;
        secondOrder     false;
        setEffectiveTraction false;
        relaxationFactor 1;
        value           nonuniform List<vector> 
30
(
(8.18366e-06 6.00222e-06 1.55408e-21)
(7.99305e-06 5.93345e-06 1.55908e-21)
(7.80074e-06 5.86516e-06 1.59937e-21)
(7.60621e-06 5.79609e-06 1.68269e-21)
(7.40948e-06 5.72546e-06 1.80626e-21)
(7.21101e-06 5.65255e-06 1.96623e-21)
(7.01148e-06 5.57691e-06 2.15618e-21)
(6.81175e-06 5.49835e-06 2.36911e-21)
(6.61267e-06 5.41683e-06 2.5973e-21)
(6.41511e-06 5.3326e-06 2.83196e-21)
(6.22825e-06 5.24973e-06 3.00225e-21)
(6.05109e-06 5.16827e-06 3.08181e-21)
(5.87644e-06 5.0856e-06 3.13595e-21)
(5.70465e-06 5.00212e-06 3.16573e-21)
(5.5359e-06 4.91842e-06 3.16649e-21)
(5.36979e-06 4.83504e-06 3.1401e-21)
(5.20659e-06 4.75229e-06 3.09088e-21)
(5.04599e-06 4.67076e-06 3.01877e-21)
(4.88761e-06 4.59081e-06 2.92794e-21)
(4.73105e-06 4.51276e-06 2.82205e-21)
(4.57582e-06 4.43685e-06 2.70578e-21)
(4.42139e-06 4.36323e-06 2.58412e-21)
(4.26723e-06 4.29195e-06 2.46254e-21)
(4.11278e-06 4.22295e-06 2.34653e-21)
(3.95754e-06 4.15606e-06 2.24182e-21)
(3.80107e-06 4.09101e-06 2.15314e-21)
(3.64306e-06 4.02741e-06 2.08649e-21)