/*--------------------------------*- C++ -*----------------------------------*\
  =========                 |
  \\      /  F ield         | OpenFOAM: The Open Source CFD Toolbox
   \\    /   O peration     | Website:  https://openfoam.org
    \\  /    A nd           | Version:  9
     \\/     M anipulation  |
\*---------------------------------------------------------------------------*/
FoamFile
{
    format      ascii;
    class       volVectorField;
    location    "5";
    object      D_0;
}
// * * * * * * * * * * * * * * * * * * * * * * * * * * * * * * * * * * * * * //

dimensions      [0 1 0 0 0 0 0];

internalField   nonuniform List<vector> 
1000
(
(2.70537e-06 9.09035e-07 0)
(2.52446e-06 1.00392e-06 0)
(2.39287e-06 1.08379e-06 0)
(2.29778e-06 1.1462e-06 0)
(2.22993e-06 1.20008e-06 0)
(2.18206e-06 1.24642e-06 0)
(2.14966e-06 1.28818e-06 0)
(2.12909e-06 1.32621e-06 0)
(2.11749e-06 1.36169e-06 0)
(2.11342e-06 1.39532e-06 0)
(2.43804e-06 8.19688e-07 0)
(2.25018e-06 8.88598e-07 0)
(2.11444e-06 9.49062e-07 0)
(2.01679e-06 9.95719e-07 0)
(1.9472e-06 1.03671e-06 0)
(1.89793e-06 1.07195e-06 0)
(1.86417e-06 1.10391e-06 0)
(1.84208e-06 1.13313e-06 0)
(1.82872e-06 1.16024e-06 0)
(1.82212e-06 1.18669e-06 0)
(2.16501e-06 7.30155e-07 0)
(1.97542e-06 7.71392e-07 0)
(1.83924e-06 8.11633e-07 0)
(1.74178e-06 8.42348e-07 0)
(1.67256e-06 8.70666e-07 0)
(1.62355e-06 8.95254e-07 0)
(1.58974e-06 9.18049e-07 0)
(1.56721e-06 9.39155e-07 0)
(1.553e-06 9.58693e-07 0)
(1.54503e-06 9.78276e-07 0)
(1.88765e-06 6.41875e-07 0)
(1.70179e-06 6.54828e-07 0)
(1.56913e-06 6.74777e-07 0)
(1.47486e-06 6.8988e-07 0)
(1.40831e-06 7.06138e-07 0)
(1.36134e-06 7.20832e-07 0)
(1.32892e-06 7.35318e-07 0)
(1.3071e-06 7.49156e-07 0)
(1.29309e-06 7.62068e-07 0)
(1.28462e-06 7.75512e-07 0)
(1.60666e-06 5.56171e-07 0)
(1.43016e-06 5.41369e-07 0)
(1.30517e-06 5.4183e-07 0)
(1.2173e-06 5.42332e-07 0)
(1.15586e-06 5.47697e-07 0)
(1.11282e-06 5.53713e-07 0)
(1.08323e-06 5.61119e-07 0)
(1.06325e-06 5.68849e-07 0)
(1.05032e-06 5.76299e-07 0)
(1.04211e-06 5.84561e-07 0)
(1.32325e-06 4.73632e-07 0)
(1.16129e-06 4.3275e-07 0)
(1.04823e-06 4.1561e-07 0)
(9.70116e-07 4.03358e-07 0)
(9.16306e-07 3.99676e-07 0)
(8.79067e-07 3.9874e-07 0)
(8.53702e-07 4.00679e-07 0)
(8.36584e-07 4.03769e-07 0)
(8.25497e-07 4.07157e-07 0)
(8.1816e-07 4.1147e-07 0)
(1.03633e-06 3.94201e-07 0)
(8.94548e-07 3.30128e-07 0)
(7.98029e-07 2.98623e-07 0)
(7.33247e-07 2.76639e-07 0)
(6.89674e-07 2.66595e-07 0)
(6.6004e-07 2.61011e-07 0)
(6.40132e-07 2.59445e-07 0)
(6.26737e-07 2.5958e-07 0)
(6.18067e-07 2.60426e-07 0)
(6.12086e-07 2.62138e-07 0)
(7.47892e-07 3.15604e-07 0)
(6.31018e-07 2.331e-07 0)
(5.56007e-07 1.92823e-07 0)
(5.08011e-07 1.65779e-07 0)
(4.76849e-07 1.5307e-07 0)
(4.56098e-07 1.45742e-07 0)
(4.42389e-07 1.42907e-07 0)
(4.33172e-07 1.41899e-07 0)
(4.27197e-07 1.41738e-07 0)
(4.22864e-07 1.4223e-07 0)
(4.51476e-07 2.30066e-07 0)
(3.6889e-07 1.38853e-07 0)
(3.21411e-07 9.92901e-08 0)
(2.93228e-07 7.4644e-08 0)
(2.76134e-07 6.40525e-08 0)
(2.64942e-07 5.81852e-08 0)
(2.5771e-07 5.61261e-08 0)
(2.52757e-07 5.54179e-08 0)
(2.49493e-07 5.53455e-08 0)
(2.46918e-07 5.56037e-08 0)
(1.55614e-07 1.20428e-07 0)
(1.17291e-07 5.10873e-08 0)
(1.02676e-07 2.67367e-08 0)
(9.49475e-08 1.44841e-08 0)
(9.0461e-08 1.02598e-08 0)
(8.73253e-08 8.34398e-09 0)
(8.52748e-08 8.06909e-09 0)
(8.37692e-08 8.21929e-09 0)
(8.27382e-08 8.52285e-09 0)
(8.1827e-08 8.85946e-09 0)
(4.77048e-06 1.47265e-06 0)
(4.76257e-06 1.65586e-06 0)
(4.75709e-06 1.82657e-06 0)
(4.75725e-06 1.98284e-06 0)
(4.7644e-06 2.12629e-06 0)
(4.77906e-06 2.2587e-06 0)
(4.80132e-06 2.38213e-06 0)
(4.83072e-06 2.49838e-06 0)
(4.86699e-06 2.60885e-06 0)
(4.90923e-06 2.71513e-06 0)
(4.62089e-06 1.46054e-06 0)
(4.59966e-06 1.64323e-06 0)
(4.58519e-06 1.81185e-06 0)
(4.57877e-06 1.96497e-06 0)
(4.58111e-06 2.10457e-06 0)
(4.59178e-06 2.23254e-06 0)
(4.61043e-06 2.35115e-06 0)
(4.63618e-06 2.46229e-06 0)
(4.66867e-06 2.56744e-06 0)
(4.70665e-06 2.66838e-06 0)
(4.46223e-06 1.43599e-06 0)
(4.42522e-06 1.61821e-06 0)
(4.3985e-06 1.78339e-06 0)
(4.38241e-06 1.93156e-06 0)
(4.37711e-06 2.06573e-06 0)
(4.38135e-06 2.18805e-06 0)
(4.39436e-06 2.30094e-06 0)
(4.41482e-06 2.40634e-06 0)
(4.44224e-06 2.50576e-06 0)
(4.47491e-06 2.60106e-06 0)
(4.29077e-06 1.40031e-06 0)
(4.23604e-06 1.58164e-06 0)
(4.19508e-06 1.74261e-06 0)
(4.16753e-06 1.88473e-06 0)
(4.15286e-06 2.01236e-06 0)
(4.14913e-06 2.12799e-06 0)
(4.15519e-06 2.23425e-06 0)
(4.16925e-06 2.33309e-06 0)
(4.19074e-06 2.4261e-06 0)
(4.21743e-06 2.5151e-06 0)
(4.10454e-06 1.35381e-06 0)
(4.03039e-06 1.53282e-06 0)
(3.97419e-06 1.68824e-06 0)
(3.93455e-06 1.82293e-06 0)
(3.90997e-06 1.94275e-06 0)
(3.89783e-06 2.05053e-06 0)
(3.89653e-06 2.14917e-06 0)
(3.90388e-06 2.2406e-06 0)
(3.91919e-06 2.32651e-06 0)
(3.93975e-06 2.40857e-06 0)
(3.90327e-06 1.2976e-06 0)
(3.80859e-06 1.47181e-06 0)
(3.73683e-06 1.62008e-06 0)
(3.68513e-06 1.74606e-06 0)
(3.65074e-06 1.85702e-06 0)
(3.6303e-06 1.95601e-06 0)
(3.62175e-06 2.04622e-06 0)
(3.62254e-06 2.12951e-06 0)
(3.63179e-06 2.20766e-06 0)
(3.64641e-06 2.28217e-06 0)
(3.68747e-06 1.23252e-06 0)
(3.57197e-06 1.39861e-06 0)
(3.485e-06 1.53769e-06 0)
(3.42179e-06 1.65356e-06 0)
(3.3782e-06 1.75463e-06 0)
(3.35005e-06 1.84403e-06 0)
(3.3348e-06 1.92512e-06 0)
(3.32953e-06 1.99968e-06 0)
(3.33317e-06 2.06959e-06 0)
(3.34236e-06 2.13607e-06 0)
(3.45827e-06 1.15979e-06 0)
(3.32266e-06 1.3139e-06 0)
(3.22146e-06 1.44153e-06 0)
(3.14773e-06 1.54591e-06 0)
(3.09591e-06 1.6362e-06 0)
(3.06095e-06 1.71535e-06 0)
(3.03979e-06 1.78685e-06 0)
(3.02921e-06 1.85228e-06 0)
(3.02787e-06 1.91359e-06 0)
(3.03235e-06 1.97163e-06 0)
(3.21711e-06 1.08065e-06 0)
(3.0632e-06 1.21874e-06 0)
(2.9494e-06 1.33258e-06 0)
(2.8666e-06 1.42411e-06 0)
(2.80782e-06 1.50282e-06 0)
(2.76718e-06 1.57125e-06 0)
(2.74109e-06 1.63284e-06 0)
(2.72612e-06 1.68895e-06 0)
(2.72052e-06 1.74143e-06 0)
(2.72115e-06 1.79092e-06 0)
(2.96559e-06 9.96548e-07 0)
(2.79626e-06 1.11474e-06 0)
(2.67213e-06 1.21256e-06 0)
(2.58208e-06 1.29002e-06 0)
(2.51786e-06 1.35653e-06 0)
(2.47283e-06 1.41395e-06 0)
(2.44294e-06 1.46557e-06 0)
(2.42455e-06 1.51237e-06 0)
(2.41556e-06 1.55615e-06 0)
(2.41346e-06 1.59653e-06 0)
(4.95971e-06 2.81736e-06 0)
(5.01766e-06 2.91883e-06 0)
(5.08007e-06 3.01866e-06 0)
(5.14642e-06 3.11735e-06 0)
(5.21638e-06 3.21538e-06 0)
(5.28954e-06 3.31304e-06 0)
(5.3656e-06 3.41068e-06 0)
(5.44423e-06 3.5085e-06 0)
(5.52516e-06 3.60674e-06 0)
(5.60813e-06 3.70555e-06 0)
(5.6929e-06 3.8051e-06 0)
(5.77925e-06 3.90549e-06 0)
(5.86694e-06 4.00684e-06 0)
(5.9558e-06 4.10924e-06 0)
(6.0456e-06 4.21273e-06 0)
(6.13615e-06 4.31734e-06 0)
(6.22726e-06 4.42306e-06 0)
(6.31872e-06 4.52981e-06 0)
(6.41037e-06 4.63741e-06 0)
(6.50201e-06 4.74552e-06 0)
(4.75926e-06 2.76674e-06 0)
(4.82436e-06 2.86651e-06 0)
(4.89294e-06 2.96475e-06 0)
(4.96446e-06 3.06203e-06 0)
(5.03881e-06 3.15886e-06 0)
(5.11565e-06 3.25551e-06 0)
(5.19481e-06 3.35232e-06 0)
(5.27604e-06 3.44948e-06 0)
(5.35915e-06 3.54723e-06 0)
(5.44394e-06 3.6457e-06 0)
(5.53024e-06 3.74506e-06 0)
(5.61788e-06 3.8454e-06 0)
(5.70671e-06 3.94685e-06 0)
(5.79657e-06 4.04946e-06 0)
(5.88731e-06 4.15331e-06 0)
(5.97879e-06 4.25842e-06 0)
(6.07087e-06 4.36476e-06 0)
(6.1634e-06 4.47226e-06 0)
(6.25625e-06 4.58075e-06 0)
(6.34921e-06 4.68994e-06 0)
(4.53044e-06 2.69651e-06 0)
(4.60474e-06 2.79645e-06 0)
(4.68155e-06 2.89491e-06 0)
(4.76018e-06 2.99238e-06 0)
(4.84079e-06 3.08947e-06 0)
(4.92307e-06 3.1864e-06 0)
(5.00701e-06 3.28357e-06 0)
(5.09241e-06 3.38115e-06 0)
(5.17919e-06 3.47938e-06 0)
(5.26723e-06 3.57841e-06 0)
(5.35643e-06 3.67839e-06 0)
(5.44668e-06 3.77945e-06 0)
(5.53789e-06 3.88169e-06 0)
(5.62995e-06 3.98518e-06 0)
(5.72277e-06 4.09e-06 0)
(5.81627e-06 4.19619e-06 0)
(5.91034e-06 4.30375e-06 0)
(6.00487e-06 4.41265e-06 0)
(6.09975e-06 4.5228e-06 0)
(6.19472e-06 4.63403e-06 0)
(4.2766e-06 2.6082e-06 0)
(4.36183e-06 2.70976e-06 0)
(4.44864e-06 2.8099e-06 0)
(4.53603e-06 2.90885e-06 0)
(4.62453e-06 3.00743e-06 0)
(4.71379e-06 3.10576e-06 0)
(4.80398e-06 3.20431e-06 0)
(4.89496e-06 3.30325e-06 0)
(4.98676e-06 3.40284e-06 0)
(5.07931e-06 3.50325e-06 0)
(5.17261e-06 3.60463e-06 0)
(5.2666e-06 3.70712e-06 0)
(5.36126e-06 3.81084e-06 0)
(5.45653e-06 3.91586e-06 0)
(5.55239e-06 4.02229e-06 0)
(5.64879e-06 4.13019e-06 0)
(5.74566e-06 4.23959e-06 0)
(5.84292e-06 4.35054e-06 0)
(5.94048e-06 4.46305e-06 0)
(6.03808e-06 4.57706e-06 0)
(4.00326e-06 2.50012e-06 0)
(4.10072e-06 2.60493e-06 0)
(4.19885e-06 2.70842e-06 0)
(4.29625e-06 2.81033e-06 0)
(4.39387e-06 2.91177e-06 0)
(4.49128e-06 3.01276e-06 0)
(4.58885e-06 3.11385e-06 0)
(4.68648e-06 3.21522e-06 0)
(4.78432e-06 3.31716e-06 0)
(4.88235e-06 3.41984e-06 0)
(4.98066e-06 3.52346e-06 0)
(5.07926e-06 3.62816e-06 0)
(5.17818e-06 3.73408e-06 0)
(5.27743e-06 3.84133e-06 0)
(5.37703e-06 3.95001e-06 0)
(5.47697e-06 4.06024e-06 0)
(5.57724e-06 4.1721e-06 0)
(5.67779e-06 4.28569e-06 0)
(5.77857e-06 4.40116e-06 0)
(5.87934e-06 4.51855e-06 0)
(3.71487e-06 2.37291e-06 0)
(3.82549e-06 2.4825e-06 0)
(3.93595e-06 2.59088e-06 0)
(4.04427e-06 2.69714e-06 0)
(4.15195e-06 2.80274e-06 0)
(4.25839e-06 2.90759e-06 0)
(4.36422e-06 3.01233e-06 0)
(4.46933e-06 3.11716e-06 0)
(4.57401e-06 3.2224e-06 0)
(4.6783e-06 3.32825e-06 0)
(4.78234e-06 3.43493e-06 0)
(4.88622e-06 3.54261e-06 0)
(4.99003e-06 3.65145e-06 0)
(5.09384e-06 3.76159e-06 0)
(5.19771e-06 3.87316e-06 0)
(5.30169e-06 3.98631e-06 0)
(5.40583e-06 4.10118e-06 0)
(5.51009e-06 4.21794e-06 0)
(5.61449e-06 4.33686e-06 0)
(5.71885e-06 4.45804e-06 0)
(3.41621e-06 2.22679e-06 0)
(3.54046e-06 2.34271e-06 0)
(3.66385e-06 2.45748e-06 0)
(3.7837e-06 2.56951e-06 0)
(3.90203e-06 2.68053e-06 0)
(4.01815e-06 2.79044e-06 0)
(4.13284e-06 2.89992e-06 0)
(4.24604e-06 3.00922e-06 0)
(4.35813e-06 3.11869e-06 0)
(4.46921e-06 3.22859e-06 0)
(4.5795e-06 3.33916e-06 0)
(4.68915e-06 3.45059e-06 0)
(4.79831e-06 3.56307e-06 0)
(4.90709e-06 3.67676e-06 0)
(5.01563e-06 3.79185e-06 0)
(5.12401e-06 3.90849e-06 0)
(5.23232e-06 4.0269e-06 0)
(5.34062e-06 4.14728e-06 0)
(5.44893e-06 4.27e-06 0)
(5.55721e-06 4.39525e-06 0)
(3.11176e-06 2.06307e-06 0)
(3.24969e-06 2.18676e-06 0)
(3.38616e-06 2.30914e-06 0)
(3.51782e-06 2.42825e-06 0)
(3.64708e-06 2.54583e-06 0)
(3.77325e-06 2.66194e-06 0)
(3.89716e-06 2.77721e-06 0)
(4.01887e-06 2.89198e-06 0)
(4.13876e-06 3.00661e-06 0)
(4.25704e-06 3.12141e-06 0)
(4.37397e-06 3.23664e-06 0)
(4.48974e-06 3.35255e-06 0)
(4.60456e-06 3.46935e-06 0)
(4.71861e-06 3.58723e-06 0)
(4.83207e-06 3.70639e-06 0)
(4.94508e-06 3.82704e-06 0)
(5.05778e-06 3.94943e-06 0)
(5.1703e-06 4.0738e-06 0)
(5.28271e-06 4.20061e-06 0)
(5.39513e-06 4.33009e-06 0)
(2.8061e-06 1.88329e-06 0)
(2.95734e-06 2.01627e-06 0)
(3.10655e-06 2.1472e-06 0)
(3.25009e-06 2.27459e-06 0)
(3.39024e-06 2.39968e-06 0)
(3.52658e-06 2.5229e-06 0)
(3.65983e-06 2.64482e-06 0)
(3.79019e-06 2.76587e-06 0)
(3.91805e-06 2.88647e-06 0)
(4.04371e-06 3.00696e-06 0)
(4.16744e-06 3.12763e-06 0)
(4.28952e-06 3.24874e-06 0)
(4.41019e-06 3.37054e-06 0)
(4.52968e-06 3.49324e-06 0)
(4.64821e-06 3.61706e-06 0)
(4.76599e-06 3.74223e-06 0)
(4.88319e-06 3.86903e-06 0)
(5.00004e-06 3.99773e-06 0)
(5.11665e-06 4.12882e-06 0)
(5.23331e-06 4.26258e-06 0)
(2.50278e-06 1.69021e-06 0)
(2.66665e-06 1.83342e-06 0)
(2.82726e-06 1.97317e-06 0)
(2.9824e-06 2.10973e-06 0)
(3.13325e-06 2.24334e-06 0)
(3.2798e-06 2.37465e-06 0)
(3.42253e-06 2.50414e-06 0)
(3.56172e-06 2.63232e-06 0)
(3.69774e-06 2.75964e-06 0)
(3.83093e-06 2.88649e-06 0)
(3.96162e-06 3.01321e-06 0)
(4.09011e-06 3.14012e-06 0)
(4.21672e-06 3.26746e-06 0)
(4.34171e-06 3.39549e-06 0)
(4.46535e-06 3.52445e-06 0)
(4.58792e-06 3.65456e-06 0)
(4.70964e-06 3.78611e-06 0)
(4.8308e-06 3.91939e-06 0)
(4.9516e-06 4.0549e-06 0)
(5.07249e-06 4.19292e-06 0)
(2.26883e-06 1.54542e-06 0)
(2.4397e-06 1.69608e-06 0)
(2.6063e-06 1.84081e-06 0)
(2.76773e-06 1.9826e-06 0)
(2.92465e-06 2.12142e-06 0)
(3.07708e-06 2.25788e-06 0)
(3.22544e-06 2.39243e-06 0)
(3.36995e-06 2.52552e-06 0)
(3.51097e-06 2.65757e-06 0)
(3.64882e-06 2.78893e-06 0)
(3.78383e-06 2.91994e-06 0)
(3.91631e-06 3.05089e-06 0)
(4.04656e-06 3.18203e-06 0)
(4.1749e-06 3.3136e-06 0)
(4.30161e-06 3.44583e-06 0)
(4.42699e-06 3.57894e-06 0)
(4.55131e-06 3.71318e-06 0)
(4.67493e-06 3.84883e-06 0)
(4.79805e-06 3.98631e-06 0)
(4.92132e-06 4.12588e-06 0)
(2.11273e-06 1.45879e-06 0)
(2.28362e-06 1.60942e-06 0)
(2.45028e-06 1.75534e-06 0)
(2.61224e-06 1.89873e-06 0)
(2.76996e-06 2.03952e-06 0)
(2.9234e-06 2.17815e-06 0)
(3.0729e-06 2.31497e-06 0)
(3.21861e-06 2.45034e-06 0)
(3.36086e-06 2.5846e-06 0)
(3.4999e-06 2.71806e-06 0)
(3.63603e-06 2.85101e-06 0)
(3.76954e-06 2.9837e-06 0)
(3.90073e-06 3.11635e-06 0)
(4.02988e-06 3.24919e-06 0)
(4.15729e-06 3.3824e-06 0)
(4.28327e-06 3.51619e-06 0)
(4.40808e-06 3.65076e-06 0)
(4.53213e-06 3.78634e-06 0)
(4.65563e-06 3.92327e-06 0)
(4.77932e-06 4.06174e-06 0)
(1.97494e-06 1.3756e-06 0)
(2.14276e-06 1.52579e-06 0)
(2.30772e-06 1.67213e-06 0)
(2.46844e-06 1.81648e-06 0)
(2.62552e-06 1.9587e-06 0)
(2.77867e-06 2.09905e-06 0)
(2.92818e-06 2.23778e-06 0)
(3.07411e-06 2.37515e-06 0)
(3.21672e-06 2.51143e-06 0)
(3.3562e-06 2.64685e-06 0)
(3.49282e-06 2.78165e-06 0)
(3.62683e-06 2.91604e-06 0)
(3.75849e-06 3.05019e-06 0)
(3.88809e-06 3.18428e-06 0)
(4.01589e-06 3.31848e-06 0)
(4.14221e-06 3.45293e-06 0)
(4.26734e-06 3.58781e-06 0)
(4.39166e-06 3.72327e-06 0)
(4.51543e-06 3.85953e-06 0)
(4.63941e-06 3.99672e-06 0)
(1.85144e-06 1.29547e-06 0)
(2.01524e-06 1.44445e-06 0)
(2.17724e-06 1.59065e-06 0)
(2.33557e-06 1.73558e-06 0)
(2.49088e-06 1.87888e-06 0)
(2.6427e-06 2.02067e-06 0)
(2.79126e-06 2.16109e-06 0)
(2.93654e-06 2.30028e-06 0)
(3.07872e-06 2.43842e-06 0)
(3.21796e-06 2.57569e-06 0)
(3.35446e-06 2.71225e-06 0)
(3.48844e-06 2.84825e-06 0)
(3.62014e-06 2.98384e-06 0)
(3.74981e-06 3.11915e-06 0)
(3.87772e-06 3.25429e-06 0)
(4.00415e-06 3.38938e-06 0)
(4.12938e-06 3.52451e-06 0)
(4.25381e-06 3.65981e-06 0)
(4.37772e-06 3.79535e-06 0)
(4.50186e-06 3.93116e-06 0)
(1.74081e-06 1.21926e-06 0)
(1.89969e-06 1.36656e-06 0)
(2.05772e-06 1.51216e-06 0)
(2.21268e-06 1.65717e-06 0)
(2.36528e-06 1.8011e-06 0)
(2.51488e-06 1.94394e-06 0)
(2.66168e-06 2.0857e-06 0)
(2.80555e-06 2.22642e-06 0)
(2.94664e-06 2.36619e-06 0)
(3.08502e-06 2.5051e-06 0)
(3.22087e-06 2.64325e-06 0)
(3.35436e-06 2.78075e-06 0)
(3.48569e-06 2.91768e-06 0)
(3.6151e-06 3.05413e-06 0)
(3.74282e-06 3.19016e-06 0)
(3.8691e-06 3.32583e-06 0)
(3.99427e-06 3.46119e-06 0)
(4.11858e-06 3.59627e-06 0)
(4.24258e-06 3.73098e-06 0)
(4.36681e-06 3.86537e-06 0)
(1.64093e-06 1.14691e-06 0)
(1.7944e-06 1.29213e-06 0)
(1.94778e-06 1.4367e-06 0)
(2.09871e-06 1.5814e-06 0)
(2.24789e-06 1.72559e-06 0)
(2.39458e-06 1.86915e-06 0)
(2.53893e-06 2.01195e-06 0)
(2.68076e-06 2.15393e-06 0)
(2.82016e-06 2.29509e-06 0)
(2.95715e-06 2.43544e-06 0)
(3.09187e-06 2.57502e-06 0)
(3.22444e-06 2.71386e-06 0)
(3.35505e-06 2.852e-06 0)
(3.48389e-06 2.98948e-06 0)
(3.61116e-06 3.12632e-06 0)
(3.73712e-06 3.26251e-06 0)
(3.86201e-06 3.39805e-06 0)
(3.98621e-06 3.53283e-06 0)
(4.10995e-06 3.66676e-06 0)
(4.23395e-06 3.79982e-06 0)
(1.55006e-06 1.07847e-06 0)
(1.69781e-06 1.22136e-06 0)
(1.84608e-06 1.36461e-06 0)
(1.99248e-06 1.50866e-06 0)
(2.1377e-06 1.65278e-06 0)
(2.28093e-06 1.79673e-06 0)
(2.42231e-06 1.94026e-06 0)
(2.56158e-06 2.08322e-06 0)
(2.69879e-06 2.22551e-06 0)
(2.83394e-06 2.36708e-06 0)
(2.96712e-06 2.50787e-06 0)
(3.09842e-06 2.64789e-06 0)
(3.22798e-06 2.7871e-06 0)
(3.35596e-06 2.92549e-06 0)
(3.48256e-06 3.06303e-06 0)
(3.60799e-06 3.19967e-06 0)
(3.73246e-06 3.33532e-06 0)
(3.85633e-06 3.46986e-06 0)
(3.97978e-06 3.60304e-06 0)
(4.10349e-06 3.73475e-06 0)
(1.46652e-06 1.01378e-06 0)
(1.60838e-06 1.15419e-06 0)
(1.75127e-06 1.29589e-06 0)
(1.89281e-06 1.43903e-06 0)
(2.03368e-06 1.58281e-06 0)
(2.17305e-06 1.72688e-06 0)
(2.31102e-06 1.87086e-06 0)
(2.44731e-06 2.01454e-06 0)
(2.58195e-06 2.15772e-06 0)
(2.71489e-06 2.30027e-06 0)
(2.84618e-06 2.44208e-06 0)
(2.97589e-06 2.58308e-06 0)
(3.10413e-06 2.7232e-06 0)
(3.23103e-06 2.86237e-06 0)
(3.35674e-06 3.0005e-06 0)
(3.48146e-06 3.13751e-06 0)
(3.60538e-06 3.27324e-06 0)
(3.72879e-06 3.40751e-06 0)
(3.85185e-06 3.54e-06 0)
(3.97515e-06 3.67053e-06 0)
(1.38878e-06 9.52655e-07 0)
(1.52471e-06 1.09053e-06 0)
(1.66204e-06 1.23055e-06 0)
(1.79851e-06 1.3726e-06 0)
(1.93474e-06 1.51582e-06 0)
(2.06995e-06 1.65976e-06 0)
(2.2042e-06 1.80396e-06 0)
(2.3372e-06 1.94811e-06 0)
(2.46895e-06 2.09194e-06 0)
(2.59938e-06 2.23525e-06 0)
(2.7285e-06 2.37787e-06 0)
(2.85637e-06 2.51967e-06 0)
(2.98306e-06 2.66052e-06 0)
(3.10867e-06 2.80031e-06 0)
(3.23333e-06 2.93893e-06 0)
(3.35721e-06 3.07622e-06 0)
(3.48044e-06 3.21199e-06 0)
(3.60328e-06 3.34602e-06 0)
(3.72586e-06 3.4779e-06 0)
(3.84866e-06 3.6074e-06 0)
(1.31544e-06 8.94852e-07 0)
(1.44545e-06 1.03022e-06 0)
(1.57713e-06 1.16849e-06 0)
(1.70839e-06 1.30934e-06 0)
(1.83981e-06 1.45184e-06 0)
(1.97064e-06 1.59546e-06 0)
(2.10094e-06 1.73966e-06 0)
(2.23041e-06 1.88407e-06 0)
(2.35903e-06 2.02833e-06 0)
(2.48672e-06 2.17218e-06 0)
(2.61346e-06 2.31541e-06 0)
(2.73929e-06 2.45781e-06 0)
(2.86424e-06 2.59922e-06 0)
(2.98841e-06 2.73949e-06 0)
(3.11188e-06 2.87846e-06 0)
(3.23478e-06 3.01595e-06 0)
(3.35723e-06 3.15173e-06 0)
(3.47943e-06 3.28554e-06 0)
(3.60144e-06 3.41692e-06 0)
(3.72365e-06 3.54561e-06 0)
(1.24523e-06 8.40145e-07 0)
(1.36932e-06 9.73106e-07 0)
(1.49532e-06 1.10963e-06 0)
(1.62128e-06 1.2492e-06 0)
(1.74777e-06 1.39087e-06 0)
(1.87409e-06 1.53401e-06 0)
(2.00028e-06 1.67805e-06 0)
(2.12605e-06 1.82251e-06 0)
(2.25138e-06 1.967e-06 0)
(2.37615e-06 2.11119e-06 0)
(2.50036e-06 2.25481e-06 0)
(2.624e-06 2.39763e-06 0)
(2.74709e-06 2.53943e-06 0)
(2.86969e-06 2.68003e-06 0)
(2.99187e-06 2.81924e-06 0)
(3.11371e-06 2.95684e-06 0)
(3.2353e-06 3.09259e-06 0)
(3.35678e-06 3.22621e-06 0)
(3.47818e-06 3.35721e-06 0)
(3.59974e-06 3.48531e-06 0)
(1.17694e-06 7.88347e-07 0)
(1.29513e-06 9.19038e-07 0)
(1.41542e-06 1.05386e-06 0)
(1.53605e-06 1.19213e-06 0)
(1.65753e-06 1.33287e-06 0)
(1.77925e-06 1.47543e-06 0)
(1.90123e-06 1.61913e-06 0)
(2.0232e-06 1.76348e-06 0)
(2.14513e-06 1.90801e-06 0)
(2.26689e-06 2.05235e-06 0)
(2.38847e-06 2.19618e-06 0)
(2.50982e-06 2.33923e-06 0)
(2.63097e-06 2.48125e-06 0)
(2.75193e-06 2.62203e-06 0)
(2.87274e-06 2.76134e-06 0)
(2.99346e-06 2.89897e-06 0)
(3.11414e-06 3.03466e-06 0)
(3.23485e-06 3.16812e-06 0)
(3.3556e-06 3.29887e-06 0)
(3.47649e-06 3.42663e-06 0)
(1.10939e-06 7.39277e-07 0)
(1.22169e-06 8.67865e-07 0)
(1.33625e-06 1.00104e-06 0)
(1.45151e-06 1.13803e-06 0)
(1.56796e-06 1.2778e-06 0)
(1.68504e-06 1.41967e-06 0)
(1.80276e-06 1.56291e-06 0)
(1.92089e-06 1.70698e-06 0)
(2.03937e-06 1.85138e-06 0)
(2.15808e-06 1.99568e-06 0)
(2.27699e-06 2.13954e-06 0)
(2.39603e-06 2.28264e-06 0)
(2.51519e-06 2.42472e-06 0)
(2.63448e-06 2.56553e-06 0)
(2.7539e-06 2.70483e-06 0)
(2.87348e-06 2.8424e-06 0)
(2.99322e-06 2.97798e-06 0)
(3.11315e-06 3.11131e-06 0)
(3.23324e-06 3.24192e-06 0)
(3.35345e-06 3.36958e-06 0)
(1.04145e-06 6.92867e-07 0)
(1.14782e-06 8.1952e-07 0)
(1.25663e-06 9.51139e-07 0)
(1.36652e-06 1.08684e-06 0)
(1.47792e-06 1.22561e-06 0)
(1.59035e-06 1.36669e-06 0)
(1.70383e-06 1.50935e-06 0)
(1.81813e-06 1.653e-06 0)
(1.93318e-06 1.79709e-06 0)
(2.04887e-06 1.94119e-06 0)
(2.16512e-06 2.0849e-06 0)
(2.28186e-06 2.22789e-06 0)
(2.39907e-06 2.36986e-06 0)
(2.51671e-06 2.51055e-06 0)
(2.63475e-06 2.64972e-06 0)
(2.75319e-06 2.78715e-06 0)
(2.87201e-06 2.92258e-06 0)
(2.99117e-06 3.05578e-06 0)
(3.1106e-06 3.18637e-06 0)
(3.23016e-06 3.31415e-06 0)
(9.71904e-07 6.48986e-07 0)
(1.07229e-06 7.73874e-07 0)
(1.17532e-06 9.0401e-07 0)
(1.27983e-06 1.03846e-06 0)
(1.38621e-06 1.17618e-06 0)
(1.49404e-06 1.3164e-06 0)
(1.60333e-06 1.45836e-06 0)
(1.71387e-06 1.60144e-06 0)
(1.82558e-06 1.74508e-06 0)
(1.93833e-06 1.88881e-06 0)
(2.05202e-06 2.0322e-06 0)
(2.16656e-06 2.17492e-06 0)
(2.2819e-06 2.31663e-06 0)
(2.39796e-06 2.45708e-06 0)
(2.5147e-06 2.596e-06 0)
(2.63206e-06 2.73319e-06 0)
(2.74999e-06 2.86841e-06 0)
(2.86842e-06 3.00149e-06 0)
(2.98724e-06 3.13213e-06 0)
(3.10621e-06 3.26021e-06 0)
(8.99541e-07 6.07782e-07 0)
(9.93851e-07 7.31024e-07 0)
(1.09105e-06 8.59716e-07 0)
(1.19019e-06 9.92887e-07 0)
(1.2916e-06 1.12949e-06 0)
(1.39493e-06 1.26875e-06 0)
(1.50015e-06 1.40988e-06 0)
(1.60707e-06 1.55224e-06 0)
(1.71559e-06 1.69526e-06 0)
(1.82556e-06 1.83845e-06 0)
(1.93686e-06 1.98136e-06 0)
(2.04937e-06 2.12364e-06 0)
(2.16299e-06 2.26496e-06 0)
(2.27763e-06 2.40502e-06 0)
(2.39318e-06 2.54359e-06 0)
(2.50958e-06 2.68046e-06 0)
(2.62672e-06 2.81542e-06 0)
(2.7445e-06 2.94835e-06 0)
(2.86277e-06 3.07907e-06 0)
(2.98123e-06 3.20757e-06 0)
(8.22918e-07 5.69035e-07 0)
(9.11035e-07 6.90733e-07 0)
(1.00237e-06 8.18005e-07 0)
(1.09619e-06 9.49875e-07 0)
(1.19274e-06 1.0853e-06 0)
(1.29171e-06 1.22349e-06 0)
(1.39306e-06 1.36366e-06 0)
(1.49658e-06 1.50516e-06 0)
(1.60215e-06 1.6474e-06 0)
(1.70959e-06 1.7899e-06 0)
(1.81875e-06 1.93219e-06 0)
(1.92949e-06 2.07389e-06 0)
(2.04165e-06 2.21468e-06 0)
(2.15509e-06 2.35426e-06 0)
(2.26969e-06 2.49238e-06 0)
(2.38531e-06 2.62885e-06 0)
(2.50182e-06 2.76349e-06 0)
(2.61906e-06 2.89624e-06 0)
(2.73688e-06 3.02704e-06 0)
(2.85495e-06 3.156e-06 0)
(7.40619e-07 5.3336e-07 0)
(8.22424e-07 6.53477e-07 0)
(9.07889e-07 7.79228e-07 0)
(9.96469e-07 9.09661e-07 0)
(1.08831e-06 1.04374e-06 0)
(1.18315e-06 1.18067e-06 0)
(1.28089e-06 1.31969e-06 0)
(1.38132e-06 1.46013e-06 0)
(1.48426e-06 1.6014e-06 0)
(1.58952e-06 1.74301e-06 0)
(1.6969e-06 1.8845e-06 0)
(1.80621e-06 2.02548e-06 0)
(1.91725e-06 2.1656e-06 0)
(2.02983e-06 2.30458e-06 0)
(2.14378e-06 2.44217e-06 0)
(2.2589e-06 2.57817e-06 0)
(2.37501e-06 2.71245e-06 0)
(2.49192e-06 2.84496e-06 0)
(2.60944e-06 2.97578e-06 0)
(2.72725e-06 3.10515e-06 0)
(6.50562e-07 4.999e-07 0)
(7.25969e-07 6.18411e-07 0)
(8.05623e-07 7.42567e-07 0)
(8.89138e-07 8.71464e-07 0)
(9.76548e-07 1.00407e-06 0)
(1.06759e-06 1.13962e-06 0)
(1.16212e-06 1.27734e-06 0)
(1.25988e-06 1.41657e-06 0)
(1.36066e-06 1.55674e-06 0)
(1.46421e-06 1.69733e-06 0)
(1.57029e-06 1.83789e-06 0)
(1.67866e-06 1.97803e-06 0)
(1.78906e-06 2.1174e-06 0)
(1.90126e-06 2.25571e-06 0)
(2.01501e-06 2.39271e-06 0)
(2.13006e-06 2.52821e-06 0)
(2.24617e-06 2.66208e-06 0)
(2.36307e-06 2.79433e-06 0)
(2.48052e-06 2.92509e-06 0)
(2.59822e-06 3.05473e-06 0)
(5.51571e-07 4.70624e-07 0)
(6.20537e-07 5.87144e-07 0)
(6.94518e-07 7.09313e-07 0)
(7.7321e-07 8.36282e-07 0)
(8.56534e-07 9.6705e-07 0)
(9.44194e-07 1.10085e-06 0)
(1.03597e-06 1.23693e-06 0)
(1.13158e-06 1.37464e-06 0)
(1.23072e-06 1.51341e-06 0)
(1.33311e-06 1.65272e-06 0)
(1.43845e-06 1.79212e-06 0)
(1.54643e-06 1.93122e-06 0)
(1.65677e-06 2.06968e-06 0)
(1.76914e-06 2.2072e-06 0)
(1.88325e-06 2.34354e-06 0)
(1.99877e-06 2.47851e-06 0)
(2.11537e-06 2.61199e-06 0)
(2.23271e-06 2.74397e-06 0)
(2.35046e-06 2.87463e-06 0)
(2.46823e-06 3.00434e-06 0)
(7.91031e-08 8.44802e-09 0)
(2.38964e-07 5.23807e-08 0)
(4.08916e-07 1.34404e-07 0)
(5.91103e-07 2.49035e-07 0)
(7.89024e-07 3.93165e-07 0)
(1.00377e-06 5.61667e-07 0)
(1.23619e-06 7.49057e-07 0)
(1.48588e-06 9.49587e-07 0)
(1.75211e-06 1.15745e-06 0)
(2.03346e-06 1.36788e-06 0)
(7.45113e-08 7.53276e-09 0)
(2.25256e-07 4.69837e-08 0)
(3.85107e-07 1.21444e-07 0)
(5.55725e-07 2.2647e-07 0)
(7.40299e-07 3.59719e-07 0)
(9.39838e-07 5.16877e-07 0)
(1.15522e-06 6.93184e-07 0)
(1.38607e-06 8.83568e-07 0)
(1.63153e-06 1.08245e-06 0)
(1.89013e-06 1.28605e-06 0)
(7.03836e-08 6.45645e-09 0)
(2.12957e-07 4.15267e-08 0)
(3.63867e-07 1.08915e-07 0)
(5.24225e-07 2.04973e-07 0)
(6.96873e-07 3.27942e-07 0)
(8.82663e-07 4.74166e-07 0)
(1.08254e-06 6.39496e-07 0)
(1.29634e-06 8.19569e-07 0)
(1.52375e-06 1.00932e-06 0)
(1.76318e-06 1.20605e-06 0)
(6.66063e-08 5.21006e-09 0)
(2.01752e-07 3.60514e-08 0)
(3.44751e-07 9.70536e-08 0)
(4.96207e-07 1.85137e-07 0)
(6.58659e-07 2.98972e-07 0)
(8.32732e-07 4.35408e-07 0)
(1.0193e-06 5.90739e-07 0)
(1.21811e-06 7.61066e-07 0)
(1.42919e-06 9.41589e-07 0)
(1.65062e-06 1.12997e-06 0)
(6.30748e-08 3.78093e-09 0)
(1.91293e-07 3.03668e-08 0)
(3.2703e-07 8.53133e-08 0)
(4.70422e-07 1.65965e-07 0)
(6.23743e-07 2.7131e-07 0)
(7.87404e-07 3.98603e-07 0)
(9.62277e-07 5.44531e-07 0)
(1.14799e-06 7.05633e-07 0)
(1.34497e-06 8.77519e-07 0)
(1.55066e-06 1.05782e-06 0)
(5.97603e-08 2.19275e-09 0)
(1.81493e-07 2.451e-08 0)
(3.10544e-07 7.37567e-08 0)
(4.46627e-07 1.47587e-07 0)
(5.91787e-07 2.45219e-07 0)
(7.46204e-07 3.64199e-07 0)
(9.10714e-07 5.01502e-07 0)
(1.08478e-06 6.53946e-07 0)
(1.26918e-06 8.17533e-07 0)
(1.46094e-06 9.89733e-07 0)
(5.65959e-08 4.37538e-10 0)
(1.72143e-07 1.83953e-08 0)
(2.94896e-07 6.21374e-08 0)
(4.24188e-07 1.29548e-07 0)
(5.61879e-07 2.20015e-07 0)
(7.07942e-07 3.3131e-07 0)
(8.63192e-07 4.60665e-07 0)
(1.02694e-06 6.05104e-07 0)
(1.20019e-06 7.61017e-07 0)
(1.3797e-06 9.256e-07 0)
(5.35568e-08 -1.46209e-09 0)
(1.63167e-07 1.20487e-08 0)
(2.79934e-07 5.04633e-08 0)
(4.02854e-07 1.11836e-07 0)
(5.33623e-07 1.9567e-07 0)
(6.72026e-07 2.99897e-07 0)
(8.18855e-07 4.21944e-07 0)
(9.73302e-07 5.5897e-07 0)
(1.13652e-06 7.07723e-07 0)
(1.30518e-06 8.65175e-07 0)
(5.06038e-08 -3.50716e-09 0)
(1.54446e-07 5.43551e-09 0)
(2.65444e-07 3.86244e-08 0)
(3.82284e-07 9.42404e-08 0)
(5.06527e-07 1.71869e-07 0)
(6.37801e-07 2.69553e-07 0)
(7.76868e-07 3.84881e-07 0)
(9.22848e-07 5.15104e-07 0)
(1.07695e-06 6.5727e-07 0)
(1.23591e-06 8.08173e-07 0)
(4.77156e-08 -5.68388e-09 0)
(1.45915e-07 -1.432e-09 0)
(2.513e-07 2.66097e-08 0)
(3.62269e-07 7.67193e-08 0)
(4.80262e-07 1.48528e-07 0)
(6.04782e-07 2.40148e-07 0)
(7.3656e-07 3.4929e-07 0)
(8.74691e-07 4.73265e-07 0)
(1.02039e-06 6.0937e-07 0)
(1.17054e-06 7.54298e-07 0)
(4.48684e-08 -7.99104e-09 0)
(1.37507e-07 -8.57003e-09 0)
(2.37374e-07 1.43653e-08 0)
(3.426e-07 5.91721e-08 0)
(4.54515e-07 1.25495e-07 0)
(5.72524e-07 2.11485e-07 0)
(6.97333e-07 3.14932e-07 0)
(8.28057e-07 4.33193e-07 0)
(9.65869e-07 5.63753e-07 0)
(1.10789e-06 7.03271e-07 0)
(4.20471e-08 -1.04247e-08 0)
(1.29178e-07 -1.59796e-08 0)
(2.23583e-07 1.87587e-09 0)
(3.23124e-07 4.15694e-08 0)
(4.2903e-07 1.02719e-07 0)
(5.40645e-07 1.8348e-07 0)
(6.58653e-07 2.81688e-07 0)
(7.82234e-07 3.94729e-07 0)
(9.12501e-07 5.20232e-07 0)
(1.04686e-06 6.54873e-07 0)
(3.92427e-08 -1.29908e-08 0)
(1.20912e-07 -2.36842e-08 0)
(2.0987e-07 -1.09e-08 0)
(3.03718e-07 2.38571e-08 0)
(4.03583e-07 8.01304e-08 0)
(5.08791e-07 1.56044e-07 0)
(6.20021e-07 2.49444e-07 0)
(7.36555e-07 3.57732e-07 0)
(8.59438e-07 4.78644e-07 0)
(9.86386e-07 6.08906e-07 0)
(3.64549e-08 -1.5711e-08 0)
(1.12719e-07 -3.17105e-08 0)
(1.96218e-07 -2.39755e-08 0)
(2.84293e-07 6.05087e-09 0)
(3.77979e-07 5.77617e-08 0)
(4.76635e-07 1.29213e-07 0)
(5.80958e-07 2.1822e-07 0)
(6.9037e-07 3.222e-07 0)
(8.05856e-07 4.38958e-07 0)
(9.25461e-07 5.65306e-07 0)
(3.37088e-08 -1.86254e-08 0)
(1.04702e-07 -4.01287e-08 0)
(1.82702e-07 -3.74148e-08 0)
(2.64833e-07 -1.1893e-08 0)
(3.52061e-07 3.55881e-08 0)
(4.43854e-07 1.02963e-07 0)
(5.40966e-07 1.87986e-07 0)
(6.42996e-07 2.88076e-07 0)
(7.50883e-07 4.01096e-07 0)
(8.63012e-07 5.23955e-07 0)
(3.10581e-08 -2.18704e-08 0)
(9.70263e-08 -4.90406e-08 0)
(1.69445e-07 -5.11953e-08 0)
(2.45344e-07 -2.98144e-08 0)
(3.25675e-07 1.38585e-08 0)
(4.10116e-07 7.75867e-08 0)
(4.99528e-07 1.59039e-07 0)
(5.93727e-07 2.55638e-07 0)
(6.93622e-07 3.65299e-07 0)
(7.97947e-07 4.85048e-07 0)
(2.87006e-08 -2.56063e-08 0)
(9.02046e-08 -5.86481e-08 0)
(1.56874e-07 -6.54507e-08 0)
(2.26011e-07 -4.78068e-08 0)
(2.98719e-07 -7.48449e-09 0)
(3.75044e-07 5.30279e-08 0)
(4.56017e-07 1.31306e-07 0)
(5.41699e-07 2.24785e-07 0)
(6.32985e-07 3.3143e-07 0)
(7.28959e-07 4.48398e-07 0)
(2.70574e-08 -3.05307e-08 0)
(8.48311e-08 -6.9266e-08 0)
(1.45401e-07 -7.98978e-08 0)
(2.06925e-07 -6.51548e-08 0)
(2.71009e-07 -2.75255e-08 0)
(3.38188e-07 3.02756e-08 0)
(4.0975e-07 1.05767e-07 0)
(4.86013e-07 1.96441e-07 0)
(5.67873e-07 3.00332e-07 0)
(6.54749e-07 4.14755e-07 0)
(2.8177e-08 -3.7151e-08 0)
(8.31158e-08 -8.1276e-08 0)
(1.36433e-07 -9.48091e-08 0)
(1.88583e-07 -8.22669e-08 0)
(2.42329e-07 -4.67585e-08 0)
(2.98818e-07 8.73629e-09 0)
(3.59612e-07 8.17499e-08 0)
(4.25234e-07 1.69863e-07 0)
(4.96584e-07 2.71208e-07 0)
(5.73355e-07 3.83266e-07 0)
(3.63971e-08 -4.91546e-08 0)
(8.64499e-08 -9.49707e-08 0)
(1.30639e-07 -1.083e-07 0)
(1.70917e-07 -9.62104e-08 0)
(2.12345e-07 -6.20628e-08 0)
(2.5638e-07 -8.49525e-09 0)
(3.04896e-07 6.21979e-08 0)
(3.58511e-07 1.4781e-07 0)
(4.18146e-07 2.46596e-07 0)
(4.83651e-07 3.56229e-07 0)
)
;

boundaryField
{
    left
    {
        type            fixedDisplacement;
        value           uniform (0 0 0);
    }
    right
    {
        type            solidTraction;
        tractionSeries  
{
        file            "$FOAM_CASE/constant/timeVsTraction";
        outOfBounds     clamp;
}
        pressure        uniform 0;
        secondOrder     false;
        setEffectiveTraction false;
        relaxationFactor 1;
        value           nonuniform List<vector> 
30
(
(6.54765e-06 4.79945e-06 2.08136e-21)
(6.39512e-06 4.74442e-06 2.08964e-21)
(6.24123e-06 4.68977e-06 2.13168e-21)
(6.08558e-06 4.63451e-06 2.21316e-21)
(5.92817e-06 4.57799e-06 2.33169e-21)
(5.76936e-06 4.51965e-06 2.48411e-21)
(5.60971e-06 4.45913e-06 2.66506e-21)
(5.44989e-06 4.39627e-06 2.8688e-21)
(5.29059e-06 4.33106e-06 3.08897e-21)
(5.13251e-06 4.26368e-06 3.31835e-21)
(4.98299e-06 4.19738e-06 3.47808e-21)
(4.84122e-06 4.13222e-06 3.54169e-21)
(4.70146e-06 4.06609e-06 3.58515e-21)
(4.56399e-06 3.99931e-06 3.60918e-21)
(4.42894e-06 3.93235e-06 3.61015e-21)
(4.296e-06 3.86565e-06 3.58949e-21)
(4.1654e-06 3.79946e-06 3.55064e-21)
(4.03686e-06 3.73424e-06 3.49353e-21)
(3.9101e-06 3.67028e-06 3.42153e-21)
(3.78479e-06 3.60784e-06 3.33753e-21)
(3.66055e-06 3.54711e-06 3.24527e-21)
(3.53695e-06 3.4882e-06 3.14863e-21)
(3.41355e-06 3.43117e-06 3.05203e-21)
(3.28993e-06 3.37596e-06 2.95985e-21)
(3.16568e-06 3.32245e-06 2.87655e-21)
(3.04045e-06 3.27039e-06 2.80599e-21)