/*--------------------------------*- C++ -*----------------------------------*\
  =========                 |
  \\      /  F ield         | OpenFOAM: The Open Source CFD Toolbox
   \\    /   O peration     | Website:  https://openfoam.org
    \\  /    A nd           | Version:  9
     \\/     M anipulation  |
\*---------------------------------------------------------------------------*/
FoamFile
{
    format      ascii;
    class       volSymmTensorField;
    location    "5";
    object      epsilon;
}
// * * * * * * * * * * * * * * * * * * * * * * * * * * * * * * * * * * * * * //

dimensions      [0 0 0 0 0 0 0];

internalField   nonuniform List<symmTensor> 
1000
(
(2.10065e-06 -2.73495e-06 -2.5386e-21 4.26891e-07 1.82233e-21 7.72383e-37)
(2.90207e-06 -2.10974e-06 -4.34686e-21 -5.1917e-07 2.43452e-21 0)
(3.2954e-06 -1.61589e-06 5.06725e-21 -9.7203e-07 -9.71724e-22 0)
(3.51515e-06 -1.24341e-06 1.3017e-21 -1.28861e-06 -9.29743e-22 0)
(3.62117e-06 -9.43891e-07 -5.50112e-21 -1.46455e-06 4.03623e-22 0)
(3.65674e-06 -7.09662e-07 -5.955e-22 -1.57676e-06 6.52955e-22 0)
(3.65249e-06 -5.19465e-07 -4.99552e-21 -1.63758e-06 -2.68156e-21 0)
(3.61936e-06 -3.68113e-07 3.4286e-21 -1.66853e-06 1.60283e-21 0)
(3.57606e-06 -2.42578e-07 -1.76772e-21 -1.67975e-06 -2.01158e-21 0)
(3.51368e-06 -1.37636e-07 0 -1.68147e-06 0 0)
(2.84476e-06 -3.04144e-06 -4.15598e-21 1.20049e-07 1.53983e-22 2.5847e-37)
(3.46678e-06 -2.17765e-06 0 -7.21967e-07 0 0)
(3.73381e-06 -1.55364e-06 4.05399e-21 -1.09534e-06 1.93179e-21 0)
(3.85684e-06 -1.1054e-06 -6.95607e-21 -1.35898e-06 -3.71031e-21 0)
(3.88759e-06 -7.6371e-07 -2.95645e-21 -1.4926e-06 -1.78299e-21 0)
(3.86363e-06 -5.08067e-07 2.05739e-21 -1.57517e-06 2.09867e-21 0)
(3.81116e-06 -3.08631e-07 2.30404e-21 -1.61252e-06 1.54433e-21 0)
(3.74028e-06 -1.56873e-07 5.41713e-21 -1.62913e-06 3.1622e-21 0)
(3.66061e-06 -3.4164e-08 0 -1.62381e-06 0 0)
(3.57648e-06 6.44845e-08 0 -1.6264e-06 0 0)
(3.67895e-06 -3.23531e-06 0 -2.86606e-07 0 0)
(4.05171e-06 -2.17495e-06 0 -9.51101e-07 0 0)
(4.15449e-06 -1.44591e-06 3.86393e-21 -1.20512e-06 1.99663e-21 0)
(4.15788e-06 -9.38346e-07 -1.16029e-21 -1.39209e-06 4.10346e-22 0)
(4.09975e-06 -5.66846e-07 -5.68111e-23 -1.46925e-06 2.5328e-23 0)
(4.00819e-06 -2.99104e-07 -1.91826e-21 -1.5138e-06 -1.98555e-21 0)
(3.90324e-06 -9.8152e-08 2.61963e-21 -1.52266e-06 1.21147e-21 0)
(3.79164e-06 4.87541e-08 -1.94489e-21 -1.52129e-06 -1.43646e-21 0)
(3.67851e-06 1.6273e-07 -1.5682e-22 -1.50055e-06 2.70764e-22 0)
(3.56949e-06 2.55686e-07 -4.10642e-22 -1.49861e-06 -1.76857e-22 0)
(4.57192e-06 -3.28872e-06 -2.24926e-21 -7.70104e-07 3.21641e-23 -5.92081e-38)
(4.64219e-06 -2.09306e-06 2.21598e-21 -1.19793e-06 -2.2916e-22 0)
(4.55076e-06 -1.29442e-06 -1.76592e-21 -1.29933e-06 -9.96585e-22 0)
(4.41554e-06 -7.50388e-07 -1.11982e-21 -1.38947e-06 2.17307e-22 0)
(4.25746e-06 -3.65378e-07 2.00286e-21 -1.39873e-06 1.93657e-21 0)
(4.09271e-06 -9.69691e-08 -2.4113e-21 -1.39952e-06 -1.59462e-21 0)
(3.93304e-06 9.69529e-08 -2.0832e-21 -1.37801e-06 -1.48254e-21 0)
(3.78133e-06 2.33571e-07 -4.64292e-21 -1.35839e-06 -3.39686e-21 0)
(3.63695e-06 3.3417e-07 -6.65686e-22 -1.32503e-06 -8.12839e-22 0)
(3.50639e-06 4.1625e-07 1.13726e-21 -1.3172e-06 1.00582e-21 0)
(5.4796e-06 -3.17715e-06 -1.15305e-21 -1.29911e-06 -1.94527e-22 -6.96138e-37)
(5.21917e-06 -1.92091e-06 1.1589e-25 -1.45112e-06 5.50478e-27 0)
(4.91281e-06 -1.09696e-06 -5.71733e-21 -1.37409e-06 -2.80126e-21 0)
(4.62541e-06 -5.45684e-07 5.19965e-22 -1.35147e-06 -1.974e-23 0)
(4.35977e-06 -1.68318e-07 -7.28534e-22 -1.28409e-06 7.70959e-23 0)
(4.11894e-06 8.58445e-08 1.73617e-21 -1.23737e-06 1.60391e-21 0)
(3.90497e-06 2.61957e-07 -1.94671e-22 -1.18524e-06 5.75519e-23 0)
(3.71512e-06 3.80907e-07 1.83243e-21 -1.14838e-06 1.22455e-21 0)
(3.54373e-06 4.62792e-07 -3.96518e-22 -1.10607e-06 -8.48324e-22 0)
(3.39465e-06 5.29582e-07 -7.24786e-22 -1.09364e-06 -5.85346e-22 0)
(6.37121e-06 -2.89412e-06 -3.81076e-21 -1.83859e-06 -5.40149e-23 -1.6614e-36)
(5.76874e-06 -1.65116e-06 1.05689e-25 -1.69397e-06 2.22969e-26 0)
(5.23451e-06 -8.50757e-07 -5.71474e-26 -1.42034e-06 -8.84337e-27 0)
(4.78587e-06 -3.28167e-07 4.59517e-22 -1.2756e-06 5.63634e-23 0)
(4.40899e-06 1.5738e-08 -2.474e-21 -1.12806e-06 -1.50422e-21 0)
(4.0928e-06 2.37881e-07 2.82211e-23 -1.0347e-06 -2.54746e-25 0)
(3.82773e-06 3.84414e-07 1.84135e-21 -9.55092e-07 1.24681e-21 0)
(3.60396e-06 4.78197e-07 3.91532e-21 -9.04448e-07 2.86312e-21 0)
(3.41054e-06 5.36988e-07 7.09257e-22 -8.57619e-07 5.20346e-22 0)
(3.24683e-06 5.84958e-07 -1.23843e-21 -8.42696e-07 -9.75115e-22 0)
(7.18754e-06 -2.42196e-06 5.85238e-21 -2.34569e-06 3.29686e-22 5.83537e-36)
(6.25904e-06 -1.26378e-06 1.65803e-21 -1.90096e-06 6.64595e-22 0)
(5.4882e-06 -5.48411e-07 1.75022e-21 -1.41768e-06 7.94894e-22 0)
(4.87834e-06 -1.00147e-07 -3.77736e-22 -1.15113e-06 -1.12657e-22 0)
(4.39637e-06 1.78282e-07 1.78842e-21 -9.30023e-07 1.19642e-21 0)
(4.01394e-06 3.47637e-07 -1.64595e-21 -7.98831e-07 -1.13358e-21 0)
(3.70737e-06 4.52313e-07 4.68624e-22 -7.00548e-07 2.88555e-23 0)
(3.45805e-06 5.14076e-07 -1.46973e-21 -6.4309e-07 -9.62999e-22 0)
(3.25001e-06 5.47084e-07 -1.01755e-22 -5.97842e-07 1.2698e-23 0)
(3.07661e-06 5.74449e-07 -7.44787e-22 -5.83656e-07 -4.85977e-22 0)
(7.95193e-06 -1.75922e-06 8.68428e-21 -2.78323e-06 4.81895e-22 3.42615e-37)
(6.6723e-06 -7.39284e-07 -4.41497e-21 -2.0212e-06 -1.58867e-21 0)
(5.65572e-06 -1.85901e-07 3.42197e-23 -1.32481e-06 1.8788e-23 0)
(4.89757e-06 1.25107e-07 5.52402e-22 -9.58716e-07 2.79956e-22 0)
(4.32781e-06 3.01643e-07 4.08971e-21 -6.88288e-07 2.03347e-21 0)
(3.89726e-06 3.98886e-07 -2.41983e-22 -5.40311e-07 -7.58337e-23 0)
(3.56429e-06 4.5374e-07 6.02477e-27 -4.39767e-07 1.20138e-27 0)
(3.30108e-06 4.8141e-07 -1.43818e-21 -3.86491e-07 -7.5837e-22 0)
(3.08706e-06 4.90534e-07 3.49406e-23 -3.50205e-07 1.53478e-24 0)
(2.9096e-06 4.99239e-07 1.07668e-22 -3.40499e-07 5.29962e-23 0)
(8.54276e-06 -8.22461e-07 4.1116e-21 -3.04065e-06 -3.43319e-23 -1.04312e-36)
(6.87451e-06 -7.46813e-08 -4.86488e-21 -1.92179e-06 -2.04161e-21 0)
(5.62473e-06 1.8892e-07 5.08425e-22 -1.05473e-06 4.33304e-22 0)
(4.77267e-06 2.87658e-07 4.77893e-22 -6.59382e-07 3.77616e-22 0)
(4.17322e-06 3.37101e-07 -1.99937e-22 -4.02332e-07 -1.22069e-22 0)
(3.7363e-06 3.543e-07 1.59304e-21 -2.77946e-07 5.78627e-22 0)
(3.40586e-06 3.62753e-07 8.7146e-23 -2.00886e-07 2.68293e-23 0)
(3.14655e-06 3.62865e-07 2.56956e-21 -1.65659e-07 9.82798e-22 0)
(2.93715e-06 3.56713e-07 5.67296e-22 -1.45098e-07 2.19244e-22 0)
(2.76127e-06 3.53568e-07 3.17851e-22 -1.42469e-07 1.27322e-22 0)
(9.07243e-06 7.35033e-07 2.52003e-21 -2.80573e-06 3.265e-22 -1.84035e-36)
(6.70199e-06 8.21733e-07 -3.73379e-22 -1.26312e-06 -6.45445e-22 0)
(5.38963e-06 5.42394e-07 1.6894e-21 -5.28342e-07 7.16772e-22 0)
(4.57157e-06 3.51969e-07 8.69963e-23 -2.604e-07 1.21916e-22 0)
(4.02138e-06 2.77601e-07 2.97258e-27 -1.22455e-07 2.76522e-27 0)
(3.616e-06 2.36521e-07 1.61568e-21 -6.70291e-08 2.89899e-22 0)
(3.30799e-06 2.21785e-07 2.50958e-23 -3.76595e-08 7.41245e-24 0)
(3.06076e-06 2.13313e-07 1.23814e-21 -2.77596e-08 2.34232e-22 0)
(2.85858e-06 2.06642e-07 -1.37191e-23 -2.34525e-08 -1.0166e-24 0)
(2.68387e-06 2.02091e-07 -2.08107e-23 -2.5156e-08 -4.37431e-24 0)
(-9.80483e-09 6.3045e-09 -1.68556e-21 -1.84461e-09 1.8434e-21 -7.10477e-38)
(9.13025e-09 -2.28664e-08 -9.25597e-23 -2.75034e-09 1.22971e-21 -1.07363e-37)
(1.04242e-07 -7.1793e-08 -1.18143e-21 -4.89472e-08 -6.20365e-22 6.74819e-37)
(2.54663e-07 -1.11012e-07 0 -1.17877e-07 0 0)
(4.282e-07 -1.35288e-07 -1.56416e-22 -1.946e-07 -9.58267e-22 -8.36317e-38)
(6.09737e-07 -1.4909e-07 -1.62057e-21 -2.73535e-07 -1.19644e-22 2.18376e-37)
(7.87208e-07 -1.54548e-07 3.64677e-22 -3.49793e-07 8.32403e-22 -7.26434e-38)
(9.56437e-07 -1.54984e-07 -1.07528e-21 -4.21815e-07 2.63562e-22 -4.37611e-37)
(1.11176e-06 -1.50941e-07 8.70864e-22 -4.88111e-07 4.4319e-22 3.19569e-37)
(1.25568e-06 -1.47741e-07 1.63881e-21 -5.47823e-07 2.04276e-22 4.44876e-37)
(1.74451e-08 -2.44514e-08 -1.741e-21 -8.63212e-09 1.21984e-21 1.92461e-36)
(1.11598e-07 -1.32881e-07 1.30824e-21 -7.05954e-10 1.43569e-21 0)
(2.83959e-07 -2.52739e-07 -1.22436e-21 -7.266e-08 -1.23041e-21 0)
(4.7598e-07 -3.44421e-07 1.23957e-23 -1.69684e-07 -1.01895e-21 0)
(6.68707e-07 -4.01014e-07 0 -2.6656e-07 0 0)
(8.51613e-07 -4.32715e-07 -1.8586e-21 -3.57817e-07 -2.75662e-22 0)
(1.0202e-06 -4.44277e-07 3.12235e-22 -4.39987e-07 1.5996e-21 0)
(1.1751e-06 -4.4356e-07 2.33331e-23 -5.13473e-07 8.60496e-23 0)
(1.3117e-06 -4.3147e-07 -9.99711e-22 -5.78085e-07 -2.90804e-21 0)
(1.43846e-06 -4.21648e-07 7.3408e-22 -6.33029e-07 1.14023e-22 0)
(2.77132e-08 -1.20417e-07 -8.33735e-22 3.45372e-08 -2.03922e-22 -4.51945e-38)
(2.08173e-07 -3.32027e-07 1.33776e-21 1.21478e-08 1.41818e-21 0)
(4.51777e-07 -4.80748e-07 1.40002e-21 -9.98036e-08 2.93013e-22 0)
(6.91309e-07 -5.80421e-07 7.25492e-23 -2.38583e-07 -9.82677e-22 0)
(9.11806e-07 -6.35577e-07 0 -3.66768e-07 0 0)
(1.10589e-06 -6.61528e-07 -2.08001e-21 -4.79196e-07 -5.42767e-22 0)
(1.27452e-06 -6.64871e-07 -2.83719e-21 -5.73717e-07 -7.94325e-22 0)
(1.42272e-06 -6.54329e-07 1.87652e-21 -6.53292e-07 1.1473e-21 0)
(1.5461e-06 -6.31374e-07 1.13692e-23 -7.18278e-07 3.66297e-23 0)
(1.66104e-06 -6.11846e-07 -1.68776e-21 -7.71117e-07 -1.06686e-21 0)
(4.30079e-08 -2.71244e-07 2.17774e-21 1.37765e-07 -7.80423e-22 1.69122e-36)
(3.4058e-07 -5.71082e-07 3.3053e-22 2.55991e-08 -1.19141e-21 0)
(6.50416e-07 -7.27625e-07 1.53854e-21 -1.36432e-07 3.00493e-22 0)
(9.33108e-07 -8.15342e-07 0 -3.16331e-07 0 0)
(1.17802e-06 -8.5189e-07 -2.62347e-21 -4.73265e-07 9.76815e-22 0)
(1.38289e-06 -8.58737e-07 2.97707e-23 -6.05996e-07 2.41735e-21 0)
(1.55243e-06 -8.44273e-07 -1.29499e-22 -7.13258e-07 -1.29846e-21 0)
(1.69555e-06 -8.17234e-07 -3.74179e-22 -8.00185e-07 -2.00409e-21 0)
(1.80741e-06 -7.79737e-07 8.56546e-22 -8.67456e-07 2.77929e-22 0)
(1.91247e-06 -7.478e-07 1.59875e-21 -9.20296e-07 5.99655e-22 0)
(8.31422e-08 -4.84536e-07 -2.94115e-21 2.8151e-07 1.94316e-21 3.75255e-36)
(5.2724e-07 -8.31429e-07 -2.70222e-21 2.28173e-08 1.81067e-21 0)
(9.03541e-07 -9.723e-07 -1.6381e-21 -2.0709e-07 -4.81638e-22 0)
(1.22293e-06 -1.03078e-06 -4.43357e-22 -4.31544e-07 1.77228e-21 0)
(1.48405e-06 -1.03487e-06 -1.74253e-23 -6.14521e-07 1.09308e-22 0)
(1.69294e-06 -1.01207e-06 2.52718e-21 -7.6353e-07 -6.77775e-22 0)
(1.85833e-06 -9.72183e-07 1.10048e-21 -8.79575e-07 2.88777e-22 0)
(1.99264e-06 -9.23205e-07 0 -9.70435e-07 0 0)
(2.09072e-06 -8.68261e-07 -1.17438e-21 -1.03732e-06 -1.54501e-21 0)
(2.18414e-06 -8.21331e-07 4.68645e-22 -1.08811e-06 1.13776e-22 0)
(1.71174e-07 -7.65077e-07 -2.21576e-21 4.43379e-07 -2.85921e-21 -5.93044e-36)
(7.74548e-07 -1.09553e-06 1.10372e-21 3.14353e-09 -2.14811e-21 0)
(1.21374e-06 -1.19249e-06 -1.35226e-21 -3.04136e-07 -1.45895e-21 0)
(1.56061e-06 -1.20675e-06 2.9805e-22 -5.7219e-07 -8.2519e-22 0)
(1.82781e-06 -1.16962e-06 2.86216e-21 -7.75948e-07 9.57263e-22 0)
(2.03185e-06 -1.11189e-06 -2.76204e-21 -9.35422e-07 3.07332e-22 0)
(2.18611e-06 -1.04336e-06 -3.18618e-24 -1.05513e-06 7.32494e-23 0)
(2.30601e-06 -9.70545e-07 -2.15041e-21 -1.14565e-06 -1.48084e-21 0)
(2.38676e-06 -8.9763e-07 4.50934e-24 -1.2094e-06 2.87409e-23 0)
(2.46518e-06 -8.34971e-07 -2.34827e-21 -1.25568e-06 -1.07334e-21 0)
(3.32913e-07 -1.10984e-06 1.04321e-21 5.89029e-07 -1.6751e-21 1.19654e-37)
(1.08464e-06 -1.35279e-06 6.10935e-23 -4.03085e-08 -9.24014e-23 0)
(1.5753e-06 -1.37501e-06 -4.47644e-26 -4.24886e-07 7.62801e-26 0)
(1.93724e-06 -1.3301e-06 -2.92325e-21 -7.32537e-07 -2.04816e-21 0)
(2.19925e-06 -1.24488e-06 -4.97371e-22 -9.50982e-07 1.32679e-21 0)
(2.3887e-06 -1.14942e-06 -2.67929e-21 -1.11482e-06 -1.09e-21 0)
(2.52419e-06 -1.05148e-06 4.81623e-21 -1.23267e-06 2.14652e-21 0)
(2.62335e-06 -9.55257e-07 -6.28996e-25 -1.3183e-06 5.75178e-23 0)
(2.68293e-06 -8.65593e-07 9.48047e-22 -1.37562e-06 -3.80271e-24 0)
(2.74211e-06 -7.87784e-07 -1.28446e-21 -1.41477e-06 -6.1156e-22 0)
(5.92296e-07 -1.50604e-06 5.91137e-21 6.86093e-07 -1.96304e-21 7.06737e-36)
(1.45649e-06 -1.59314e-06 1.57349e-21 -1.10559e-07 -1.8772e-21 0)
(1.97677e-06 -1.51114e-06 -6.07297e-22 -5.59002e-07 8.07826e-22 0)
(2.33709e-06 -1.3938e-06 3.7137e-22 -8.96342e-07 -5.7768e-22 0)
(2.58141e-06 -1.25582e-06 3.31191e-26 -1.12134e-06 -6.48703e-26 0)
(2.74651e-06 -1.12217e-06 3.11007e-21 -1.28299e-06 2.63237e-22 0)
(2.85615e-06 -9.96371e-07 2.33944e-22 -1.39408e-06 -1.01186e-21 0)
(2.92882e-06 -8.79389e-07 -7.84018e-23 -1.47067e-06 8.32617e-22 0)
(2.96448e-06 -7.75901e-07 1.07392e-23 -1.51999e-06 4.15737e-22 0)
(3.00016e-06 -6.84994e-07 9.81509e-22 -1.54926e-06 9.16933e-22 0)
(9.68276e-07 -1.93047e-06 2.63854e-21 7.04231e-07 2.31824e-21 -6.48118e-36)
(1.88743e-06 -1.80658e-06 -5.0975e-22 -2.12545e-07 3.44166e-21 0)
(2.40575e-06 -1.59687e-06 -5.86923e-26 -6.99477e-07 6.14428e-26 0)
(2.74368e-06 -1.39715e-06 4.02385e-21 -1.05113e-06 9.44265e-22 0)
(2.9566e-06 -1.20395e-06 3.07267e-21 -1.27235e-06 1.53357e-21 0)
(3.0876e-06 -1.03354e-06 2.7721e-21 -1.42496e-06 1.38401e-21 0)
(3.16469e-06 -8.82727e-07 -3.03378e-22 -1.524e-06 8.69655e-22 0)
(3.20562e-06 -7.49344e-07 -3.33793e-21 -1.58871e-06 -1.8649e-21 0)
(3.21538e-06 -6.35581e-07 2.04964e-21 -1.62762e-06 4.85761e-22 0)
(3.22484e-06 -5.34171e-07 9.1918e-22 -1.64955e-06 5.46191e-22 0)
(1.47119e-06 -2.3523e-06 -2.4901e-22 6.21798e-07 2.2003e-22 7.06189e-39)
(2.37188e-06 -1.9826e-06 -1.02014e-21 -3.48449e-07 7.52259e-22 0)
(2.849e-06 -1.63149e-06 -1.97561e-21 -8.38732e-07 -9.20793e-22 0)
(3.14035e-06 -1.34455e-06 8.55947e-21 -1.18436e-06 2.00458e-21 0)
(3.30688e-06 -1.09645e-06 5.24223e-23 -1.38954e-06 -5.95241e-23 0)
(3.39401e-06 -8.91948e-07 -2.7261e-21 -1.52532e-06 -1.54752e-21 0)
(3.43225e-06 -7.20013e-07 -2.9213e-21 -1.60775e-06 -4.60359e-22 0)
(3.4369e-06 -5.75072e-07 -1.10061e-21 -1.65593e-06 -6.58196e-22 0)
(3.42177e-06 -4.57377e-07 1.22297e-22 -1.6869e-06 -9.10724e-22 0)
(3.39675e-06 -3.55723e-07 5.50386e-22 -1.6896e-06 1.15149e-21 0)
(1.3852e-06 -1.37082e-07 1.26825e-21 -6.033e-07 7.76378e-22 5.04389e-37)
(1.49816e-06 -1.22352e-07 1.0118e-21 -6.4959e-07 1.47481e-22 2.10816e-37)
(1.60188e-06 -1.09517e-07 -8.02532e-22 -6.92513e-07 -9.48809e-22 -7.91432e-37)
(1.69517e-06 -9.78679e-08 -4.60097e-22 -7.31358e-07 -3.38918e-22 -1.24107e-38)
(1.77934e-06 -8.7075e-08 -1.46673e-21 -7.66313e-07 -2.47942e-22 5.39424e-37)
(1.85477e-06 -7.74028e-08 0 -7.97817e-07 0 0)
(1.92239e-06 -6.8541e-08 0 -8.26019e-07 0 0)
(1.98268e-06 -6.0543e-08 5.42253e-22 -8.5125e-07 3.38208e-22 -9.56775e-39)
(2.03633e-06 -5.32143e-08 4.87727e-22 -8.73713e-07 9.11023e-23 6.73849e-38)
(2.08377e-06 -4.64983e-08 1.14294e-21 -8.93624e-07 6.84709e-22 -3.28657e-38)
(2.12545e-06 -4.02524e-08 1.47854e-21 -9.11149e-07 2.81895e-22 6.3182e-37)
(2.16167e-06 -3.43841e-08 -4.96354e-22 -9.26424e-07 -9.5072e-23 7.13889e-38)
(2.19269e-06 -2.87794e-08 1.50101e-21 -9.39548e-07 2.87893e-22 6.51829e-37)
(2.21866e-06 -2.33541e-08 -1.83422e-21 -9.50592e-07 -1.06705e-21 -4.85187e-38)
(2.23966e-06 -1.80395e-08 1.08709e-22 -9.59587e-07 2.62501e-22 -2.03532e-37)
(2.25579e-06 -1.28275e-08 -1.08171e-29 -9.66569e-07 -6.31062e-30 -1.15843e-54)
(2.267e-06 -7.79249e-09 -6.2693e-22 -9.71516e-07 -3.67257e-22 -3.04196e-39)
(2.2737e-06 -3.22001e-09 6.29548e-22 -9.74499e-07 3.70536e-22 -2.2024e-39)
(2.27586e-06 2.85633e-10 3.13465e-22 -9.75413e-07 -4.56059e-22 -1.06835e-36)
(2.27513e-06 1.12432e-09 -1.47328e-21 -9.7409e-07 -1.30784e-21 -2.85295e-36)
(1.54272e-06 -3.92672e-07 1.79471e-21 -6.82459e-07 2.20667e-21 0)
(1.62648e-06 -3.53524e-07 1.16414e-21 -7.17846e-07 3.18931e-22 0)
(1.70648e-06 -3.18976e-07 8.76515e-23 -7.50388e-07 -5.04081e-22 0)
(1.7783e-06 -2.86751e-07 2.64354e-21 -7.8025e-07 2.38242e-21 0)
(1.84441e-06 -2.56572e-07 -5.08134e-22 -8.06922e-07 -1.20031e-22 0)
(1.90411e-06 -2.29274e-07 -2.15568e-21 -8.3139e-07 -2.18389e-21 0)
(1.95848e-06 -2.04029e-07 1.09943e-21 -8.53365e-07 4.067e-22 0)
(2.00744e-06 -1.81085e-07 0 -8.73332e-07 0 0)
(2.05163e-06 -1.59926e-07 5.23885e-22 -8.913e-07 1.8551e-22 0)
(2.09118e-06 -1.40451e-07 1.0771e-21 -9.07495e-07 4.15023e-22 0)
(2.12647e-06 -1.22298e-07 3.23047e-21 -9.21995e-07 1.66839e-21 0)
(2.15768e-06 -1.0525e-07 1.45797e-23 -9.34914e-07 1.66603e-23 0)
(2.18504e-06 -8.90294e-08 4.19245e-22 -9.46307e-07 -3.25436e-22 0)
(2.20869e-06 -7.34388e-08 6.16657e-22 -9.5621e-07 7.05086e-22 0)
(2.22872e-06 -5.83251e-08 6.32648e-22 -9.64595e-07 7.25247e-22 0)
(2.24526e-06 -4.36809e-08 -6.26735e-22 -9.71375e-07 -7.22125e-22 0)
(2.2582e-06 -2.96808e-08 -6.30304e-22 -9.76322e-07 -7.30337e-22 0)
(2.26768e-06 -1.69315e-08 -1.26584e-21 -9.7903e-07 -1.47535e-21 0)
(2.27298e-06 -6.36073e-09 -9.57811e-24 -9.78569e-07 -1.04795e-23 0)
(2.27431e-06 -7.12268e-10 -1.59662e-22 -9.73415e-07 9.18117e-22 3.54072e-37)
(1.74134e-06 -5.68424e-07 4.91099e-22 -8.11804e-07 6.71831e-22 0)
(1.79413e-06 -5.15044e-07 6.70261e-22 -8.32877e-07 2.39091e-22 0)
(1.84862e-06 -4.67092e-07 -1.55691e-21 -8.50521e-07 -1.96041e-21 0)
(1.89647e-06 -4.22566e-07 -1.39719e-22 -8.67224e-07 3.57796e-22 0)
(1.94228e-06 -3.80188e-07 2.84076e-21 -8.8152e-07 2.36413e-21 0)
(1.98384e-06 -3.41673e-07 -2.25658e-21 -8.95168e-07 -2.15351e-21 0)
(2.02275e-06 -3.05675e-07 -6.00733e-22 -9.07489e-07 -6.95439e-22 0)
(2.05827e-06 -2.7276e-07 1.1482e-21 -9.19105e-07 1.30535e-21 0)
(2.09108e-06 -2.42218e-07 5.13942e-24 -9.29874e-07 -8.47083e-22 0)
(2.12099e-06 -2.14009e-07 -1.21503e-21 -9.39992e-07 -1.36554e-21 0)
(2.14832e-06 -1.87686e-07 1.16431e-21 -9.49457e-07 1.30382e-21 0)
(2.17308e-06 -1.63011e-07 1.79918e-21 -9.58323e-07 2.01586e-21 0)
(2.19542e-06 -1.3965e-07 1.37668e-23 -9.66576e-07 1.5165e-23 0)
(2.21542e-06 -1.17365e-07 -6.16077e-22 -9.74169e-07 -6.94256e-22 0)
(2.23308e-06 -9.5947e-08 6.09892e-22 -9.80957e-07 6.91447e-22 0)
(2.24843e-06 -7.53171e-08 8.99076e-29 -9.86666e-07 1.00077e-28 0)
(2.26113e-06 -5.55239e-08 -6.28397e-22 -9.90749e-07 -7.21426e-22 0)
(2.27104e-06 -3.68789e-08 8.52592e-23 -9.92314e-07 5.20951e-22 0)
(2.27654e-06 -1.99545e-08 -2.06559e-21 -9.89515e-07 -2.66525e-22 0)
(2.2775e-06 -5.49633e-09 5.86528e-25 -9.80235e-07 1.20008e-24 -9.68958e-43)
(1.96918e-06 -6.92204e-07 0 -9.53055e-07 0 0)
(1.98986e-06 -6.31036e-07 7.16595e-22 -9.6095e-07 2.61019e-22 0)
(2.01848e-06 -5.7459e-07 5.60823e-22 -9.64473e-07 6.40838e-22 0)
(2.04129e-06 -5.23068e-07 6.15532e-22 -9.68844e-07 7.12468e-22 0)
(2.06573e-06 -4.73e-07 0 -9.71015e-07 0 0)
(2.08775e-06 -4.27476e-07 8.32462e-23 -9.73875e-07 -3.59445e-22 0)
(2.10984e-06 -3.84412e-07 -1.84231e-21 -9.76323e-07 -1.13093e-21 0)
(2.13045e-06 -3.44841e-07 -1.17576e-21 -9.792e-07 -1.27709e-21 0)
(2.15048e-06 -3.07875e-07 -6.60973e-22 -9.82266e-07 -3.05037e-22 0)
(2.16934e-06 -2.73602e-07 -3.7096e-24 -9.85705e-07 8.16317e-22 0)
(2.18733e-06 -2.41541e-07 -5.81337e-22 -9.89463e-07 1.79072e-22 0)
(2.20427e-06 -2.11474e-07 1.21622e-21 -9.93538e-07 5.21654e-22 0)
(2.22022e-06 -1.83048e-07 1.1545e-21 -9.97851e-07 5.78091e-23 0)
(2.23513e-06 -1.55995e-07 2.82007e-23 -1.00227e-06 4.36501e-22 0)
(2.24887e-06 -1.30053e-07 4.99295e-23 -1.00655e-06 4.62773e-22 0)
(2.26133e-06 -1.05022e-07 -6.21286e-22 -1.01028e-06 -6.98727e-22 0)
(2.27197e-06 -8.07714e-08 -1.32694e-28 -1.01274e-06 -1.49321e-28 0)
(2.28049e-06 -5.71447e-08 1.32506e-21 -1.01286e-06 1.94253e-21 0)
(2.28485e-06 -3.43329e-08 -6.74994e-23 -1.00858e-06 -5.1078e-22 0)
(2.28511e-06 -1.06838e-08 -1.48626e-21 -9.97734e-07 -2.59015e-21 -4.74652e-36)
(2.21628e-06 -7.56254e-07 5.44307e-23 -1.11076e-06 8.94911e-22 0)
(2.20367e-06 -6.94807e-07 -7.78649e-22 -1.10516e-06 -3.40194e-22 0)
(2.20626e-06 -6.34901e-07 -1.95802e-21 -1.0934e-06 -1.59516e-21 0)
(2.20339e-06 -5.8206e-07 1.28912e-21 -1.08493e-06 8.77223e-22 0)
(2.2061e-06 -5.29111e-07 3.3547e-21 -1.07425e-06 2.20281e-21 0)
(2.20783e-06 -4.81146e-07 -6.16247e-22 -1.0655e-06 -6.43907e-22 0)
(2.21238e-06 -4.35096e-07 0 -1.05721e-06 0 0)
(2.21719e-06 -3.92545e-07 6.00151e-22 -1.05039e-06 6.24297e-22 0)
(2.22349e-06 -3.5247e-07 -1.93139e-21 -1.0448e-06 -8.25231e-22 0)
(2.23029e-06 -3.15113e-07 -1.25296e-21 -1.0406e-06 -9.2311e-22 0)
(2.2379e-06 -2.80024e-07 7.0021e-23 -1.03773e-06 -7.12012e-22 0)
(2.24593e-06 -2.47032e-07 -6.31526e-22 -1.03613e-06 -1.067e-21 0)
(2.25436e-06 -2.15801e-07 -6.40098e-23 -1.03568e-06 1.12032e-21 0)
(2.263e-06 -1.8604e-07 1.23444e-21 -1.0362e-06 1.73892e-21 0)
(2.27163e-06 -1.57431e-07 6.0093e-22 -1.03737e-06 2.56214e-22 0)
(2.28002e-06 -1.29617e-07 -2.27514e-23 -1.03872e-06 -4.33494e-22 0)
(2.2875e-06 -1.02274e-07 1.16485e-21 -1.03945e-06 4.79227e-22 0)
(2.29372e-06 -7.47305e-08 5.72921e-22 -1.03853e-06 2.30019e-22 0)
(2.2966e-06 -4.69361e-08 2.35171e-21 -1.03399e-06 1.8569e-21 0)
(2.29635e-06 -1.52399e-08 6.52714e-22 -1.02387e-06 1.96893e-21 -2.05567e-36)
(2.47191e-06 -7.63769e-07 4.58987e-22 -1.26733e-06 6.30586e-22 0)
(2.42569e-06 -7.09963e-07 1.10534e-23 -1.25023e-06 2.42066e-23 0)
(2.40306e-06 -6.51436e-07 -1.41566e-21 -1.22407e-06 -9.80914e-22 0)
(2.37455e-06 -6.02479e-07 -3.39971e-21 -1.20378e-06 -2.54356e-21 0)
(2.35594e-06 -5.50983e-07 1.32813e-21 -1.18119e-06 9.04579e-22 0)
(2.33741e-06 -5.04478e-07 1.2501e-21 -1.16141e-06 1.24056e-21 0)
(2.32437e-06 -4.5902e-07 -6.12477e-22 -1.14291e-06 -6.08711e-22 0)
(2.31317e-06 -4.1666e-07 -9.82877e-23 -1.12663e-06 2.72681e-22 0)
(2.30534e-06 -3.76394e-07 2.68697e-21 -1.11246e-06 1.60012e-21 0)
(2.29958e-06 -3.38559e-07 -1.79612e-21 -1.1005e-06 -1.83162e-21 0)
(2.29615e-06 -3.0281e-07 -6.38897e-22 -1.09072e-06 -6.59669e-22 0)
(2.29453e-06 -2.69018e-07 1.73694e-21 -1.08306e-06 2.57123e-21 0)
(2.29461e-06 -2.36901e-07 -2.53699e-21 -1.07741e-06 -7.56055e-22 0)
(2.29611e-06 -2.06162e-07 -1.80841e-21 -1.07357e-06 -1.93099e-21 0)
(2.29875e-06 -1.76451e-07 4.36262e-24 -1.07124e-06 -3.89813e-22 0)
(2.3022e-06 -1.47277e-07 -2.43666e-21 -1.06999e-06 -1.86374e-21 0)
(2.30583e-06 -1.18165e-07 -1.77386e-23 -1.06909e-06 -1.66696e-23 0)
(2.30925e-06 -8.80021e-08 2.39505e-21 -1.06767e-06 2.28836e-21 0)
(2.31075e-06 -5.66001e-08 3.78382e-23 -1.06416e-06 4.72065e-22 0)
(2.31041e-06 -1.87785e-08 5.56913e-22 -1.05689e-06 4.11933e-22 1.26278e-38)
(2.72363e-06 -7.14832e-07 -4.81045e-22 -1.41453e-06 -6.17006e-22 0)
(2.64528e-06 -6.77228e-07 6.6486e-22 -1.3891e-06 6.067e-22 0)
(2.59985e-06 -6.25115e-07 8.2067e-22 -1.35097e-06 4.28668e-22 0)
(2.54694e-06 -5.84982e-07 -6.4865e-22 -1.32032e-06 -6.07987e-22 0)
(2.50826e-06 -5.39539e-07 -1.53651e-21 -1.28748e-06 -7.67428e-22 0)
(2.47033e-06 -4.98217e-07 7.50085e-22 -1.2574e-06 3.7299e-22 0)
(2.44012e-06 -4.56836e-07 2.12294e-21 -1.22925e-06 1.36551e-21 0)
(2.41322e-06 -4.17545e-07 -3.41555e-21 -1.20376e-06 -2.29238e-21 0)
(2.3913e-06 -3.79681e-07 -2.10676e-21 -1.18111e-06 -1.38722e-21 0)
(2.37292e-06 -3.43632e-07 3.30662e-21 -1.16138e-06 2.23826e-21 0)
(2.35824e-06 -3.09268e-07 -1.34848e-21 -1.14464e-06 -6.44881e-22 0)
(2.34667e-06 -2.76532e-07 1.78693e-21 -1.13082e-06 1.82911e-21 0)
(2.33801e-06 -2.45233e-07 1.92391e-21 -1.11984e-06 1.25304e-21 0)
(2.3319e-06 -2.15093e-07 -1.12311e-21 -1.11152e-06 -1.56216e-21 0)
(2.32805e-06 -1.85756e-07 -7.32608e-22 -1.10564e-06 3.79091e-22 0)
(2.32609e-06 -1.5664e-07 3.47251e-23 -1.10182e-06 3.20156e-23 0)
(2.32552e-06 -1.27165e-07 -2.96905e-21 -1.09956e-06 -2.46961e-21 0)
(2.32591e-06 -9.58968e-08 5.89618e-22 -1.09819e-06 6.61951e-22 0)
(2.3262e-06 -6.25823e-08 1.16874e-21 -1.09671e-06 9.14158e-22 0)
(2.32608e-06 -2.1044e-08 2.81129e-22 -1.09384e-06 2.15388e-22 2.59444e-39)
(2.9583e-06 -6.13081e-07 5.7611e-24 -1.53951e-06 1.96539e-23 0)
(2.85157e-06 -6.00022e-07 -6.87396e-22 -1.5099e-06 -6.04431e-22 0)
(2.78718e-06 -5.59752e-07 1.47483e-22 -1.46481e-06 -1.59954e-22 0)
(2.71257e-06 -5.31809e-07 0 -1.42568e-06 0 0)
(2.65586e-06 -4.9652e-07 0 -1.38575e-06 0 0)
(2.60074e-06 -4.63298e-07 -2.05823e-21 -1.34771e-06 -1.61076e-21 0)
(2.55471e-06 -4.29178e-07 1.83126e-21 -1.312e-06 1.70655e-21 0)
(2.51331e-06 -3.95739e-07 3.86074e-21 -1.27885e-06 3.36485e-21 0)
(2.47796e-06 -3.62882e-07 -2.92038e-21 -1.24876e-06 -2.80279e-21 0)
(2.44738e-06 -3.30927e-07 -2.55808e-21 -1.22188e-06 -2.17695e-21 0)
(2.42158e-06 -2.99985e-07 1.17975e-21 -1.19843e-06 1.17237e-21 0)
(2.40002e-06 -2.70091e-07 -1.15249e-22 -1.17846e-06 2.32081e-22 0)
(2.38244e-06 -2.41185e-07 2.0184e-21 -1.162e-06 9.97578e-22 0)
(2.36849e-06 -2.13061e-07 3.14419e-21 -1.14901e-06 2.17412e-21 0)
(2.35788e-06 -1.85411e-07 4.29203e-23 -1.13937e-06 3.91941e-23 0)
(2.35024e-06 -1.57633e-07 1.43008e-21 -1.13289e-06 -3.89661e-22 0)
(2.34529e-06 -1.29113e-07 0 -1.12932e-06 0 0)
(2.34256e-06 -9.8241e-08 -1.20426e-21 -1.12831e-06 -5.32078e-22 0)
(2.34182e-06 -6.47535e-08 5.79378e-22 -1.12948e-06 2.45324e-22 0)
(2.34222e-06 -2.19745e-08 8.45203e-22 -1.13207e-06 6.71361e-22 2.05661e-38)
(3.16577e-06 -4.68277e-07 -4.51345e-24 -1.63307e-06 -1.71892e-23 0)
(3.03481e-06 -4.84348e-07 8.53099e-22 -1.60233e-06 5.09847e-22 0)
(2.95715e-06 -4.64187e-07 -8.48494e-22 -1.56063e-06 -5.16734e-22 0)
(2.86581e-06 -4.50874e-07 -8.35129e-22 -1.51638e-06 -5.03293e-22 0)
(2.79289e-06 -4.29928e-07 2.29287e-21 -1.47195e-06 1.56376e-21 0)
(2.72313e-06 -4.06821e-07 1.63339e-21 -1.42742e-06 9.75096e-22 0)
(2.66268e-06 -3.81635e-07 -2.16953e-21 -1.38512e-06 -1.45176e-21 0)
(2.60832e-06 -3.55329e-07 2.88097e-22 -1.34535e-06 -3.04573e-22 0)
(2.56073e-06 -3.2862e-07 4.92602e-22 -1.30882e-06 4.56536e-22 0)
(2.51898e-06 -3.01918e-07 -2.67167e-22 -1.27582e-06 3.59174e-22 0)
(2.48286e-06 -2.75564e-07 -2.20252e-21 -1.24659e-06 -1.20778e-21 0)
(2.45189e-06 -2.49709e-07 1.97152e-23 -1.22131e-06 1.90046e-23 0)
(2.4258e-06 -2.24398e-07 -1.00796e-21 -1.20007e-06 -1.37012e-21 0)
(2.40423e-06 -1.995e-07 -3.40422e-23 -1.18295e-06 -3.112e-23 0)
(2.38696e-06 -1.74764e-07 1.28641e-21 -1.16998e-06 6.26565e-22 0)
(2.37367e-06 -1.49616e-07 -2.56656e-23 -1.16119e-06 -2.24186e-23 0)
(2.36434e-06 -1.23453e-07 1.56931e-21 -1.15662e-06 2.10231e-21 0)
(2.35847e-06 -9.46318e-08 -5.92218e-22 -1.15626e-06 -2.65137e-22 0)
(2.35679e-06 -6.28823e-08 -2.77578e-21 -1.16044e-06 -2.74572e-21 0)
(2.3578e-06 -2.14993e-08 -8.30629e-22 -1.16896e-06 -1.49795e-21 -1.51587e-36)
(3.33116e-06 -2.82398e-07 -1.08754e-22 -1.6939e-06 -5.48496e-23 0)
(3.19537e-06 -3.17994e-07 -9.14551e-22 -1.65632e-06 -5.39229e-22 0)
(3.10669e-06 -3.26461e-07 7.42601e-22 -1.6274e-06 5.82941e-22 0)
(3.00875e-06 -3.29937e-07 -1.94394e-21 -1.58712e-06 -1.76932e-21 0)
(2.92275e-06 -3.28311e-07 -1.99982e-21 -1.54507e-06 -1.66194e-21 0)
(2.8416e-06 -3.209e-07 1.18342e-21 -1.50011e-06 1.22125e-21 0)
(2.76819e-06 -3.09402e-07 1.02879e-21 -1.45483e-06 1.22547e-21 0)
(2.7016e-06 -2.94521e-07 1.7927e-21 -1.41063e-06 1.61486e-21 0)
(2.64214e-06 -2.77286e-07 -2.10312e-21 -1.36865e-06 -1.56976e-21 0)
(2.58932e-06 -2.58478e-07 5.19968e-24 -1.32977e-06 4.30335e-23 0)
(2.54294e-06 -2.38723e-07 -2.55787e-23 -1.29459e-06 -1.28312e-22 0)
(2.50258e-06 -2.18466e-07 -1.64497e-21 -1.26354e-06 -1.60685e-21 0)
(2.46796e-06 -1.97977e-07 0 -1.23696e-06 0 0)
(2.43874e-06 -1.7732e-07 -1.4898e-21 -1.21511e-06 -4.84794e-22 0)
(2.41476e-06 -1.56393e-07 -6.98168e-24 -1.19824e-06 -2.9643e-23 0)
(2.39571e-06 -1.34753e-07 -1.92355e-21 -1.18659e-06 -9.36954e-22 0)
(2.38186e-06 -1.11889e-07 5.27074e-22 -1.18057e-06 5.55683e-22 0)
(2.37272e-06 -8.62823e-08 1.21308e-21 -1.18055e-06 5.55483e-22 0)
(2.37002e-06 -5.76914e-08 1.50756e-23 -1.18759e-06 -1.21507e-24 0)
(2.37167e-06 -1.98225e-08 -5.47611e-22 -1.20212e-06 -4.76135e-22 -4.20554e-39)
(3.4122e-06 -1.29276e-07 9.41114e-22 -1.69908e-06 8.27636e-22 0)
(3.28823e-06 -1.48567e-07 -8.7034e-22 -1.66743e-06 -5.47238e-22 0)
(3.19259e-06 -1.83699e-07 -5.04353e-22 -1.64719e-06 -4.18528e-22 0)
(3.09522e-06 -2.0055e-07 8.36275e-22 -1.61446e-06 5.11314e-22 0)
(3.00496e-06 -2.1233e-07 -1.65272e-21 -1.57608e-06 -7.51748e-22 0)
(2.91938e-06 -2.17672e-07 -1.11461e-21 -1.53397e-06 -5.26912e-22 0)
(2.84042e-06 -2.17903e-07 -1.38989e-21 -1.48991e-06 -1.0084e-21 0)
(2.76764e-06 -2.13922e-07 1.67273e-22 -1.44575e-06 -1.16081e-22 0)
(2.70161e-06 -2.06539e-07 2.8093e-21 -1.40283e-06 1.79083e-21 0)
(2.64208e-06 -1.96594e-07 -9.66576e-23 -1.36226e-06 -1.03836e-22 0)
(2.58904e-06 -1.84746e-07 1.50143e-21 -1.32489e-06 8.50621e-22 0)
(2.54222e-06 -1.71545e-07 -7.41102e-23 -1.29138e-06 -8.38791e-23 0)
(2.50149e-06 -1.57371e-07 5.48833e-36 -1.26227e-06 5.56951e-36 0)
(2.4666e-06 -1.42421e-07 -6.60028e-22 -1.23802e-06 -3.29038e-22 0)
(2.43751e-06 -1.26725e-07 6.452e-22 -1.21909e-06 3.14363e-22 0)
(2.414e-06 -1.10017e-07 -2.89897e-23 -1.20598e-06 -4.18172e-23 0)
(2.39662e-06 -9.19355e-08 1.02382e-22 -1.19942e-06 -2.71681e-22 0)
(2.38487e-06 -7.13041e-08 5.85703e-24 -1.2001e-06 1.94005e-23 0)
(2.38127e-06 -4.7949e-08 -5.95662e-24 -1.20972e-06 7.72082e-24 0)
(2.38324e-06 -1.65295e-08 -8.99685e-24 -1.2293e-06 -4.30914e-24 8.01151e-41)
(3.34459e-06 2.07323e-08 8.73832e-22 -1.6373e-06 6.90909e-22 0)
(3.26191e-06 -1.41455e-09 0 -1.64637e-06 0 0)
(3.17551e-06 -4.43956e-08 -6.81711e-22 -1.63098e-06 -6.00436e-22 0)
(3.08921e-06 -7.27196e-08 8.91074e-36 -1.60616e-06 7.21162e-36 0)
(3.00684e-06 -9.49662e-08 2.04205e-36 -1.57335e-06 1.4811e-36 0)
(2.92736e-06 -1.10751e-07 9.6847e-36 -1.53587e-06 7.20044e-36 0)
(2.85272e-06 -1.20964e-07 1.48561e-35 -1.4955e-06 1.19994e-35 0)
(2.78272e-06 -1.26515e-07 -5.97389e-22 -1.45414e-06 -5.59495e-22 0)
(2.71817e-06 -1.28131e-07 0 -1.41321e-06 0 0)
(2.65907e-06 -1.2661e-07 5.70843e-22 -1.37396e-06 5.52788e-22 0)
(2.60564e-06 -1.22589e-07 -8.1764e-37 -1.33733e-06 -1.37128e-36 0)
(2.55785e-06 -1.16629e-07 -5.49115e-22 -1.30414e-06 -5.50561e-22 0)
(2.51574e-06 -1.09142e-07 5.40075e-22 -1.27505e-06 5.50859e-22 0)
(2.47923e-06 -1.00401e-07 7.7553e-36 -1.25068e-06 5.64772e-36 0)
(2.44848e-06 -9.05159e-08 -5.25635e-22 -1.23166e-06 -5.53967e-22 0)
(2.4234e-06 -7.94032e-08 -4.65959e-36 -1.21864e-06 -4.30559e-36 0)
(2.40477e-06 -6.68138e-08 5.16252e-22 -1.21259e-06 5.60515e-22 0)
(2.39218e-06 -5.20157e-08 5.13549e-22 -1.21443e-06 5.65398e-22 0)
(2.38876e-06 -3.49976e-08 -5.54299e-36 -1.22633e-06 -4.83208e-36 0)
(2.39157e-06 -1.20397e-08 -2.771e-36 -1.2495e-06 -4.90667e-36 -1.63464e-65)
(3.28612e-06 1.71059e-07 1.61696e-22 -1.57327e-06 2.79459e-22 0)