/*--------------------------------*- C++ -*----------------------------------*\
  =========                 |
  \\      /  F ield         | OpenFOAM: The Open Source CFD Toolbox
   \\    /   O peration     | Website:  https://openfoam.org
    \\  /    A nd           | Version:  9
     \\/     M anipulation  |
\*---------------------------------------------------------------------------*/
FoamFile
{
    format      ascii;
    class       volScalarField;
    location    "5";
    object      epsilonEq;
}
// * * * * * * * * * * * * * * * * * * * * * * * * * * * * * * * * * * * * * //

dimensions      [0 0 0 0 0 0 0];

internalField   nonuniform List<scalar> 
1000
(
3.40727e-06
3.235e-06
3.18573e-06
3.21019e-06
3.21358e-06
3.20694e-06
3.18473e-06
3.15086e-06
3.11303e-06
3.06576e-06
3.97215e-06
3.60679e-06
3.43003e-06
3.37553e-06
3.32672e-06
3.28503e-06
3.23656e-06
3.18516e-06
3.12694e-06
3.07554e-06
4.52439e-06
3.96498e-06
3.65124e-06
3.50679e-06
3.39719e-06
3.31393e-06
3.23471e-06
3.16124e-06
3.08397e-06
3.02218e-06
5.05309e-06
4.30515e-06
3.85004e-06
3.60707e-06
3.42916e-06
3.29902e-06
3.18589e-06
3.08885e-06
2.99313e-06
2.92035e-06
5.54177e-06
4.61923e-06
4.02258e-06
3.6755e-06
3.42322e-06
3.24164e-06
3.09214e-06
2.97011e-06
2.85701e-06
2.77254e-06
5.9929e-06
4.9048e-06
4.16637e-06
3.71181e-06
3.38094e-06
3.14529e-06
2.95831e-06
2.81107e-06
2.68166e-06
2.58517e-06
6.3812e-06
5.1431e-06
4.26107e-06
3.70062e-06
3.29392e-06
3.00754e-06
2.78678e-06
2.61738e-06
2.47496e-06
2.36755e-06
6.74666e-06
5.32386e-06
4.28871e-06
3.63295e-06
3.16172e-06
2.83597e-06
2.59132e-06
2.40747e-06
2.25829e-06
2.14344e-06
7.00074e-06
5.34257e-06
4.15416e-06
3.44129e-06
2.9533e-06
2.62254e-06
2.37927e-06
2.19696e-06
2.05143e-06
1.935e-06
7.21968e-06
5.03689e-06
3.83494e-06
3.16569e-06
2.74259e-06
2.44954e-06
2.23364e-06
2.06543e-06
1.92927e-06
1.81356e-06
1.1289e-08
2.52091e-08
1.2205e-07
2.54798e-07
4.00438e-07
5.50817e-07
6.9691e-07
8.3615e-07
9.64022e-07
1.08252e-06
3.02613e-08
1.69119e-07
3.63164e-07
5.54134e-07
7.23615e-07
8.74256e-07
1.00575e-06
1.12342e-06
1.22444e-06
1.31936e-06
1.38887e-07
4.05103e-07
6.49779e-07
8.71361e-07
1.0562e-06
1.20988e-06
1.33482e-06
1.4397e-06
1.52186e-06
1.59962e-06
3.22257e-07
6.93585e-07
9.69402e-07
1.20311e-06
1.38925e-06
1.5386e-06
1.65469e-06
1.7477e-06
1.81438e-06
1.87853e-06
5.82783e-07
1.01871e-06
1.31257e-06
1.54813e-06
1.72561e-06
1.8631e-06
1.96549e-06
2.04387e-06
2.09467e-06
2.14498e-06
9.19365e-07
1.36484e-06
1.65899e-06
1.88783e-06
2.05036e-06
2.1713e-06
2.25676e-06
2.31842e-06
2.35299e-06
2.38874e-06
1.32508e-06
1.72612e-06
1.99924e-06
2.21207e-06
2.35467e-06
2.45585e-06
2.5223e-06
2.56584e-06
2.58407e-06
2.60442e-06
1.79017e-06
2.0976e-06
2.32516e-06
2.51062e-06
2.62813e-06
2.70696e-06
2.75342e-06
2.77824e-06
2.78154e-06
2.78562e-06
2.30165e-06
2.47574e-06
2.63299e-06
2.77837e-06
2.86486e-06
2.91867e-06
2.94381e-06
2.94989e-06
2.93899e-06
2.929e-06
2.84577e-06
2.85642e-06
2.9201e-06
3.01151e-06
3.05987e-06
3.08479e-06
3.08703e-06
3.07256e-06
3.05218e-06
3.01987e-06
1.18925e-06
1.28103e-06
1.36614e-06
1.44311e-06
1.5127e-06
1.57531e-06
1.63153e-06
1.68176e-06
1.72653e-06
1.76616e-06
1.80103e-06
1.83137e-06
1.85737e-06
1.87918e-06
1.89684e-06
1.91045e-06
1.91995e-06
1.92565e-06
1.92746e-06
1.92636e-06
1.39284e-06
1.44643e-06
1.50051e-06
1.55077e-06
1.5979e-06
1.64171e-06
1.6822e-06
1.71935e-06
1.75328e-06
1.78403e-06
1.81172e-06
1.83643e-06
1.85824e-06
1.87721e-06
1.89335e-06
1.90666e-06
1.91695e-06
1.92411e-06
1.92717e-06
1.92549e-06
1.64316e-06
1.66043e-06
1.6825e-06
1.70378e-06
1.72542e-06
1.74698e-06
1.76829e-06
1.78899e-06
1.80901e-06
1.82806e-06
1.84611e-06
1.86301e-06
1.8787e-06
1.89309e-06
1.90604e-06
1.91737e-06
1.92656e-06
1.93304e-06
1.93484e-06
1.93081e-06
1.89724e-06
1.88419e-06
1.87866e-06
1.87429e-06
1.87239e-06
1.87264e-06
1.87502e-06
1.87897e-06
1.88442e-06
1.8909e-06
1.89825e-06
1.90617e-06
1.91447e-06
1.9229e-06
1.93116e-06
1.93889e-06
1.94532e-06
1.9497e-06
1.94967e-06
1.94419e-06
2.14177e-06
2.10376e-06
2.07448e-06
2.04805e-06
2.02542e-06
2.00633e-06
1.99112e-06
1.97902e-06
1.97019e-06
1.96399e-06
1.9603e-06
1.95868e-06
1.9589e-06
1.96057e-06
1.9633e-06
1.96659e-06
1.96957e-06
1.97143e-06
1.9699e-06
1.96412e-06
2.36618e-06
2.30827e-06
2.25932e-06
2.21439e-06
2.1744e-06
2.13853e-06
2.10796e-06
2.08143e-06
2.05949e-06
2.04134e-06
2.02697e-06
2.01588e-06
2.00783e-06
2.0024e-06
1.99916e-06
1.99761e-06
1.99691e-06
1.99632e-06
1.99404e-06
1.98929e-06
2.56506e-06
2.49218e-06
2.42829e-06
2.36811e-06
2.3143e-06
2.26409e-06
2.22021e-06
2.18083e-06
2.14697e-06
2.11779e-06
2.09338e-06
2.07326e-06
2.05721e-06
2.04481e-06
2.03567e-06
2.02932e-06
2.02512e-06
2.02242e-06
2.02014e-06
2.0175e-06
2.73287e-06
2.64951e-06
2.57652e-06
2.50377e-06
2.43984e-06
2.3785e-06
2.32406e-06
2.2742e-06
2.23016e-06
2.19124e-06
2.15764e-06
2.12904e-06
2.10528e-06
2.08606e-06
2.07111e-06
2.06004e-06
2.05252e-06
2.04803e-06
2.04638e-06
2.04672e-06
2.8691e-06
2.77638e-06
2.70348e-06
2.62195e-06
2.55027e-06
2.47986e-06
2.41608e-06
2.35721e-06
2.30431e-06
2.25702e-06
2.21547e-06
2.17945e-06
2.14889e-06
2.12358e-06
2.10339e-06
2.08809e-06
2.07767e-06
2.07179e-06
2.07122e-06
2.075e-06
2.97059e-06
2.87137e-06
2.80326e-06
2.72245e-06
2.64764e-06
2.57333e-06
2.50303e-06
2.43697e-06
2.37613e-06
2.32084e-06
2.2714e-06
2.22789e-06
2.19035e-06
2.15873e-06
2.13308e-06
2.11331e-06
2.09981e-06
2.09244e-06
2.09297e-06
2.10039e-06
3.01007e-06
2.9171e-06
2.84978e-06
2.77372e-06
2.69903e-06
2.62477e-06
2.55317e-06
2.4849e-06
2.4211e-06
2.36227e-06
2.30894e-06
2.26137e-06
2.2198e-06
2.18435e-06
2.15528e-06
2.13269e-06
2.11731e-06
2.10919e-06
2.11089e-06
2.12138e-06
2.93297e-06
2.8852e-06
2.82351e-06
2.75742e-06
2.68997e-06
2.62185e-06
2.55516e-06
2.49064e-06
2.42954e-06
2.37248e-06
2.32016e-06
2.27298e-06
2.23136e-06
2.19559e-06
2.1661e-06
2.14318e-06
2.12784e-06
2.12028e-06
2.12367e-06
2.13682e-06
2.87094e-06
2.83467e-06
2.78741e-06
2.7308e-06
2.67206e-06
2.61051e-06
2.54922e-06
2.48882e-06
2.43085e-06
2.37602e-06
2.3252e-06
2.27893e-06
2.23777e-06
2.20216e-06
2.1727e-06
2.14984e-06
2.13479e-06
2.12781e-06
2.13242e-06
2.14738e-06
2.79699e-06
2.7752e-06
2.73975e-06
2.69236e-06
2.64195e-06
2.58708e-06
2.53155e-06
2.47584e-06
2.42174e-06
2.37e-06
2.3216e-06
2.27719e-06
2.23743e-06
2.20287e-06
2.17418e-06
2.15201e-06
2.13751e-06
2.13131e-06
2.13717e-06
2.1531e-06
2.71273e-06
2.70235e-06
2.67806e-06
2.64036e-06
2.59883e-06
2.55148e-06
2.50253e-06
2.45238e-06
2.40301e-06
2.35522e-06
2.3101e-06
2.26838e-06
2.2308e-06
2.198e-06
2.17065e-06
2.14967e-06
2.13566e-06
2.13106e-06
2.134e-06
2.15361e-06
2.62302e-06
2.62284e-06
2.60857e-06
2.57998e-06
2.54682e-06
2.5069e-06
2.46463e-06
2.42035e-06
2.37615e-06
2.33286e-06
2.29166e-06
2.25329e-06
2.21858e-06
2.18816e-06
2.16286e-06
2.14333e-06
2.13091e-06
2.1263e-06
2.13238e-06
2.14773e-06
2.52947e-06
2.53768e-06
2.53218e-06
2.51209e-06
2.48689e-06
2.45436e-06
2.41885e-06
2.38072e-06
2.34206e-06
2.30374e-06
2.26695e-06
2.23249e-06
2.20118e-06
2.17369e-06
2.15081e-06
2.13315e-06
2.12203e-06
2.11768e-06
2.12329e-06
2.1377e-06
2.43398e-06
2.44915e-06
2.45128e-06
2.43889e-06
2.421e-06
2.39553e-06
2.36663e-06
2.33469e-06
2.30176e-06
2.2687e-06
2.23671e-06
2.20658e-06
2.17912e-06
2.15498e-06
2.1349e-06
2.11942e-06
2.10966e-06
2.10591e-06
2.11081e-06
2.12325e-06
2.33739e-06
2.35808e-06
2.36669e-06
2.36116e-06
2.35e-06
2.33123e-06
2.30879e-06
2.28304e-06
2.25597e-06
2.2284e-06
2.20151e-06
2.17606e-06
2.15284e-06
2.13243e-06
2.1155e-06
2.10248e-06
2.09429e-06
2.09107e-06
2.09502e-06
2.10511e-06
2.24013e-06
2.26515e-06
2.27923e-06
2.27979e-06
2.27477e-06
2.26235e-06
2.24614e-06
2.22655e-06
2.2054e-06
2.1835e-06
2.16195e-06
2.14148e-06
2.1228e-06
2.10644e-06
2.09298e-06
2.08271e-06
2.0763e-06
2.07377e-06
2.07666e-06
2.08401e-06
2.14205e-06
2.17038e-06
2.18907e-06
2.19507e-06
2.19571e-06
2.18934e-06
2.17925e-06
2.16578e-06
2.15065e-06
2.13458e-06
2.11859e-06
2.10334e-06
2.08949e-06
2.07749e-06
2.06777e-06
2.06054e-06
2.05617e-06
2.0545e-06
2.05636e-06
2.0609e-06
2.04268e-06
2.07358e-06
2.09622e-06
2.10717e-06
2.11317e-06
2.11269e-06
2.10865e-06
2.10137e-06
2.09237e-06
2.0823e-06
2.07209e-06
2.0623e-06
2.05352e-06
2.04612e-06
2.04041e-06
2.03648e-06
2.03442e-06
2.03389e-06
2.03495e-06
2.03676e-06
1.94105e-06
1.97408e-06
2.00029e-06
2.01598e-06
2.02725e-06
2.03267e-06
2.03479e-06
2.03387e-06
2.03122e-06
2.0274e-06
2.0232e-06
2.01911e-06
2.01562e-06
2.01303e-06
2.01155e-06
2.01117e-06
2.0117e-06
2.01263e-06
2.01324e-06
2.01267e-06
1.83623e-06
1.87129e-06
1.901e-06
1.92152e-06
1.93823e-06
1.94979e-06
1.95837e-06
1.96413e-06
1.96814e-06
1.97086e-06
1.97294e-06
1.97478e-06
1.97677e-06
1.97915e-06
1.98205e-06
1.98537e-06
1.98873e-06
1.99146e-06
1.99212e-06
1.98971e-06
1.72656e-06
1.76404e-06
1.79765e-06
1.8235e-06
1.8462e-06
1.86448e-06
1.88008e-06
1.89303e-06
1.9042e-06
1.91388e-06
1.92257e-06
1.93059e-06
1.93823e-06
1.94568e-06
1.95301e-06
1.96008e-06
1.96642e-06
1.97122e-06
1.97249e-06
1.96899e-06
1.61143e-06
1.65224e-06
1.69057e-06
1.72267e-06
1.75223e-06
1.77804e-06
1.80141e-06
1.82223e-06
1.8411e-06
1.85818e-06
1.87383e-06
1.88823e-06
1.90162e-06
1.91413e-06
1.9258e-06
1.93652e-06
1.94578e-06
1.95277e-06
1.9552e-06
1.95148e-06
1.48853e-06
1.53446e-06
1.57914e-06
1.61907e-06
1.65692e-06
1.69157e-06
1.7238e-06
1.75342e-06
1.78074e-06
1.8058e-06
1.8288e-06
1.84984e-06
1.86906e-06
1.88655e-06
1.90235e-06
1.91638e-06
1.92824e-06
1.93722e-06
1.94116e-06
1.93819e-06
1.36029e-06
1.41372e-06
1.46679e-06
1.51637e-06
1.56408e-06
1.60881e-06
1.65092e-06
1.69008e-06
1.7264e-06
1.75979e-06
1.79032e-06
1.81803e-06
1.84296e-06
1.86517e-06
1.88469e-06
1.9015e-06
1.91534e-06
1.92576e-06
1.93111e-06
1.92953e-06
1.22413e-06
1.28906e-06
1.35385e-06
1.41588e-06
1.47568e-06
1.53223e-06
1.58554e-06
1.63521e-06
1.68119e-06
1.72336e-06
1.76169e-06
1.79616e-06
1.82677e-06
1.85351e-06
1.87634e-06
1.89523e-06
1.91001e-06
1.92058e-06
1.92619e-06
1.92606e-06
1.09586e-06
1.17559e-06
1.25436e-06
1.33013e-06
1.40282e-06
1.47142e-06
1.53584e-06
1.59562e-06
1.65072e-06
1.70101e-06
1.74647e-06
1.78706e-06
1.82276e-06
1.85348e-06
1.87908e-06
1.89944e-06
1.91425e-06
1.92365e-06
1.92737e-06
1.92677e-06
1.71581e-06
1.8324e-06
2.03063e-06
2.24858e-06
2.46522e-06
2.65577e-06
2.80996e-06
2.92047e-06
2.98893e-06
3.00303e-06
1.62518e-06
1.73387e-06
1.91681e-06
2.12284e-06
2.3348e-06
2.52919e-06
2.69554e-06
2.82321e-06
2.91178e-06
2.94648e-06
1.54401e-06
1.64763e-06
1.81786e-06
2.01086e-06
2.21282e-06
2.40212e-06
2.56995e-06
2.70738e-06
2.8146e-06
2.88066e-06
1.46977e-06
1.56999e-06
1.72967e-06
1.91111e-06
2.10375e-06
2.28755e-06
2.45387e-06
2.59424e-06
2.70662e-06
2.79176e-06
1.40011e-06
1.49801e-06
1.64874e-06
1.81928e-06
2.00198e-06
2.17891e-06
2.34218e-06
2.48508e-06
2.60105e-06
2.69713e-06
1.33473e-06
1.43114e-06
1.57449e-06
1.73538e-06
1.90847e-06
2.07763e-06
2.23529e-06
2.37698e-06
2.49302e-06
2.5962e-06
1.2724e-06
1.36779e-06
1.50491e-06
1.65719e-06
1.82125e-06
1.98278e-06
2.13447e-06
2.27378e-06
2.38815e-06
2.49362e-06
1.21292e-06
1.3075e-06
1.43923e-06
1.58376e-06
1.73923e-06
1.89293e-06
2.0379e-06
2.17333e-06
2.28518e-06
2.39076e-06
1.15589e-06
1.24965e-06
1.37654e-06
1.51401e-06
1.66148e-06
1.80755e-06
1.94573e-06
2.07637e-06
2.18491e-06
2.28867e-06
1.10131e-06
1.19397e-06
1.31627e-06
1.44704e-06
1.58678e-06
1.72522e-06
1.85648e-06
1.98169e-06
2.08658e-06
2.18751e-06
1.04931e-06
1.14037e-06
1.25796e-06
1.38211e-06
1.51424e-06
1.64502e-06
1.76929e-06
1.88857e-06
1.98945e-06
2.08689e-06
1.00031e-06
1.08898e-06
1.20133e-06
1.3185e-06
1.44279e-06
1.56567e-06
1.68279e-06
1.7958e-06
1.89244e-06
1.98604e-06
9.55136e-07
1.04017e-06
1.14612e-06
1.25539e-06
1.37119e-06
1.4857e-06
1.5954e-06
1.70183e-06
1.79405e-06
1.88368e-06
9.15032e-07
9.94535e-07
1.09222e-06
1.19209e-06
1.2983e-06
1.40371e-06
1.50557e-06
1.60516e-06
1.69285e-06
1.77852e-06
8.82382e-07
9.53046e-07
1.03892e-06
1.12672e-06
1.22158e-06
1.31693e-06
1.41051e-06
1.50316e-06
1.58642e-06
1.66844e-06
8.60001e-07
9.16151e-07
9.85472e-07
1.05813e-06
1.13955e-06
1.22375e-06
1.30863e-06
1.39434e-06
1.47348e-06
1.55236e-06
8.54163e-07
8.84788e-07
9.27819e-07
9.79968e-07
1.04544e-06
1.11778e-06
1.19423e-06
1.27382e-06
1.34999e-06
1.42706e-06
8.66014e-07
8.52981e-07
8.61487e-07
8.902e-07
9.38475e-07
9.98938e-07
1.06784e-06
1.14265e-06
1.2175e-06
1.29446e-06
9.11296e-07
8.12931e-07
7.66168e-07
7.66158e-07
7.9919e-07
8.51483e-07
9.17106e-07
9.91455e-07
1.06917e-06
1.14993e-06
9.31007e-07
7.13324e-07
6.35286e-07
6.12772e-07
6.38236e-07
6.88114e-07
7.56142e-07
8.35455e-07
9.20878e-07
1.00979e-06
)
;

boundaryField
{
    left
    {
        type            calculated;
        value           nonuniform List<scalar> 
30
(
1.69601e-06
1.60645e-06
1.5263e-06
1.45294e-06
1.38426e-06
1.31993e-06
1.25886e-06
1.2009e-06
1.14572e-06
1.09342e-06
1.04422e-06
9.98629e-07
9.57566e-07
9.22402e-07
8.95634e-07
8.80949e-07
8.85818e-07
9.19312e-07
1.0127e-06
1.15845e-06
7.68802e-06
4.931e-06
3.71094e-06
3.08403e-06
2.69373e-06
2.41681e-06
2.20925e-06
2.04441e-06
1.90985e-06
1.79369e-06
)
;
    }
    right
    {
        type            calculated;
        value           nonuniform List<scalar> 
30
(
1.92603e-06
1.9255e-06
1.93065e-06
1.94392e-06
1.96379e-06
1.98898e-06
2.01727e-06
2.04663e-06
2.07506e-06
2.10068e-06
2.12176e-06
2.13745e-06
2.14807e-06
2.15384e-06
2.1538e-06
2.14835e-06
2.13835e-06
2.12379e-06
2.10552e-06
2.08428e-06
2.06102e-06
2.03675e-06
2.01255e-06
1.98951e-06
1.96876e-06
1.95128e-06
1.93807e-06
1.92951e-06
1.92614e-06
1.9264e-06
)
;
    }
    down
    {
        type            calculated;
        value           nonuniform List<scalar> 
30
(
8.00609e-09
9.20167e-09
8.97246e-08
2.17315e-07
3.64342e-07
5.18082e-07
6.68303e-07
8.11545e-07
9.42959e-07
1.06471e-06
1.17433e-06
1.26986e-06
1.35762e-06
1.43653e-06
1.50771e-06
1.57151e-06
1.6287e-06
1.67967e-06
1.72504e-06
1.76514e-06
1.80038e-06
1.83099e-06
1.8572e-06
1.87915e-06
1.89688e-06
1.9105e-06
1.91997e-06
1.92562e-06
1.92744e-06
1.92682e-06
)
;
    }
    up
    {
        type            calculated;
        value           nonuniform List<scalar> 
30
(
9.1798e-07
7.05358e-07
6.31133e-07
6.08045e-07
6.32717e-07
6.81794e-07
7.49327e-07
8.28492e-07
9.13845e-07
1.00313e-06
1.08948e-06
1.16987e-06
1.24942e-06
1.32584e-06
1.3992e-06
1.46838e-06
1.53334e-06
1.59361e-06
1.64915e-06
1.69981e-06
1.7456e-06
1.78648e-06
1.82241e-06
1.85331e-06
1.87905e-06
1.89948e-06
1.91431e-06
1.92368e-06
1.92733e-06
1.92706e-06
)
;
    }
    hole
    {
        type            calculated;
        value           nonuniform List<scalar> 
20
(
3.4309e-06
4.02523e-06
4.60624e-06
5.16234e-06
5.67591e-06
6.15026e-06
6.55962e-06
6.95482e-06
7.25908e-06
7.61451e-06
3.67901e-09
3.86466e-09
6.73439e-08
2.29832e-07
4.83458e-07
8.25984e-07
1.24611e-06
1.73199e-06
2.26845e-06
2.84028e-06
)
;
    }
    frontAndBack
    {
        type            empty;
    }
}


// ************************************************************************* //
