/*--------------------------------*- C++ -*----------------------------------*\
  =========                 |
  \\      /  F ield         | OpenFOAM: The Open Source CFD Toolbox
   \\    /   O peration     | Website:  https://openfoam.org
    \\  /    A nd           | Version:  9
     \\/     M anipulation  |
\*---------------------------------------------------------------------------*/
FoamFile
{
    format      ascii;
    class       volSymmTensorField;
    location    "5";
    object      epsilon;
}
// * * * * * * * * * * * * * * * * * * * * * * * * * * * * * * * * * * * * * //

dimensions      [0 0 0 0 0 0 0];

internalField   nonuniform List<symmTensor> 
1000
(
(2.10586e-06 -2.73253e-06 2.57087e-19 4.2431e-07 2.82677e-19 7.70385e-34)
(2.90535e-06 -2.10751e-06 -4.34041e-21 -5.19941e-07 2.43359e-21 0)
(3.29712e-06 -1.61423e-06 5.06399e-21 -9.71473e-07 -9.72761e-22 0)
(3.51675e-06 -1.24207e-06 1.30016e-21 -1.28843e-06 -9.30198e-22 0)
(3.62254e-06 -9.42692e-07 -5.49831e-21 -1.46408e-06 4.05389e-22 0)
(3.65802e-06 -7.08672e-07 -5.9469e-22 -1.57651e-06 6.53585e-22 0)
(3.65385e-06 -5.1851e-07 -4.99577e-21 -1.63734e-06 -2.68201e-21 0)
(3.62062e-06 -3.67334e-07 3.42862e-21 -1.66839e-06 1.60284e-21 0)
(3.57754e-06 -2.41682e-07 -1.76894e-21 -1.6797e-06 -2.01313e-21 0)
(3.51486e-06 -1.3716e-07 0 -1.68138e-06 0 0)
(2.84976e-06 -3.03863e-06 2.6488e-19 1.17339e-07 3.41423e-19 4.62074e-35)
(3.46996e-06 -2.17554e-06 0 -7.22801e-07 0 0)
(3.73547e-06 -1.55226e-06 4.054e-21 -1.09497e-06 1.93201e-21 0)
(3.85843e-06 -1.10428e-06 -6.95639e-21 -1.3591e-06 -3.71106e-21 0)
(3.88898e-06 -7.62747e-07 -2.95682e-21 -1.49244e-06 -1.78345e-21 0)
(3.865e-06 -5.07321e-07 2.05836e-21 -1.57535e-06 2.09956e-21 0)
(3.81259e-06 -3.07897e-07 2.30457e-21 -1.61268e-06 1.54492e-21 0)
(3.74175e-06 -1.5632e-07 5.41824e-21 -1.62955e-06 3.16333e-21 0)
(3.6621e-06 -3.34798e-08 0 -1.62414e-06 0 0)
(3.57795e-06 6.48137e-08 0 -1.62697e-06 0 0)
(3.68348e-06 -3.23215e-06 2.62282e-19 -2.8929e-07 3.92532e-19 0)
(4.05477e-06 -2.17288e-06 0 -9.52094e-07 0 0)
(4.15616e-06 -1.44471e-06 3.86428e-21 -1.20509e-06 1.99702e-21 0)
(4.15952e-06 -9.37402e-07 -1.15933e-21 -1.39259e-06 4.10395e-22 0)
(4.10122e-06 -5.66066e-07 -5.67742e-23 -1.46944e-06 2.53514e-23 0)
(4.00965e-06 -2.98503e-07 -1.91922e-21 -1.51434e-06 -1.98644e-21 0)
(3.90474e-06 -9.75266e-08 2.62004e-21 -1.52309e-06 1.21185e-21 0)
(3.79318e-06 4.92452e-08 -1.94557e-21 -1.52201e-06 -1.43721e-21 0)
(3.68002e-06 1.63329e-07 -1.56731e-22 -1.50103e-06 2.71162e-22 0)
(3.57094e-06 2.56051e-07 -4.10877e-22 -1.49936e-06 -1.76911e-22 0)
(4.57584e-06 -3.28533e-06 2.32296e-19 -7.72632e-07 4.18841e-19 -2.67627e-35)
(4.64517e-06 -2.09095e-06 2.21329e-21 -1.19917e-06 -2.28655e-22 0)
(4.5526e-06 -1.29337e-06 -1.76633e-21 -1.29979e-06 -9.96912e-22 0)
(4.41739e-06 -7.4957e-07 -1.11908e-21 -1.39049e-06 2.17122e-22 0)
(4.25914e-06 -3.64718e-07 2.00396e-21 -1.39941e-06 1.93751e-21 0)
(4.0944e-06 -9.64239e-08 -2.41211e-21 -1.40055e-06 -1.59553e-21 0)
(3.93473e-06 9.75575e-08 -2.084e-21 -1.37886e-06 -1.48347e-21 0)
(3.78306e-06 2.34121e-07 -4.64488e-21 -1.3595e-06 -3.39917e-21 0)
(3.63857e-06 3.34808e-07 -6.66009e-22 -1.32582e-06 -8.13526e-22 0)
(3.50796e-06 4.16782e-07 1.13774e-21 -1.31824e-06 1.00662e-21 0)
(5.48274e-06 -3.17334e-06 1.80641e-19 -1.30147e-06 3.94149e-19 -4.60537e-34)
(5.22203e-06 -1.91863e-06 1.15758e-25 -1.45264e-06 5.53251e-27 0)
(4.91482e-06 -1.0959e-06 -5.71861e-21 -1.37507e-06 -2.80278e-21 0)
(4.62748e-06 -5.44828e-07 5.19697e-22 -1.35304e-06 -1.9531e-23 0)
(4.3617e-06 -1.67632e-07 -7.28391e-22 -1.28524e-06 7.69722e-23 0)
(4.12084e-06 8.64569e-08 1.73714e-21 -1.23884e-06 1.60478e-21 0)
(3.90683e-06 2.62628e-07 -1.94702e-22 -1.18642e-06 5.75178e-23 0)
(3.71698e-06 3.81581e-07 1.8333e-21 -1.14979e-06 1.22571e-21 0)
(3.54545e-06 4.6354e-07 -3.96633e-22 -1.10709e-06 -8.48994e-22 0)
(3.39628e-06 5.30341e-07 -7.2514e-22 -1.09487e-06 -5.85899e-22 0)
(6.3738e-06 -2.89028e-06 1.21644e-19 -1.84084e-06 3.40007e-19 -4.43996e-34)
(5.77156e-06 -1.64868e-06 1.05583e-25 -1.69578e-06 2.23244e-26 0)
(5.23683e-06 -8.49491e-07 -5.71248e-26 -1.42185e-06 -8.8576e-27 0)
(4.78829e-06 -3.27093e-07 4.59348e-22 -1.27773e-06 5.66873e-23 0)
(4.41124e-06 1.66302e-08 -2.47517e-21 -1.12967e-06 -1.50568e-21 0)
(4.09498e-06 2.38716e-07 2.82267e-23 -1.03656e-06 -2.25158e-25 0)
(3.82978e-06 3.85317e-07 1.84232e-21 -9.56554e-07 1.24815e-21 0)
(3.60594e-06 4.79164e-07 3.91745e-21 -9.06056e-07 2.86614e-21 0)
(3.41233e-06 5.37978e-07 7.09631e-22 -8.58816e-07 5.20928e-22 0)
(3.24849e-06 5.85995e-07 -1.23904e-21 -8.44016e-07 -9.76204e-22 0)
(7.18932e-06 -2.41805e-06 8.05037e-20 -2.34788e-06 2.65034e-19 -8.3883e-34)
(6.26168e-06 -1.26096e-06 1.6565e-21 -1.90298e-06 6.65143e-22 0)
(5.49057e-06 -5.46845e-07 1.75089e-21 -1.41953e-06 7.95926e-22 0)
(4.88083e-06 -9.87365e-08 -3.7765e-22 -1.15357e-06 -1.13068e-22 0)
(4.39868e-06 1.795e-07 1.78951e-21 -9.3184e-07 1.19766e-21 0)
(4.01614e-06 3.48803e-07 -1.64691e-21 -8.00833e-07 -1.13463e-21 0)
(3.70938e-06 4.53521e-07 4.68786e-22 -7.02093e-07 2.95619e-23 0)
(3.45993e-06 5.15315e-07 -1.47052e-21 -6.44698e-07 -9.64321e-22 0)
(3.25172e-06 5.48261e-07 -1.01817e-22 -5.99044e-07 1.25067e-23 0)
(3.07818e-06 5.75667e-07 -7.45181e-22 -5.84897e-07 -4.86793e-22 0)
(7.95357e-06 -1.75513e-06 4.2431e-20 -2.78548e-06 1.70137e-19 -2.7091e-35)
(6.67468e-06 -7.35591e-07 -4.41629e-21 -2.02326e-06 -1.59258e-21 0)
(5.65819e-06 -1.83399e-07 3.42181e-23 -1.32686e-06 1.88092e-23 0)
(4.90027e-06 1.27277e-07 5.52338e-22 -9.61346e-07 2.80873e-22 0)
(4.33023e-06 3.03541e-07 4.09206e-21 -6.90154e-07 2.0376e-21 0)
(3.89948e-06 4.0063e-07 -2.42053e-22 -5.42274e-07 -7.64637e-23 0)
(3.56627e-06 4.55424e-07 6.02591e-27 -4.41207e-07 1.21521e-27 0)
(3.30289e-06 4.83028e-07 -1.43891e-21 -3.87916e-07 -7.60119e-22 0)
(3.08872e-06 4.92008e-07 3.49491e-23 -3.51258e-07 1.63618e-24 0)
(2.91108e-06 5.00705e-07 1.07712e-22 -3.41507e-07 5.31899e-23 0)
(8.5443e-06 -8.19055e-07 1.16819e-20 -3.04269e-06 6.39146e-20 1.48954e-34)
(6.87644e-06 -7.10423e-08 -4.86553e-21 -1.92299e-06 -2.04553e-21 0)
(5.62673e-06 1.91761e-07 5.08718e-22 -1.05614e-06 4.33641e-22 0)
(4.77475e-06 2.90033e-07 4.77992e-22 -6.61324e-07 3.78722e-22 0)
(4.17505e-06 3.39323e-07 -1.99983e-22 -4.03622e-07 -1.22471e-22 0)
(3.73794e-06 3.56171e-07 1.5938e-21 -2.79334e-07 5.79947e-22 0)
(3.40736e-06 3.64468e-07 8.70941e-23 -2.01839e-07 2.7126e-23 0)
(3.14792e-06 3.64388e-07 2.57066e-21 -1.66593e-07 9.85363e-22 0)
(2.93848e-06 3.58046e-07 5.6755e-22 -1.45766e-07 2.19784e-22 0)
(2.76245e-06 3.54835e-07 3.18067e-22 -1.43057e-07 1.27429e-22 0)
(9.07107e-06 7.39372e-07 9.70328e-22 -2.80786e-06 -3.90089e-20 -1.72778e-34)
(6.7045e-06 8.25591e-07 -3.72895e-22 -1.26571e-06 -6.4673e-22 0)
(5.3909e-06 5.45463e-07 1.69009e-21 -5.2967e-07 7.19297e-22 0)
(4.57265e-06 3.54138e-07 8.69831e-23 -2.61331e-07 1.22338e-22 0)
(4.02244e-06 2.79619e-07 2.97163e-27 -1.22912e-07 2.7743e-27 0)
(3.61692e-06 2.3802e-07 1.61612e-21 -6.74377e-08 2.91115e-22 0)
(3.30899e-06 2.23126e-07 2.50623e-23 -3.78851e-08 7.47967e-24 0)
(3.0617e-06 2.14427e-07 1.23852e-21 -2.79934e-08 2.3513e-22 0)
(2.85961e-06 2.07598e-07 -1.36948e-23 -2.36075e-08 -1.06101e-24 0)
(2.68479e-06 2.02956e-07 -2.08071e-23 -2.52868e-08 -4.4021e-24 0)
(-8.28667e-09 8.69832e-09 3.64585e-20 -1.26939e-09 2.25417e-20 1.77271e-34)
(1.10389e-08 -2.06104e-08 -9.36676e-23 -2.48785e-09 1.98937e-20 1.51709e-36)
(1.06567e-07 -6.9731e-08 -1.18311e-21 -4.87548e-08 1.62243e-20 1.89418e-35)
(2.57302e-07 -1.09082e-07 -2.10984e-24 -1.17773e-07 1.74931e-20 0)
(4.30974e-07 -1.33392e-07 -1.60025e-22 -1.9452e-07 1.55875e-20 -1.52324e-36)
(6.12572e-07 -1.47269e-07 -1.62147e-21 -2.73498e-07 1.7272e-20 3.18643e-35)
(7.90011e-07 -1.52761e-07 3.64068e-22 -3.49771e-07 1.91767e-20 1.52328e-36)
(9.59205e-07 -1.53265e-07 -1.07585e-21 -4.21815e-07 1.80291e-20 2.89686e-35)
(1.11443e-06 -1.49228e-07 8.69145e-22 -4.88127e-07 1.83777e-20 -1.25723e-35)
(1.25824e-06 -1.46116e-07 1.82377e-21 -5.47835e-07 1.78994e-20 -3.79179e-35)
(1.88358e-08 -2.23268e-08 3.73102e-20 -7.87033e-09 5.84249e-21 4.98018e-35)
(1.13442e-07 -1.30915e-07 1.30803e-21 -5.92408e-10 1.43596e-21 0)
(2.86128e-07 -2.50923e-07 -1.22419e-21 -7.2481e-08 -1.23047e-21 0)
(4.78268e-07 -3.42688e-07 1.16612e-23 -1.69565e-07 -1.01904e-21 0)
(6.7109e-07 -3.99183e-07 0 -2.66394e-07 0 0)
(8.54011e-07 -4.30902e-07 -1.85738e-21 -3.57658e-07 -2.75617e-22 0)
(1.02256e-06 -4.42408e-07 3.13709e-22 -4.39801e-07 1.6002e-21 0)
(1.17745e-06 -4.41744e-07 2.34161e-23 -5.13288e-07 8.6089e-23 0)
(1.31393e-06 -4.29578e-07 -1.00251e-21 -5.77891e-07 -2.90982e-21 0)
(1.44068e-06 -4.19882e-07 7.33637e-22 -6.32814e-07 1.1396e-22 0)
(2.92089e-08 -1.18777e-07 3.95287e-20 3.55338e-08 7.82488e-21 -2.22083e-36)
(2.10376e-07 -3.30345e-07 1.3378e-21 1.20918e-08 1.41842e-21 0)
(4.54238e-07 -4.79034e-07 1.39935e-21 -9.96935e-08 2.93007e-22 0)
(6.93728e-07 -5.78715e-07 7.17181e-23 -2.38525e-07 -9.82747e-22 0)
(9.14195e-07 -6.33709e-07 0 -3.66563e-07 0 0)
(1.10818e-06 -6.59645e-07 -2.07889e-21 -4.78929e-07 -5.42723e-22 0)
(1.27667e-06 -6.62912e-07 -2.83569e-21 -5.73349e-07 -7.94246e-22 0)
(1.42484e-06 -6.52415e-07 1.87631e-21 -6.52897e-07 1.14755e-21 0)
(1.54803e-06 -6.29371e-07 1.14049e-23 -7.17814e-07 3.66533e-23 0)
(1.66299e-06 -6.09994e-07 -1.68773e-21 -7.70633e-07 -1.06722e-21 0)
(4.48402e-08 -2.69954e-07 4.93279e-20 1.38735e-07 1.25171e-20 -4.24189e-35)
(3.43136e-07 -5.69416e-07 3.29629e-22 2.53627e-08 -1.19151e-21 0)
(6.53031e-07 -7.25799e-07 1.53786e-21 -1.36332e-07 3.00503e-22 0)
(9.35563e-07 -8.1356e-07 0 -3.1626e-07 0 0)
(1.18032e-06 -8.49999e-07 -2.62067e-21 -4.72934e-07 9.77276e-22 0)
(1.38501e-06 -8.56886e-07 3.22341e-23 -6.05553e-07 2.41812e-21 0)
(1.55435e-06 -8.42397e-07 -1.30807e-22 -7.12657e-07 -1.29905e-21 0)
(1.69744e-06 -8.15433e-07 -3.76253e-22 -7.99544e-07 -2.00514e-21 0)
(1.80903e-06 -7.77877e-07 8.56197e-22 -8.66701e-07 2.77853e-22 0)
(1.91419e-06 -7.4612e-07 1.59827e-21 -9.19542e-07 5.99554e-22 0)
(8.54801e-08 -4.83517e-07 5.23355e-20 2.82187e-07 2.23357e-20 1.10008e-34)
(5.30131e-07 -8.29727e-07 -2.69951e-21 2.2402e-08 1.81054e-21 0)
(9.06242e-07 -9.7034e-07 -1.63754e-21 -2.06998e-07 -4.81686e-22 0)
(1.22541e-06 -1.02891e-06 -4.41436e-22 -4.31509e-07 1.77254e-21 0)
(1.48627e-06 -1.03294e-06 -1.73044e-23 -6.14159e-07 1.09341e-22 0)
(1.69494e-06 -1.01023e-06 2.52464e-21 -7.63048e-07 -6.78404e-22 0)
(1.86008e-06 -9.70369e-07 1.09998e-21 -8.789e-07 2.88668e-22 0)
(1.99436e-06 -9.21482e-07 0 -9.69722e-07 0 0)
(2.09211e-06 -8.66528e-07 -1.17524e-21 -1.03645e-06 -1.54587e-21 0)
(2.18572e-06 -8.19784e-07 4.6844e-22 -1.08727e-06 1.13674e-22 0)
(1.74141e-07 -7.64183e-07 7.43758e-20 4.43583e-07 3.24512e-20 -1.62263e-34)
(7.77706e-07 -1.09368e-06 1.10136e-21 2.60676e-09 -2.14797e-21 0)
(1.21639e-06 -1.19036e-06 -1.35272e-21 -3.03927e-07 -1.45921e-21 0)
(1.563e-06 -1.20478e-06 2.9706e-22 -5.72041e-07 -8.25361e-22 0)
(1.82987e-06 -1.16768e-06 2.86121e-21 -7.75412e-07 9.57193e-22 0)
(2.03368e-06 -1.1101e-06 -2.75982e-21 -9.3478e-07 3.08027e-22 0)
(2.18768e-06 -1.04168e-06 -3.10649e-24 -1.0543e-06 7.32948e-23 0)
(2.30757e-06 -9.68975e-07 -2.1506e-21 -1.1448e-06 -1.48113e-21 0)
(2.38796e-06 -8.96121e-07 4.53618e-24 -1.20839e-06 2.87658e-23 0)
(2.46666e-06 -8.33638e-07 -2.34798e-21 -1.25474e-06 -1.0732e-21 0)
(3.36567e-07 -1.10891e-06 1.13341e-19 5.88597e-07 6.12162e-20 -1.6985e-34)
(1.08799e-06 -1.35079e-06 6.09729e-23 -4.09683e-08 -9.23887e-23 0)
(1.57782e-06 -1.37277e-06 -4.46705e-26 -4.24576e-07 7.63028e-26 0)
(1.93949e-06 -1.32811e-06 -2.9234e-21 -7.32319e-07 -2.04846e-21 0)
(2.20113e-06 -1.243e-06 -4.95718e-22 -9.50353e-07 1.32747e-21 0)
(2.39036e-06 -1.14775e-06 -2.6787e-21 -1.11413e-06 -1.08994e-21 0)
(2.52562e-06 -1.04997e-06 4.81543e-21 -1.23181e-06 2.14636e-21 0)
(2.6248e-06 -9.53855e-07 -5.63509e-25 -1.31746e-06 5.75635e-23 0)
(2.68402e-06 -8.64323e-07 9.47506e-22 -1.37463e-06 -4.3156e-24 0)
(2.74357e-06 -7.86628e-07 -1.28437e-21 -1.4139e-06 -6.11492e-22 0)
(5.96598e-07 -1.5049e-06 1.61523e-19 6.84998e-07 1.02017e-19 -3.39849e-34)
(1.45992e-06 -1.59098e-06 1.57059e-21 -1.11268e-07 -1.87684e-21 0)
(1.97907e-06 -1.50889e-06 -6.06224e-22 -5.58538e-07 8.08125e-22 0)
(2.33914e-06 -1.39188e-06 3.70565e-22 -8.96014e-07 -5.77877e-22 0)
(2.58309e-06 -1.25408e-06 3.30362e-26 -1.1206e-06 -6.49112e-26 0)
(2.74802e-06 -1.12068e-06 3.1085e-21 -1.28225e-06 2.6252e-22 0)
(2.85748e-06 -9.95074e-07 2.32832e-22 -1.39324e-06 -1.01272e-21 0)
(2.93018e-06 -8.78169e-07 -7.74551e-23 -1.46985e-06 8.33387e-22 0)
(2.96553e-06 -7.74868e-07 1.1101e-23 -1.51909e-06 4.16177e-22 0)
(3.00164e-06 -6.83984e-07 9.82013e-22 -1.5485e-06 9.17386e-22 0)
(9.73105e-07 -1.92897e-06 2.00308e-19 7.02497e-07 1.58146e-19 4.6008e-34)
(1.89087e-06 -1.80432e-06 -5.05558e-22 -2.13293e-07 3.44113e-21 0)
(2.40783e-06 -1.59473e-06 -5.86049e-26 -6.9892e-07 6.147e-26 0)
(2.74555e-06 -1.3954e-06 4.02242e-21 -1.05078e-06 9.4413e-22 0)
(2.95814e-06 -1.20242e-06 3.07246e-21 -1.27162e-06 1.53368e-21 0)
(3.089e-06 -1.03226e-06 2.77196e-21 -1.42431e-06 1.38408e-21 0)
(3.166e-06 -8.81606e-07 -3.02413e-22 -1.5233e-06 8.70495e-22 0)
(3.20695e-06 -7.48259e-07 -3.33801e-21 -1.58809e-06 -1.8651e-21 0)
(3.21652e-06 -6.34715e-07 2.04921e-21 -1.62696e-06 4.85081e-22 0)
(3.2264e-06 -5.33192e-07 9.19277e-22 -1.64913e-06 5.46287e-22 0)
(1.47634e-06 -2.35036e-06 2.32689e-19 6.1956e-07 2.15546e-19 6.70892e-35)
(2.37525e-06 -1.98031e-06 -1.01851e-21 -3.49195e-07 7.52032e-22 0)
(2.85086e-06 -1.62957e-06 -1.97541e-21 -8.38117e-07 -9.20865e-22 0)
(3.14203e-06 -1.34303e-06 8.5568e-21 -1.18402e-06 2.00425e-21 0)
(3.30827e-06 -1.09514e-06 5.23462e-23 -1.38887e-06 -5.95752e-23 0)
(3.39528e-06 -8.90844e-07 -2.72618e-21 -1.52479e-06 -1.54772e-21 0)
(3.43351e-06 -7.19057e-07 -2.92038e-21 -1.60726e-06 -4.59585e-22 0)
(3.43809e-06 -5.74159e-07 -1.10068e-21 -1.65544e-06 -6.58291e-22 0)
(3.423e-06 -4.56688e-07 1.21477e-22 -1.68661e-06 -9.11723e-22 0)
(3.39812e-06 -3.54817e-07 5.51474e-22 -1.68931e-06 1.15255e-21 0)
(1.38772e-06 -1.35494e-07 1.83831e-21 -6.03366e-07 1.90616e-20 -1.12853e-35)
(1.50056e-06 -1.20773e-07 1.72144e-21 -6.49651e-07 1.77919e-20 -2.47947e-35)
(1.60422e-06 -1.07981e-07 -1.69288e-22 -6.92603e-07 1.55664e-20 -1.44616e-35)
(1.69742e-06 -9.63699e-08 1.66714e-22 -7.31466e-07 1.67702e-20 -6.34554e-37)
(1.78151e-06 -8.56031e-08 -8.67653e-22 -7.66429e-07 1.69318e-20 3.76814e-35)
(1.85686e-06 -7.59653e-08 5.74814e-22 -7.97943e-07 1.74085e-20 0)
(1.92441e-06 -6.71275e-08 5.41829e-22 -8.26148e-07 1.73884e-20 0)
(1.98462e-06 -5.91568e-08 1.0613e-21 -8.51381e-07 1.80478e-20 4.89263e-37)
(2.03821e-06 -5.18489e-08 9.65208e-22 -8.73842e-07 1.75335e-20 -1.27864e-35)
(2.08557e-06 -4.51538e-08 1.60258e-21 -8.9375e-07 1.87065e-20 8.2939e-37)
(2.12719e-06 -3.89253e-08 1.89213e-21 -9.11269e-07 1.78818e-20 -3.87117e-35)
(2.16335e-06 -3.30725e-08 -1.25843e-22 -9.26536e-07 1.71113e-20 1.29638e-35)
(2.19431e-06 -2.74811e-08 1.84438e-21 -9.39653e-07 1.78637e-20 -3.90737e-35)
(2.22024e-06 -2.20675e-08 -1.55155e-21 -9.50688e-07 1.51366e-20 -7.84406e-37)
(2.24118e-06 -1.67627e-08 3.80511e-22 -9.59674e-07 1.7788e-20 1.33711e-35)
(2.25727e-06 -1.15593e-08 2.31553e-22 -9.66647e-07 1.72516e-20 -3.16463e-45)
(2.26845e-06 -6.53208e-09 -4.36017e-22 -9.71586e-07 1.65073e-20 -1.42755e-37)
(2.27513e-06 -1.96582e-09 7.92431e-22 -9.74564e-07 1.79774e-20 1.02419e-37)
(2.27728e-06 1.53681e-09 4.31597e-22 -9.75478e-07 1.63175e-20 -4.03601e-35)
(2.27655e-06 2.36503e-09 1.25993e-20 -9.74164e-07 1.46497e-20 -2.45183e-35)
(1.54494e-06 -3.90925e-07 1.7963e-21 -6.82331e-07 2.20805e-21 0)
(1.62858e-06 -3.5175e-07 1.16365e-21 -7.17701e-07 3.18932e-22 0)
(1.70857e-06 -3.17248e-07 8.68561e-23 -7.50274e-07 -5.04643e-22 0)
(1.78032e-06 -2.85063e-07 2.64488e-21 -7.80174e-07 2.38431e-21 0)
(1.8464e-06 -2.54902e-07 -5.0792e-22 -8.06855e-07 -1.19993e-22 0)
(1.90605e-06 -2.27653e-07 -2.15715e-21 -8.31354e-07 -2.18587e-21 0)
(1.96037e-06 -2.0243e-07 1.09922e-21 -8.53338e-07 4.06787e-22 0)
(2.00928e-06 -1.79526e-07 0 -8.73323e-07 0 0)
(2.05343e-06 -1.58393e-07 5.23792e-22 -8.913e-07 1.85532e-22 0)
(2.09293e-06 -1.3895e-07 1.07697e-21 -9.07505e-07 4.15107e-22 0)
(2.12818e-06 -1.20824e-07 3.2306e-21 -9.22011e-07 1.66922e-21 0)
(2.15935e-06 -1.03803e-07 1.45907e-23 -9.34936e-07 1.66769e-23 0)
(2.18667e-06 -8.76073e-08 4.18666e-22 -9.46333e-07 -3.26092e-22 0)
(2.21028e-06 -7.20415e-08 6.17094e-22 -9.56238e-07 7.05759e-22 0)
(2.23027e-06 -5.69514e-08 6.33082e-22 -9.64625e-07 7.25922e-22 0)
(2.24678e-06 -4.23318e-08 -6.27153e-22 -9.71406e-07 -7.22777e-22 0)
(2.25969e-06 -2.8356e-08 -6.30714e-22 -9.76352e-07 -7.30977e-22 0)
(2.26915e-06 -1.56322e-08 -1.26664e-21 -9.7906e-07 -1.4766e-21 0)
(2.27442e-06 -5.08212e-09 -9.58337e-24 -9.78598e-07 -1.04879e-23 0)
(2.27573e-06 5.32105e-10 1.51422e-20 -9.73464e-07 1.05491e-21 3.42771e-35)
(1.74328e-06 -5.66559e-07 4.91616e-22 -8.11425e-07 6.72257e-22 0)
(1.79591e-06 -5.13146e-07 6.70015e-22 -8.3247e-07 2.39097e-22 0)
(1.85044e-06 -4.65233e-07 -1.55838e-21 -8.50135e-07 -1.96205e-21 0)
(1.89823e-06 -4.20757e-07 -1.39098e-22 -8.66904e-07 3.58308e-22 0)
(1.94404e-06 -3.78386e-07 2.84177e-21 -8.81211e-07 2.36596e-21 0)
(1.98555e-06 -3.39931e-07 -2.25778e-21 -8.94915e-07 -2.1554e-21 0)
(2.02445e-06 -3.03953e-07 -6.01227e-22 -9.07257e-07 -6.96137e-22 0)
(2.05993e-06 -2.71086e-07 1.14909e-21 -9.1891e-07 1.30667e-21 0)
(2.09273e-06 -2.40574e-07 4.03157e-24 -9.29703e-07 -8.48355e-22 0)
(2.12261e-06 -2.12406e-07 -1.21593e-21 -9.39847e-07 -1.36693e-21 0)
(2.14992e-06 -1.86116e-07 1.16515e-21 -9.49332e-07 1.30513e-21 0)
(2.17465e-06 -1.61478e-07 1.80045e-21 -9.58217e-07 2.01786e-21 0)
(2.19697e-06 -1.38153e-07 1.3776e-23 -9.66487e-07 1.51796e-23 0)
(2.21694e-06 -1.15904e-07 -6.1649e-22 -9.74094e-07 -6.94919e-22 0)
(2.23458e-06 -9.45213e-08 6.10292e-22 -9.80894e-07 6.9209e-22 0)
(2.2499e-06 -7.39278e-08 8.99627e-29 -9.86613e-07 1.00166e-28 0)
(2.26259e-06 -5.41703e-08 -6.2879e-22 -9.90702e-07 -7.22058e-22 0)
(2.27247e-06 -3.55595e-08 8.57079e-23 -9.92276e-07 5.21564e-22 0)
(2.27795e-06 -1.86697e-08 -2.06489e-21 -9.89478e-07 -2.65917e-22 0)
(2.27889e-06 -4.25839e-09 1.56755e-20 -9.8023e-07 2.24447e-22 2.58772e-38)
(1.97089e-06 -6.90488e-07 0 -9.52413e-07 0 0)
(1.99136e-06 -6.29287e-07 7.16371e-22 -9.60277e-07 2.60975e-22 0)
(2.02008e-06 -5.72847e-07 5.61242e-22 -9.63814e-07 6.4134e-22 0)
(2.04282e-06 -5.21377e-07 6.15994e-22 -9.68285e-07 7.1308e-22 0)
(2.06731e-06 -4.71277e-07 0 -9.70471e-07 0 0)
(2.08928e-06 -4.25808e-07 8.27094e-23 -9.7341e-07 -3.60022e-22 0)
(2.11139e-06 -3.82738e-07 -1.84244e-21 -9.75895e-07 -1.13153e-21 0)
(2.13198e-06 -3.43207e-07 -1.17656e-21 -9.78828e-07 -1.27834e-21 0)
(2.15201e-06 -3.06257e-07 -6.60901e-22 -9.81934e-07 -3.05103e-22 0)
(2.17086e-06 -2.72017e-07 -2.7028e-24 -9.85416e-07 8.17597e-22 0)
(2.18885e-06 -2.39982e-07 -5.8075e-22 -9.89208e-07 1.79709e-22 0)
(2.20577e-06 -2.09946e-07 1.21608e-21 -9.93313e-07 5.21716e-22 0)
(2.22171e-06 -1.8155e-07 1.15388e-21 -9.97652e-07 5.72066e-23 0)
(2.2366e-06 -1.54529e-07 2.86588e-23 -1.00209e-06 4.37129e-22 0)
(2.25033e-06 -1.28621e-07 5.03875e-23 -1.00639e-06 4.63409e-22 0)
(2.26277e-06 -1.03624e-07 -6.21668e-22 -1.01014e-06 -6.99355e-22 0)
(2.27339e-06 -7.94102e-08 -1.32773e-28 -1.0126e-06 -1.4945e-28 0)
(2.28189e-06 -5.58181e-08 1.32624e-21 -1.01274e-06 1.94435e-21 0)
(2.28623e-06 -3.30516e-08 -6.79295e-23 -1.00846e-06 -5.11372e-22 0)
(2.28648e-06 -9.45822e-09 1.32314e-20 -9.97656e-07 -2.31421e-21 -5.16994e-35)
(2.21782e-06 -7.54652e-07 5.56462e-23 -1.11002e-06 8.95721e-22 0)
(2.20493e-06 -6.93193e-07 -7.7849e-22 -1.10438e-06 -3.40178e-22 0)
(2.20769e-06 -6.3325e-07 -1.95858e-21 -1.0926e-06 -1.59607e-21 0)
(2.20471e-06 -5.80481e-07 1.28926e-21 -1.08425e-06 8.77637e-22 0)
(2.20752e-06 -5.27464e-07 3.35502e-21 -1.07356e-06 2.20387e-21 0)
(2.20919e-06 -4.79556e-07 -6.16612e-22 -1.0649e-06 -6.44479e-22 0)
(2.21379e-06 -4.33481e-07 0 -1.05664e-06 0 0)
(2.21858e-06 -3.90963e-07 6.00507e-22 -1.04988e-06 6.24887e-22 0)
(2.2249e-06 -3.50894e-07 -1.93109e-21 -1.04433e-06 -8.2522e-22 0)
(2.2317e-06 -3.13562e-07 -1.25324e-21 -1.04018e-06 -9.23742e-22 0)
(2.23932e-06 -2.78491e-07 6.91443e-23 -1.03735e-06 -7.1322e-22 0)
(2.24734e-06 -2.45524e-07 -6.32352e-22 -1.03578e-06 -1.06829e-21 0)
(2.25578e-06 -2.14319e-07 -6.27377e-23 -1.03537e-06 1.12212e-21 0)
(2.26441e-06 -1.84587e-07 1.2356e-21 -1.03592e-06 1.74079e-21 0)
(2.27304e-06 -1.56008e-07 6.0087e-22 -1.03711e-06 2.56217e-22 0)
(2.28142e-06 -1.28226e-07 -2.31721e-23 -1.03848e-06 -4.34107e-22 0)
(2.28889e-06 -1.0092e-07 1.16473e-21 -1.03923e-06 4.79205e-22 0)
(2.29509e-06 -7.34096e-08 5.7286e-22 -1.03832e-06 2.30002e-22 0)
(2.29796e-06 -4.56676e-08 2.35229e-21 -1.03379e-06 1.85798e-21 0)
(2.29768e-06 -1.40306e-08 1.83145e-20 -1.02369e-06 2.3677e-21 5.34812e-35)
(2.47333e-06 -7.62362e-07 4.59482e-22 -1.26648e-06 6.30965e-22 0)
(2.42678e-06 -7.08588e-07 1.1072e-23 -1.24934e-06 2.42313e-23 0)
(2.40437e-06 -6.49959e-07 -1.41586e-21 -1.22313e-06 -9.81292e-22 0)
(2.37571e-06 -6.01098e-07 -3.40036e-21 -1.20297e-06 -2.54481e-21 0)
(2.35723e-06 -5.49486e-07 1.32831e-21 -1.18038e-06 9.04993e-22 0)
(2.33864e-06 -5.0303e-07 1.25073e-21 -1.16068e-06 1.24159e-21 0)
(2.32567e-06 -4.57524e-07 -6.12802e-22 -1.14222e-06 -6.09248e-22 0)
(2.31445e-06 -4.15182e-07 -9.79023e-23 -1.12601e-06 2.73219e-22 0)
(2.30666e-06 -3.74909e-07 2.68712e-21 -1.11189e-06 1.60074e-21 0)
(2.3009e-06 -3.37088e-07 -1.79711e-21 -1.09998e-06 -1.83334e-21 0)
(2.29749e-06 -3.01348e-07 -6.39254e-22 -1.09025e-06 -6.60293e-22 0)
(2.29587e-06 -2.67573e-07 1.73874e-21 -1.08263e-06 2.5742e-21 0)
(2.29597e-06 -2.35475e-07 -2.53639e-21 -1.07702e-06 -7.55438e-22 0)
(2.29747e-06 -2.04757e-07 -1.80943e-21 -1.07321e-06 -1.93278e-21 0)
(2.3001e-06 -1.7507e-07 3.97041e-24 -1.07091e-06 -3.90418e-22 0)
(2.30356e-06 -1.45922e-07 -2.43726e-21 -1.06967e-06 -1.8649e-21 0)
(2.30718e-06 -1.16844e-07 -1.77457e-23 -1.06879e-06 -1.66822e-23 0)
(2.31059e-06 -8.67073e-08 2.39601e-21 -1.06738e-06 2.29003e-21 0)
(2.31207e-06 -5.536e-08 3.8225e-23 -1.06387e-06 4.72656e-22 0)
(2.3117e-06 -1.75921e-08 1.91259e-20 -1.05661e-06 8.74835e-22 -4.07704e-37)
(2.72498e-06 -7.136e-07 -4.81511e-22 -1.41368e-06 -6.17369e-22 0)
(2.64624e-06 -6.76101e-07 6.65077e-22 -1.38821e-06 6.07053e-22 0)
(2.60111e-06 -6.23812e-07 8.20627e-22 -1.35004e-06 4.28662e-22 0)
(2.548e-06 -5.83807e-07 -6.48905e-22 -1.31948e-06 -6.08384e-22 0)
(2.50949e-06 -5.38226e-07 -1.53641e-21 -1.28665e-06 -7.67394e-22 0)
(2.47146e-06 -4.96938e-07 7.50041e-22 -1.25662e-06 3.72974e-22 0)
(2.44134e-06 -4.55501e-07 2.12318e-21 -1.22851e-06 1.36603e-21 0)
(2.41441e-06 -4.16204e-07 -3.41604e-21 -1.20305e-06 -2.29342e-21 0)
(2.39253e-06 -3.78317e-07 -2.10704e-21 -1.18045e-06 -1.38784e-21 0)
(2.37416e-06 -3.42262e-07 3.30714e-21 -1.16077e-06 2.23937e-21 0)
(2.35951e-06 -3.07893e-07 -1.34842e-21 -1.14407e-06 -6.44873e-22 0)
(2.34795e-06 -2.75159e-07 1.78786e-21 -1.1303e-06 1.83079e-21 0)
(2.3393e-06 -2.43868e-07 1.92418e-21 -1.11935e-06 1.25362e-21 0)
(2.33321e-06 -2.1374e-07 -1.1241e-21 -1.11107e-06 -1.56387e-21 0)
(2.32936e-06 -1.84421e-07 -7.31886e-22 -1.10522e-06 3.80252e-22 0)
(2.32741e-06 -1.55325e-07 3.47388e-23 -1.10143e-06 3.20401e-23 0)
(2.32684e-06 -1.2588e-07 -2.96995e-21 -1.09918e-06 -2.47121e-21 0)
(2.32722e-06 -9.46327e-08 5.89939e-22 -1.09782e-06 6.62502e-22 0)
(2.32749e-06 -6.13721e-08 1.16902e-21 -1.09633e-06 9.14634e-22 0)
(2.32734e-06 -1.98806e-08 1.96958e-20 -1.09346e-06 7.2174e-22 -1.76283e-37)
(2.95959e-06 -6.11972e-07 5.78401e-24 -1.53872e-06 1.96728e-23 0)
(2.85244e-06 -5.99125e-07 -6.87588e-22 -1.50902e-06 -6.04737e-22 0)
(2.78842e-06 -5.58611e-07 1.47189e-22 -1.46392e-06 -1.60334e-22 0)
(2.71354e-06 -5.30783e-07 0 -1.42481e-06 0 0)
(2.65704e-06 -4.95356e-07 0 -1.38493e-06 0 0)
(2.60182e-06 -4.62135e-07 -2.05875e-21 -1.34691e-06 -1.61164e-21 0)
(2.55588e-06 -4.27968e-07 1.83206e-21 -1.31126e-06 1.70788e-21 0)
(2.51447e-06 -3.94511e-07 3.86214e-21 -1.27815e-06 3.36731e-21 0)
(2.47916e-06 -3.61635e-07 -2.92174e-21 -1.24811e-06 -2.80515e-21 0)
(2.44858e-06 -3.29668e-07 -2.55896e-21 -1.22127e-06 -2.17854e-21 0)
(2.42281e-06 -2.98719e-07 1.18033e-21 -1.19785e-06 1.17341e-21 0)
(2.40126e-06 -2.6882e-07 -1.14966e-22 -1.17792e-06 2.32589e-22 0)
(2.3837e-06 -2.39915e-07 2.0184e-21 -1.16149e-06 9.97588e-22 0)
(2.36977e-06 -2.11795e-07 3.1448e-21 -1.14853e-06 2.17519e-21 0)
(2.35916e-06 -1.84154e-07 4.29373e-23 -1.13891e-06 3.92241e-23 0)
(2.35153e-06 -1.56385e-07 1.42913e-21 -1.13245e-06 -3.91403e-22 0)
(2.34658e-06 -1.27887e-07 0 -1.12889e-06 0 0)
(2.34383e-06 -9.70258e-08 -1.20424e-21 -1.12788e-06 -5.3198e-22 0)
(2.34308e-06 -6.35836e-08 5.79359e-22 -1.12904e-06 2.45255e-22 0)
(2.34345e-06 -2.08353e-08 2.19808e-20 -1.1316e-06 1.21778e-21 -4.93045e-37)
(3.16714e-06 -4.67293e-07 -4.53412e-24 -1.63252e-06 -1.72079e-23 0)
(3.03567e-06 -4.83628e-07 8.53176e-22 -1.60154e-06 5.09867e-22 0)
(2.95845e-06 -4.63295e-07 -8.486e-22 -1.55995e-06 -5.16802e-22 0)
(2.86678e-06 -4.50041e-07 -8.35201e-22 -1.51559e-06 -5.03326e-22 0)
(2.79403e-06 -4.29016e-07 2.29329e-21 -1.47119e-06 1.56421e-21 0)
(2.72417e-06 -4.05851e-07 1.63353e-21 -1.42663e-06 9.75187e-22 0)
(2.66377e-06 -3.80609e-07 -2.16987e-21 -1.38435e-06 -1.4522e-21 0)
(2.60941e-06 -3.54247e-07 2.87669e-22 -1.3446e-06 -3.05436e-22 0)
(2.56186e-06 -3.27495e-07 4.92803e-22 -1.3081e-06 4.56891e-22 0)
(2.52012e-06 -3.00758e-07 -2.667e-22 -1.27514e-06 3.60115e-22 0)
(2.48403e-06 -2.74379e-07 -2.20264e-21 -1.24595e-06 -1.20786e-21 0)
(2.45309e-06 -2.48508e-07 1.9724e-23 -1.2207e-06 1.90206e-23 0)
(2.42702e-06 -2.23188e-07 -1.00877e-21 -1.1995e-06 -1.37164e-21 0)
(2.40547e-06 -1.98287e-07 -3.40558e-23 -1.18241e-06 -3.11441e-23 0)
(2.38822e-06 -1.73554e-07 1.28644e-21 -1.16948e-06 6.26522e-22 0)
(2.37494e-06 -1.48412e-07 -2.56747e-23 -1.1607e-06 -2.24343e-23 0)
(2.36561e-06 -1.22268e-07 1.57046e-21 -1.15614e-06 2.10441e-21 0)
(2.35973e-06 -9.34522e-08 -5.9222e-22 -1.15578e-06 -2.65075e-22 0)
(2.35803e-06 -6.17422e-08 -2.77691e-21 -1.15994e-06 -2.74767e-21 0)
(2.359e-06 -2.03796e-08 1.97398e-20 -1.16842e-06 -9.99953e-22 -3.90269e-35)
(3.3324e-06 -2.81694e-07 -1.08763e-22 -1.69359e-06 -5.48416e-23 0)
(3.19619e-06 -3.17466e-07 -9.14676e-22 -1.65563e-06 -5.392e-22 0)
(3.10794e-06 -3.25885e-07 7.4285e-22 -1.62692e-06 5.832e-22 0)
(3.00981e-06 -3.29299e-07 -1.94465e-21 -1.58651e-06 -1.77044e-21 0)
(2.92389e-06 -3.2766e-07 -2.00051e-21 -1.54448e-06 -1.66282e-21 0)
(2.8427e-06 -3.20176e-07 1.18399e-21 -1.4995e-06 1.22223e-21 0)
(2.76931e-06 -3.08622e-07 1.02942e-21 -1.45421e-06 1.22665e-21 0)
(2.70271e-06 -2.93678e-07 1.7934e-21 -1.41e-06 1.61598e-21 0)
(2.64326e-06 -2.76386e-07 -2.10369e-21 -1.36803e-06 -1.5705e-21 0)
(2.59045e-06 -2.57525e-07 5.23184e-24 -1.32916e-06 4.31084e-23 0)
(2.54409e-06 -2.37724e-07 -2.56722e-23 -1.294e-06 -1.28523e-22 0)
(2.50375e-06 -2.1743e-07 -1.64571e-21 -1.26297e-06 -1.60818e-21 0)
(2.46915e-06 -1.9691e-07 0 -1.23641e-06 0 0)
(2.43995e-06 -1.76231e-07 -1.48969e-21 -1.21458e-06 -4.84267e-22 0)
(2.41598e-06 -1.55291e-07 -7.0026e-24 -1.19773e-06 -2.9688e-23 0)
(2.39694e-06 -1.3364e-07 -1.92367e-21 -1.18609e-06 -9.3684e-22 0)
(2.3831e-06 -1.10779e-07 5.27333e-22 -1.18006e-06 5.56148e-22 0)
(2.37395e-06 -8.51637e-08 1.21314e-21 -1.18003e-06 5.55337e-22 0)
(2.37123e-06 -5.65956e-08 1.50708e-23 -1.18705e-06 -1.23017e-24 0)
(2.37286e-06 -1.87252e-08 2.13035e-20 -1.20153e-06 -1.08709e-22 -1.71991e-37)
(3.41333e-06 -1.28822e-07 9.4143e-22 -1.69896e-06 8.2816e-22 0)
(3.28917e-06 -1.47938e-07 -8.70474e-22 -1.66702e-06 -5.47281e-22 0)
(3.19376e-06 -1.83197e-07 -5.04524e-22 -1.64688e-06 -4.18714e-22 0)
(3.09635e-06 -1.99915e-07 8.36411e-22 -1.61409e-06 5.11349e-22 0)
(3.00614e-06 -2.11681e-07 -1.65278e-21 -1.57566e-06 -7.51366e-22 0)
(2.92054e-06 -2.16965e-07 -1.11467e-21 -1.53353e-06 -5.26693e-22 0)
(2.84161e-06 -2.17137e-07 -1.39026e-21 -1.48944e-06 -1.00879e-21 0)
(2.76882e-06 -2.13106e-07 1.67129e-22 -1.44527e-06 -1.16478e-22 0)
(2.70281e-06 -2.05672e-07 2.80985e-21 -1.40233e-06 1.79123e-21 0)
(2.64327e-06 -1.95683e-07 -9.67101e-23 -1.36177e-06 -1.0393e-22 0)
(2.59024e-06 -1.83795e-07 1.50165e-21 -1.3244e-06 8.5067e-22 0)
(2.54344e-06 -1.70561e-07 -7.41534e-23 -1.29089e-06 -8.39596e-23 0)
(2.50272e-06 -1.56358e-07 5.49102e-36 -1.26178e-06 5.57428e-36 0)
(2.46783e-06 -1.41385e-07 -6.60092e-22 -1.23753e-06 -3.28997e-22 0)
(2.43875e-06 -1.25674e-07 6.45258e-22 -1.21861e-06 3.14314e-22 0)
(2.41524e-06 -1.08953e-07 -2.90126e-23 -1.20549e-06 -4.18632e-23 0)
(2.39787e-06 -9.08683e-08 1.02163e-22 -1.19892e-06 -2.7224e-22 0)
(2.3861e-06 -7.02233e-08 5.86887e-24 -1.19957e-06 1.94283e-23 0)
(2.38248e-06 -4.68793e-08 -5.95026e-24 -1.20917e-06 7.7395e-24 0)
(2.38442e-06 -1.54448e-08 2.32025e-20 -1.22869e-06 1.18451e-22 2.06785e-37)
(3.34592e-06 2.11916e-08 8.74138e-22 -1.63726e-06 6.912e-22 0)
(3.26308e-06 -7.63124e-10 0 -1.64628e-06 0 0)
(3.17674e-06 -4.37992e-08 -6.81977e-22 -1.63078e-06 -6.00755e-22 0)
(3.09038e-06 -7.20276e-08 8.91349e-36 -1.60588e-06 7.21507e-36 0)
(3.00803e-06 -9.42555e-08 2.04255e-36 -1.57299e-06 1.48155e-36 0)
(2.92851e-06 -1.09998e-07 9.68717e-36 -1.53546e-06 7.20304e-36 0)
(2.8539e-06 -1.20167e-07 1.48608e-35 -1.49504e-06 1.20055e-35 0)
(2.78389e-06 -1.25679e-07 -5.9764e-22 -1.45366e-06 -5.59896e-22 0)
(2.71936e-06 -1.27257e-07 0 -1.41273e-06 0 0)
(2.66025e-06 -1.25703e-07 5.71097e-22 -1.37347e-06 5.53216e-22 0)
(2.60684e-06 -1.21651e-07 -8.18455e-37 -1.33684e-06 -1.373e-36 0)
(2.55906e-06 -1.15664e-07 -5.49373e-22 -1.30365e-06 -5.51013e-22 0)
(2.51696e-06 -1.08153e-07 5.40335e-22 -1.27457e-06 5.51321e-22 0)
(2.48046e-06 -9.93941e-08 7.75737e-36 -1.2502e-06 5.65026e-36 0)
(2.44971e-06 -8.94938e-08 -5.25899e-22 -1.23118e-06 -5.54446e-22 0)
(2.42463e-06 -7.83677e-08 -4.66148e-36 -1.21816e-06 -4.30874e-36 0)
(2.40601e-06 -6.577e-08 5.16517e-22 -1.21209e-06 5.61008e-22 0)
(2.3934e-06 -5.09531e-08 5.1381e-22 -1.2139e-06 5.65901e-22 0)
(2.38995e-06 -3.39356e-08 -5.54492e-36 -1.22578e-06 -4.83513e-36 0)
(2.39274e-06 -1.09575e-08 2.38365e-20 -1.24888e-06 -4.90974e-36 -1.40614e-49)