/*--------------------------------*- C++ -*----------------------------------*\
  =========                 |
  \\      /  F ield         | OpenFOAM: The Open Source CFD Toolbox
   \\    /   O peration     | Website:  https://openfoam.org
    \\  /    A nd           | Version:  9
     \\/     M anipulation  |
\*---------------------------------------------------------------------------*/
FoamFile
{
    format      ascii;
    class       pointVectorField;
    location    "5";
    object      pointD;
}
// * * * * * * * * * * * * * * * * * * * * * * * * * * * * * * * * * * * * * //

dimensions      [0 1 0 0 0 0 0];

internalField   nonuniform List<vector> 
2142
(
(3.70541e-06 1.08689e-06 -3.55881e-20)
(3.43449e-06 1.25825e-06 0)
(3.24514e-06 1.38048e-06 0)
(3.10738e-06 1.47981e-06 0)
(3.00826e-06 1.56122e-06 0)
(2.93798e-06 1.63133e-06 0)
(2.88949e-06 1.693e-06 0)
(2.85787e-06 1.74875e-06 0)
(2.83928e-06 1.80008e-06 0)
(2.83093e-06 1.84804e-06 0)
(2.83269e-06 1.90009e-06 0)
(3.38582e-06 9.9723e-07 -4.16758e-20)
(3.09903e-06 1.13229e-06 0)
(2.90026e-06 1.22744e-06 0)
(2.7565e-06 1.30546e-06 0)
(2.65333e-06 1.36926e-06 0)
(2.58004e-06 1.42446e-06 0)
(2.52903e-06 1.47305e-06 0)
(2.49505e-06 1.51716e-06 0)
(2.47394e-06 1.55779e-06 0)
(2.46282e-06 1.59617e-06 0)
(2.41373e-06 1.59807e-06 0)
(3.05324e-06 9.09062e-07 -4.62122e-20)
(2.75864e-06 1.00369e-06 0)
(2.55572e-06 1.06969e-06 0)
(2.40979e-06 1.12541e-06 0)
(2.30546e-06 1.17131e-06 0)
(2.23139e-06 1.21172e-06 0)
(2.17959e-06 1.24758e-06 0)
(2.14455e-06 1.28046e-06 0)
(2.12201e-06 1.31082e-06 0)
(2.10886e-06 1.33982e-06 0)
(2.06487e-06 1.33683e-06 0)
(2.70901e-06 8.23168e-07 -4.84524e-20)
(2.41531e-06 8.75027e-07 0)
(2.21398e-06 9.10866e-07 0)
(2.07008e-06 9.44062e-07 0)
(1.96776e-06 9.72365e-07 0)
(1.89536e-06 9.98617e-07 0)
(1.8447e-06 1.02259e-06 0)
(1.81017e-06 1.0452e-06 0)
(1.78751e-06 1.0663e-06 0)
(1.77357e-06 1.08681e-06 0)
(1.73555e-06 1.0805e-06 0)
(2.35434e-06 7.40014e-07 -4.65611e-20)
(2.07049e-06 7.4871e-07 0)
(1.87674e-06 7.54598e-07 0)
(1.73933e-06 7.65915e-07 0)
(1.64244e-06 7.77598e-07 0)
(1.57434e-06 7.90868e-07 0)
(1.52686e-06 8.0422e-07 0)
(1.49444e-06 8.1784e-07 0)
(1.47298e-06 8.30982e-07 0)
(1.45936e-06 8.44168e-07 0)
(1.42761e-06 8.36016e-07 0)
(1.9909e-06 6.59568e-07 -4.0601e-20)
(1.72525e-06 6.26656e-07 0)
(1.54511e-06 6.04121e-07 0)
(1.41887e-06 5.95293e-07 0)
(1.33101e-06 5.9219e-07 0)
(1.26992e-06 5.9434e-07 0)
(1.22768e-06 5.98883e-07 0)
(1.19893e-06 6.0522e-07 0)
(1.17985e-06 6.12024e-07 0)
(1.1675e-06 6.19377e-07 0)
(1.14201e-06 6.10798e-07 0)
(1.61976e-06 5.80941e-07 -3.23783e-20)
(1.37969e-06 5.09941e-07 0)
(1.2193e-06 4.62007e-07 0)
(1.10917e-06 4.36152e-07 0)
(1.0341e-06 4.212e-07 0)
(9.82781e-07 4.14905e-07 0)
(9.47749e-07 4.13018e-07 0)
(9.24081e-07 4.14175e-07 0)
(9.08387e-07 4.16539e-07 0)
(8.98068e-07 4.19778e-07 0)
(8.78575e-07 4.121e-07 0)
(1.24411e-06 5.01788e-07 -2.25666e-20)
(1.03422e-06 3.98077e-07 0)
(8.99809e-07 3.29887e-07 0)
(8.10976e-07 2.92168e-07 0)
(7.52389e-07 2.69764e-07 0)
(7.13297e-07 2.58648e-07 0)
(6.87057e-07 2.53267e-07 0)
(6.69498e-07 2.51648e-07 0)
(6.57869e-07 2.51619e-07 0)
(6.50084e-07 2.52551e-07 0)
(6.36173e-07 2.46857e-07 0)
(8.6594e-07 4.15027e-07 -1.19332e-20)
(6.87223e-07 2.86923e-07 0)
(5.86631e-07 2.07711e-07 0)
(5.24555e-07 1.66628e-07 0)
(4.85675e-07 1.43215e-07 0)
(4.60616e-07 1.31834e-07 0)
(4.44097e-07 1.26206e-07 0)
(4.33135e-07 1.24165e-07 0)
(4.25829e-07 1.23579e-07 0)
(4.20794e-07 1.23763e-07 0)
(4.11933e-07 1.20626e-07 0)
(5.09064e-07 3.05541e-07 -1.22755e-21)
(3.41625e-07 1.68966e-07 0)
(2.84448e-07 9.8824e-08 0)
(2.53825e-07 6.73286e-08 0)
(2.3586e-07 5.11821e-08 0)
(2.2464e-07 4.41363e-08 0)
(2.17266e-07 4.09905e-08 0)
(2.12351e-07 4.01015e-08 0)
(2.08996e-07 4.00131e-08 0)
(2.06569e-07 4.0284e-08 0)
(2.0221e-07 3.93611e-08 0)
(1.71273e-07 1.21461e-07 2.02484e-21)
(0 0 0)
(0 0 0)
(0 0 0)
(0 0 0)
(0 0 0)
(0 0 0)
(0 0 0)
(0 0 0)
(0 0 0)
(0 0 0)
(3.70541e-06 1.08689e-06 -3.55881e-20)
(3.43449e-06 1.25825e-06 0)
(3.24514e-06 1.38048e-06 0)
(3.10738e-06 1.47981e-06 0)
(3.00826e-06 1.56122e-06 0)
(2.93798e-06 1.63133e-06 0)
(2.88949e-06 1.693e-06 0)
(2.85787e-06 1.74875e-06 0)
(2.83928e-06 1.80008e-06 0)
(2.83093e-06 1.84804e-06 0)
(2.83269e-06 1.90009e-06 0)
(3.38582e-06 9.9723e-07 -4.16758e-20)
(3.09903e-06 1.13229e-06 0)
(2.90026e-06 1.22744e-06 0)
(2.7565e-06 1.30546e-06 0)
(2.65333e-06 1.36926e-06 0)
(2.58004e-06 1.42446e-06 0)
(2.52903e-06 1.47305e-06 0)
(2.49505e-06 1.51716e-06 0)
(2.47394e-06 1.55779e-06 0)
(2.46282e-06 1.59617e-06 0)
(2.41373e-06 1.59807e-06 0)
(3.05324e-06 9.09062e-07 -4.62122e-20)
(2.75864e-06 1.00369e-06 0)
(2.55572e-06 1.06969e-06 0)
(2.40979e-06 1.12541e-06 0)
(2.30546e-06 1.17131e-06 0)
(2.23139e-06 1.21172e-06 0)
(2.17959e-06 1.24758e-06 0)
(2.14455e-06 1.28046e-06 0)
(2.12201e-06 1.31082e-06 0)
(2.10886e-06 1.33982e-06 0)
(2.06487e-06 1.33683e-06 0)
(2.70901e-06 8.23168e-07 -4.84524e-20)
(2.41531e-06 8.75027e-07 0)
(2.21398e-06 9.10866e-07 0)
(2.07008e-06 9.44062e-07 0)
(1.96776e-06 9.72365e-07 0)
(1.89536e-06 9.98617e-07 0)
(1.8447e-06 1.02259e-06 0)
(1.81017e-06 1.0452e-06 0)
(1.78751e-06 1.0663e-06 0)
(1.77357e-06 1.08681e-06 0)
(1.73555e-06 1.0805e-06 0)
(2.35434e-06 7.40014e-07 -4.65611e-20)
(2.07049e-06 7.4871e-07 0)
(1.87674e-06 7.54598e-07 0)
(1.73933e-06 7.65915e-07 0)
(1.64244e-06 7.77598e-07 0)
(1.57434e-06 7.90868e-07 0)
(1.52686e-06 8.0422e-07 0)
(1.49444e-06 8.1784e-07 0)
(1.47298e-06 8.30982e-07 0)
(1.45936e-06 8.44168e-07 0)
(1.42761e-06 8.36016e-07 0)
(1.9909e-06 6.59568e-07 -4.0601e-20)
(1.72525e-06 6.26656e-07 0)
(1.54511e-06 6.04121e-07 0)
(1.41887e-06 5.95293e-07 0)
(1.33101e-06 5.9219e-07 0)
(1.26992e-06 5.9434e-07 0)
(1.22768e-06 5.98883e-07 0)
(1.19893e-06 6.0522e-07 0)
(1.17985e-06 6.12024e-07 0)
(1.1675e-06 6.19377e-07 0)
(1.14201e-06 6.10798e-07 0)
(1.61976e-06 5.80941e-07 -3.23783e-20)
(1.37969e-06 5.09941e-07 0)
(1.2193e-06 4.62007e-07 0)
(1.10917e-06 4.36152e-07 0)
(1.0341e-06 4.212e-07 0)
(9.82781e-07 4.14905e-07 0)
(9.47749e-07 4.13018e-07 0)
(9.24081e-07 4.14175e-07 0)
(9.08387e-07 4.16539e-07 0)
(8.98068e-07 4.19778e-07 0)
(8.78575e-07 4.121e-07 0)
(1.24411e-06 5.01788e-07 -2.25666e-20)
(1.03422e-06 3.98077e-07 0)
(8.99809e-07 3.29887e-07 0)
(8.10976e-07 2.92168e-07 0)
(7.52389e-07 2.69764e-07 0)
(7.13297e-07 2.58648e-07 0)
(6.87057e-07 2.53267e-07 0)
(6.69498e-07 2.51648e-07 0)
(6.57869e-07 2.51619e-07 0)
(6.50084e-07 2.52551e-07 0)
(6.36173e-07 2.46857e-07 0)
(8.6594e-07 4.15027e-07 -1.19332e-20)
(6.87223e-07 2.86923e-07 0)
(5.86631e-07 2.07711e-07 0)
(5.24555e-07 1.66628e-07 0)
(4.85675e-07 1.43215e-07 0)
(4.60616e-07 1.31834e-07 0)
(4.44097e-07 1.26206e-07 0)
(4.33135e-07 1.24165e-07 0)
(4.25829e-07 1.23579e-07 0)
(4.20794e-07 1.23763e-07 0)
(4.11933e-07 1.20626e-07 0)
(5.09064e-07 3.05541e-07 -1.22755e-21)
(3.41625e-07 1.68966e-07 0)
(2.84448e-07 9.8824e-08 0)
(2.53825e-07 6.73286e-08 0)
(2.3586e-07 5.11821e-08 0)
(2.2464e-07 4.41363e-08 0)
(2.17266e-07 4.09905e-08 0)
(2.12351e-07 4.01015e-08 0)
(2.08996e-07 4.00131e-08 0)
(2.06569e-07 4.0284e-08 0)
(2.0221e-07 3.93611e-08 0)
(1.71273e-07 1.21461e-07 2.02484e-21)
(0 0 0)
(0 0 0)
(0 0 0)
(0 0 0)
(0 0 0)
(0 0 0)
(0 0 0)
(0 0 0)
(0 0 0)
(0 0 0)
(6.01131e-06 1.78336e-06 -2.73633e-21)
(6.05419e-06 1.9559e-06 -1.50218e-21)
(6.04896e-06 2.17777e-06 -1.64129e-21)
(6.04544e-06 2.38361e-06 -1.7811e-21)
(6.04905e-06 2.57309e-06 -1.92016e-21)
(6.06181e-06 2.74812e-06 -2.05827e-21)
(6.08446e-06 2.91096e-06 -2.19547e-21)
(6.11691e-06 3.06392e-06 -2.33187e-21)
(6.15877e-06 3.20889e-06 -2.46759e-21)
(6.20914e-06 3.34771e-06 -2.60285e-21)
(6.26749e-06 3.48108e-06 -2.70051e-21)
(5.87774e-06 1.71653e-06 -4.0977e-21)
(5.85943e-06 1.94817e-06 0)
(5.84414e-06 2.16863e-06 0)
(5.836e-06 2.37144e-06 0)
(5.83704e-06 2.55667e-06 0)
(5.84795e-06 2.72658e-06 0)
(5.86868e-06 2.88368e-06 0)
(5.89871e-06 3.03046e-06 0)
(5.93745e-06 3.16899e-06 0)
(5.98401e-06 3.30122e-06 0)
(6.04123e-06 3.42875e-06 0)
(5.69592e-06 1.68823e-06 -4.21452e-21)
(5.65776e-06 1.92497e-06 0)
(5.62674e-06 2.14339e-06 0)
(5.60688e-06 2.34195e-06 0)
(5.59896e-06 2.52175e-06 0)
(5.60272e-06 2.68561e-06 0)
(5.61729e-06 2.83626e-06 0)
(5.64164e-06 2.97637e-06 0)
(5.67481e-06 3.10805e-06 0)
(5.71562e-06 3.2334e-06 0)
(5.77132e-06 3.35533e-06 0)
(5.50325e-06 1.64244e-06 -4.53022e-21)
(5.44104e-06 1.88692e-06 0)
(5.39128e-06 2.10253e-06 0)
(5.35654e-06 2.29527e-06 0)
(5.33669e-06 2.4679e-06 0)
(5.33063e-06 2.62416e-06 0)
(5.33677e-06 2.7671e-06 0)
(5.35352e-06 2.8995e-06 0)
(5.3796e-06 3.02355e-06 0)
(5.41344e-06 3.14136e-06 0)
(5.46754e-06 3.25787e-06 0)
(5.29624e-06 1.58336e-06 -5.4955e-21)
(5.20596e-06 1.83457e-06 0)
(5.13538e-06 2.04614e-06 0)
(5.08406e-06 2.23162e-06 0)
(5.05082e-06 2.39555e-06 0)
(5.03362e-06 2.54279e-06 0)
(5.03016e-06 2.67673e-06 0)
(5.03834e-06 2.80031e-06 0)
(5.05654e-06 2.91577e-06 0)
(5.08281e-06 3.02522e-06 0)
(5.13548e-06 3.13629e-06 0)
(5.07299e-06 1.51385e-06 -7.55049e-21)
(4.95137e-06 1.76817e-06 0)
(4.85867e-06 1.97356e-06 0)
(4.79018e-06 2.15002e-06 0)
(4.74323e-06 2.3037e-06 0)
(4.71464e-06 2.44053e-06 0)
(4.70138e-06 2.56425e-06 0)
(4.70086e-06 2.67795e-06 0)
(4.71108e-06 2.7839e-06 0)
(4.72975e-06 2.88418e-06 0)
(4.7814e-06 2.98989e-06 0)
(4.83271e-06 1.43646e-06 -1.0988e-20)
(4.67786e-06 1.68834e-06 0)
(4.56262e-06 1.88459e-06 0)
(4.47714e-06 2.05007e-06 0)
(4.41688e-06 2.192e-06 0)
(4.37734e-06 2.31722e-06 0)
(4.35472e-06 2.42971e-06 0)
(4.34589e-06 2.53266e-06 0)
(4.34851e-06 2.62833e-06 0)
(4.35998e-06 2.71874e-06 0)
(4.41117e-06 2.81921e-06 0)
(4.57531e-06 1.3533e-06 -1.5858e-20)
(4.38702e-06 1.59593e-06 0)
(4.24978e-06 1.77946e-06 0)
(4.14821e-06 1.93174e-06 0)
(4.07561e-06 2.06046e-06 0)
(4.02608e-06 2.17302e-06 0)
(3.99499e-06 2.27346e-06 0)
(3.97866e-06 2.36497e-06 0)
(3.97443e-06 2.4498e-06 0)
(3.97942e-06 2.52979e-06 0)
(4.0307e-06 2.62521e-06 0)
(4.30113e-06 1.26627e-06 -2.1937e-20)
(4.08111e-06 1.49227e-06 0)
(3.92348e-06 1.65916e-06 0)
(3.8074e-06 1.79594e-06 0)
(3.72393e-06 1.91007e-06 0)
(3.66574e-06 2.00908e-06 0)
(3.62736e-06 2.09687e-06 0)
(3.60461e-06 2.17651e-06 0)
(3.59446e-06 2.25012e-06 0)
(3.5939e-06 2.31935e-06 0)
(3.64583e-06 2.40984e-06 0)
(4.01087e-06 1.17698e-06 -2.87437e-20)
(3.76271e-06 1.37902e-06 0)
(3.58737e-06 1.52537e-06 0)
(3.45901e-06 1.64442e-06 0)
(3.36657e-06 1.7427e-06 0)
(3.30137e-06 1.82748e-06 0)
(3.25711e-06 1.90225e-06 0)
(3.2292e-06 1.96986e-06 0)
(3.21422e-06 2.03216e-06 0)
(3.20922e-06 2.09039e-06 0)
(3.26205e-06 2.17592e-06 0)
(6.01131e-06 1.78336e-06 -2.73633e-21)
(6.05419e-06 1.9559e-06 -1.50218e-21)
(6.04896e-06 2.17777e-06 -1.64129e-21)
(6.04544e-06 2.38361e-06 -1.7811e-21)
(6.04905e-06 2.57309e-06 -1.92016e-21)
(6.06181e-06 2.74812e-06 -2.05827e-21)
(6.08446e-06 2.91096e-06 -2.19547e-21)
(6.11691e-06 3.06392e-06 -2.33187e-21)
(6.15877e-06 3.20889e-06 -2.46759e-21)
(6.20914e-06 3.34771e-06 -2.60285e-21)
(6.26749e-06 3.48108e-06 -2.70051e-21)
(5.87774e-06 1.71653e-06 -4.0977e-21)
(5.85943e-06 1.94817e-06 0)
(5.84414e-06 2.16863e-06 0)
(5.836e-06 2.37144e-06 0)
(5.83704e-06 2.55667e-06 0)
(5.84795e-06 2.72658e-06 0)
(5.86868e-06 2.88368e-06 0)
(5.89871e-06 3.03046e-06 0)
(5.93745e-06 3.16899e-06 0)
(5.98401e-06 3.30122e-06 0)
(6.04123e-06 3.42875e-06 0)
(5.69592e-06 1.68823e-06 -4.21452e-21)
(5.65776e-06 1.92497e-06 0)
(5.62674e-06 2.14339e-06 0)
(5.60688e-06 2.34195e-06 0)
(5.59896e-06 2.52175e-06 0)
(5.60272e-06 2.68561e-06 0)
(5.61729e-06 2.83626e-06 0)
(5.64164e-06 2.97637e-06 0)
(5.67481e-06 3.10805e-06 0)
(5.71562e-06 3.2334e-06 0)
(5.77132e-06 3.35533e-06 0)
(5.50325e-06 1.64244e-06 -4.53022e-21)
(5.44104e-06 1.88692e-06 0)
(5.39128e-06 2.10253e-06 0)
(5.35654e-06 2.29527e-06 0)
(5.33669e-06 2.4679e-06 0)
(5.33063e-06 2.62416e-06 0)
(5.33677e-06 2.7671e-06 0)
(5.35352e-06 2.8995e-06 0)
(5.3796e-06 3.02355e-06 0)
(5.41344e-06 3.14136e-06 0)
(5.46754e-06 3.25787e-06 0)
(5.29624e-06 1.58336e-06 -5.4955e-21)
(5.20596e-06 1.83457e-06 0)
(5.13538e-06 2.04614e-06 0)
(5.08406e-06 2.23162e-06 0)
(5.05082e-06 2.39555e-06 0)
(5.03362e-06 2.54279e-06 0)
(5.03016e-06 2.67673e-06 0)
(5.03834e-06 2.80031e-06 0)
(5.05654e-06 2.91577e-06 0)
(5.08281e-06 3.02522e-06 0)
(5.13548e-06 3.13629e-06 0)
(5.07299e-06 1.51385e-06 -7.55049e-21)
(4.95137e-06 1.76817e-06 0)
(4.85867e-06 1.97356e-06 0)
(4.79018e-06 2.15002e-06 0)
(4.74323e-06 2.3037e-06 0)
(4.71464e-06 2.44053e-06 0)
(4.70138e-06 2.56425e-06 0)
(4.70086e-06 2.67795e-06 0)
(4.71108e-06 2.7839e-06 0)
(4.72975e-06 2.88418e-06 0)
(4.7814e-06 2.98989e-06 0)
(4.83271e-06 1.43646e-06 -1.0988e-20)
(4.67786e-06 1.68834e-06 0)
(4.56262e-06 1.88459e-06 0)
(4.47714e-06 2.05007e-06 0)
(4.41688e-06 2.192e-06 0)
(4.37734e-06 2.31722e-06 0)
(4.35472e-06 2.42971e-06 0)
(4.34589e-06 2.53266e-06 0)
(4.34851e-06 2.62833e-06 0)
(4.35998e-06 2.71874e-06 0)
(4.41117e-06 2.81921e-06 0)
(4.57531e-06 1.3533e-06 -1.5858e-20)
(4.38702e-06 1.59593e-06 0)
(4.24978e-06 1.77946e-06 0)
(4.14821e-06 1.93174e-06 0)
(4.07561e-06 2.06046e-06 0)
(4.02608e-06 2.17302e-06 0)
(3.99499e-06 2.27346e-06 0)
(3.97866e-06 2.36497e-06 0)
(3.97443e-06 2.4498e-06 0)
(3.97942e-06 2.52979e-06 0)
(4.0307e-06 2.62521e-06 0)
(4.30113e-06 1.26627e-06 -2.1937e-20)
(4.08111e-06 1.49227e-06 0)
(3.92348e-06 1.65916e-06 0)
(3.8074e-06 1.79594e-06 0)
(3.72393e-06 1.91007e-06 0)
(3.66574e-06 2.00908e-06 0)
(3.62736e-06 2.09687e-06 0)
(3.60461e-06 2.17651e-06 0)
(3.59446e-06 2.25012e-06 0)
(3.5939e-06 2.31935e-06 0)
(3.64583e-06 2.40984e-06 0)
(4.01087e-06 1.17698e-06 -2.87437e-20)
(3.76271e-06 1.37902e-06 0)
(3.58737e-06 1.52537e-06 0)
(3.45901e-06 1.64442e-06 0)
(3.36657e-06 1.7427e-06 0)
(3.30137e-06 1.82748e-06 0)
(3.25711e-06 1.90225e-06 0)
(3.2292e-06 1.96986e-06 0)
(3.21422e-06 2.03216e-06 0)
(3.20922e-06 2.09039e-06 0)
(3.26205e-06 2.17592e-06 0)
(6.33383e-06 3.61069e-06 -2.72263e-21)
(6.40702e-06 3.73826e-06 -2.7067e-21)
(6.4859e-06 3.86392e-06 -2.69083e-21)
(6.56993e-06 3.98827e-06 -2.67499e-21)
(6.65856e-06 4.11182e-06 -2.65923e-21)
(6.75129e-06 4.23498e-06 -2.64357e-21)
(6.84767e-06 4.3581e-06 -2.628e-21)
(6.9473e-06 4.48147e-06 -2.61255e-21)
(7.0498e-06 4.60534e-06 -2.5972e-21)
(7.15482e-06 4.72993e-06 -2.58196e-21)
(7.26207e-06 4.85541e-06 -2.56683e-21)
(7.37124e-06 4.98194e-06 -2.55181e-21)
(7.48204e-06 5.10962e-06 -2.53692e-21)
(7.59419e-06 5.23856e-06 -2.52216e-21)
(7.70742e-06 5.3688e-06 -2.50755e-21)
(7.82144e-06 5.50037e-06 -2.49311e-21)
(7.93594e-06 5.63319e-06 -2.47887e-21)
(8.05059e-06 5.76711e-06 -2.46488e-21)
(8.16501e-06 5.90183e-06 -2.45125e-21)
(8.20293e-06 5.98574e-06 -4.50151e-22)
(6.112e-06 3.55444e-06 0)
(6.19139e-06 3.6793e-06 0)
(6.27541e-06 3.80251e-06 0)
(6.36358e-06 3.92472e-06 0)
(6.45555e-06 4.04641e-06 0)
(6.55093e-06 4.16797e-06 0)
(6.64939e-06 4.28974e-06 0)
(6.7506e-06 4.41199e-06 0)
(6.85428e-06 4.53496e-06 0)
(6.96016e-06 4.65884e-06 0)
(7.06799e-06 4.7838e-06 0)
(7.17752e-06 4.90998e-06 0)
(7.28853e-06 5.0375e-06 0)
(7.40079e-06 5.16643e-06 0)
(7.51409e-06 5.29684e-06 0)
(7.62823e-06 5.42872e-06 0)
(7.74297e-06 5.56202e-06 0)
(7.85812e-06 5.69658e-06 0)
(7.97347e-06 5.83209e-06 0)
(8.08835e-06 5.96783e-06 1.55658e-21)
(5.8489e-06 3.47847e-06 0)
(5.93789e-06 3.60243e-06 0)
(6.03024e-06 3.72482e-06 0)
(6.12558e-06 3.84635e-06 0)
(6.22372e-06 3.96752e-06 0)
(6.32441e-06 4.0887e-06 0)
(6.42744e-06 4.21025e-06 0)
(6.5326e-06 4.33242e-06 0)
(6.63969e-06 4.45545e-06 0)
(6.74854e-06 4.57954e-06 0)
(6.85897e-06 4.70485e-06 0)
(6.97082e-06 4.83151e-06 0)
(7.08392e-06 4.95964e-06 0)
(7.19813e-06 5.08933e-06 0)
(7.3133e-06 5.22064e-06 0)
(7.42928e-06 5.35359e-06 0)
(7.5459e-06 5.48814e-06 0)
(7.66302e-06 5.62417e-06 0)
(7.78041e-06 5.76146e-06 0)
(7.89689e-06 5.8993e-06 1.57922e-21)
(5.5536e-06 3.37998e-06 0)
(5.65457e-06 3.50508e-06 0)
(5.75757e-06 3.6286e-06 0)
(5.86229e-06 3.75119e-06 0)
(5.96874e-06 3.87343e-06 0)
(6.07675e-06 3.99568e-06 0)
(6.18627e-06 4.11832e-06 0)
(6.29719e-06 4.24163e-06 0)
(6.40943e-06 4.36584e-06 0)
(6.52289e-06 4.49116e-06 0)
(6.63749e-06 4.61777e-06 0)
(6.75314e-06 4.74581e-06 0)
(6.86976e-06 4.87541e-06 0)
(6.98726e-06 5.00666e-06 0)
(7.10556e-06 5.13965e-06 0)
(7.22457e-06 5.27443e-06 0)
(7.34417e-06 5.41101e-06 0)
(7.46424e-06 5.54937e-06 0)
(7.58455e-06 5.68942e-06 0)
(7.70347e-06 5.83063e-06 1.64103e-21)
(5.23142e-06 3.25879e-06 0)
(5.34629e-06 3.38698e-06 0)
(5.46181e-06 3.51345e-06 0)
(5.57771e-06 3.6388e-06 0)
(5.6942e-06 3.76366e-06 0)
(5.8112e-06 3.8884e-06 0)
(5.9288e-06 4.01345e-06 0)
(6.04699e-06 4.1391e-06 0)
(6.16581e-06 4.26561e-06 0)
(6.28524e-06 4.39321e-06 0)
(6.40529e-06 4.5221e-06 0)
(6.52596e-06 4.65242e-06 0)
(6.64723e-06 4.78434e-06 0)
(6.7691e-06 4.91797e-06 0)
(6.89153e-06 5.05343e-06 0)
(7.01449e-06 5.19082e-06 0)
(7.13791e-06 5.33021e-06 0)
(7.2617e-06 5.4717e-06 0)
(7.38567e-06 5.61534e-06 0)
(7.50785e-06 5.76078e-06 1.74447e-21)
(4.88835e-06 3.11426e-06 0)
(5.01854e-06 3.24754e-06 0)
(5.14799e-06 3.37887e-06 0)
(5.27642e-06 3.50869e-06 0)
(5.40426e-06 3.63778e-06 0)
(5.53151e-06 3.7665e-06 0)
(5.65842e-06 3.89532e-06 0)
(5.78505e-06 4.02457e-06 0)
(5.91155e-06 4.15455e-06 0)
(6.03801e-06 4.28551e-06 0)
(6.16451e-06 4.41767e-06 0)
(6.29113e-06 4.55122e-06 0)
(6.41793e-06 4.68633e-06 0)
(6.54496e-06 4.82317e-06 0)
(6.67227e-06 4.96188e-06 0)
(6.79987e-06 5.10261e-06 0)
(6.92774e-06 5.24553e-06 0)
(7.05586e-06 5.39084e-06 0)
(7.18408e-06 5.53872e-06 0)
(7.31025e-06 5.689e-06 1.88625e-21)
(4.52989e-06 2.94691e-06 0)
(4.67634e-06 3.08719e-06 0)
(4.8207e-06 3.2252e-06 0)
(4.96261e-06 3.36118e-06 0)
(5.10277e-06 3.49605e-06 0)
(5.24121e-06 3.63018e-06 0)
(5.37833e-06 3.7641e-06 0)
(5.51428e-06 3.89818e-06 0)
(5.64931e-06 4.03277e-06 0)
(5.78358e-06 4.16816e-06 0)
(5.91728e-06 4.30459e-06 0)
(6.05055e-06 4.44229e-06 0)
(6.18353e-06 4.58147e-06 0)
(6.31634e-06 4.72233e-06 0)
(6.44908e-06 4.86504e-06 0)
(6.58182e-06 5.00983e-06 0)
(6.71463e-06 5.15691e-06 0)
(6.84752e-06 5.30661e-06 0)
(6.98045e-06 5.45922e-06 0)
(7.11124e-06 5.61473e-06 2.06121e-21)
(4.16156e-06 2.75767e-06 0)
(4.32467e-06 2.90673e-06 0)
(4.48444e-06 3.05313e-06 0)
(4.64039e-06 3.19687e-06 0)
(4.79345e-06 3.339e-06 0)
(4.94371e-06 3.47994e-06 0)
(5.09166e-06 3.62026e-06 0)
(5.23755e-06 3.76038e-06 0)
(5.3817e-06 3.9007e-06 0)
(5.52437e-06 4.04155e-06 0)
(5.66581e-06 4.18323e-06 0)
(5.80624e-06 4.32599e-06 0)
(5.94586e-06 4.47008e-06 0)
(6.08486e-06 4.61573e-06 0)
(6.22342e-06 4.76316e-06 0)
(6.36166e-06 4.91264e-06 0)
(6.49973e-06 5.06445e-06 0)
(6.6377e-06 5.219e-06 0)
(6.77564e-06 5.37666e-06 0)
(6.91162e-06 5.53763e-06 2.26265e-21)
(3.78875e-06 2.54832e-06 0)
(3.96836e-06 2.70775e-06 0)
(4.1436e-06 2.864e-06 0)
(4.31376e-06 3.01693e-06 0)
(4.47996e-06 3.16762e-06 0)
(4.64233e-06 3.3166e-06 0)
(4.80145e-06 3.46448e-06 0)
(4.95763e-06 3.61176e-06 0)
(5.11126e-06 3.75887e-06 0)
(5.26268e-06 3.90618e-06 0)
(5.4122e-06 4.05405e-06 0)
(5.56011e-06 4.20275e-06 0)
(5.70668e-06 4.35256e-06 0)
(5.85215e-06 4.50376e-06 0)
(5.99676e-06 4.65659e-06 0)
(6.14072e-06 4.81135e-06 0)
(6.28423e-06 4.96839e-06 0)
(6.42747e-06 5.12815e-06 0)
(6.57063e-06 5.29109e-06 0)
(6.71221e-06 5.45759e-06 2.4832e-21)
(3.41634e-06 2.32136e-06 0)
(3.61158e-06 2.49232e-06 0)
(3.8017e-06 2.65946e-06 0)
(3.98594e-06 2.82285e-06 0)
(4.16525e-06 2.9833e-06 0)
(4.33987e-06 3.14147e-06 0)
(4.51032e-06 3.29799e-06 0)
(4.677e-06 3.45342e-06 0)
(4.84033e-06 3.60826e-06 0)
(5.00071e-06 3.76294e-06 0)
(5.15851e-06 3.91783e-06 0)
(5.31408e-06 4.07327e-06 0)
(5.46774e-06 4.22955e-06 0)
(5.61981e-06 4.38698e-06 0)
(5.77059e-06 4.54582e-06 0)
(5.92035e-06 4.70641e-06 0)
(6.06939e-06 4.86909e-06 0)
(6.21795e-06 5.03436e-06 0)
(6.36637e-06 5.20269e-06 0)
(6.51389e-06 5.37472e-06 2.71463e-21)
(3.08572e-06 2.11486e-06 0)
(3.29263e-06 2.29574e-06 0)
(3.49386e-06 2.47176e-06 0)
(3.68901e-06 2.644e-06 0)
(3.87866e-06 2.81294e-06 0)
(4.0631e-06 2.97925e-06 0)
(4.24275e-06 3.14353e-06 0)
(4.41802e-06 3.30635e-06 0)
(4.58933e-06 3.4682e-06 0)
(4.75709e-06 3.62955e-06 0)
(4.9217e-06 3.79078e-06 0)
(5.08355e-06 3.95225e-06 0)
(5.24301e-06 4.11426e-06 0)
(5.40044e-06 4.27711e-06 0)
(5.55618e-06 4.4411e-06 0)
(5.71057e-06 4.60652e-06 0)
(5.86397e-06 4.77373e-06 0)
(6.0167e-06 4.9432e-06 0)
(6.16925e-06 5.11537e-06 0)
(6.32161e-06 5.29113e-06 2.91717e-21)
(6.33383e-06 3.61069e-06 -2.72263e-21)
(6.40702e-06 3.73826e-06 -2.7067e-21)
(6.4859e-06 3.86392e-06 -2.69083e-21)
(6.56993e-06 3.98827e-06 -2.67499e-21)
(6.65856e-06 4.11182e-06 -2.65923e-21)
(6.75129e-06 4.23498e-06 -2.64357e-21)
(6.84767e-06 4.3581e-06 -2.628e-21)
(6.9473e-06 4.48147e-06 -2.61255e-21)
(7.0498e-06 4.60534e-06 -2.5972e-21)
(7.15482e-06 4.72993e-06 -2.58196e-21)
(7.26207e-06 4.85541e-06 -2.56683e-21)
(7.37124e-06 4.98194e-06 -2.55181e-21)
(7.48204e-06 5.10962e-06 -2.53692e-21)
(7.59419e-06 5.23856e-06 -2.52216e-21)
(7.70742e-06 5.3688e-06 -2.50755e-21)
(7.82144e-06 5.50037e-06 -2.49311e-21)
(7.93594e-06 5.63319e-06 -2.47887e-21)
(8.05059e-06 5.76711e-06 -2.46488e-21)
(8.16501e-06 5.90183e-06 -2.45125e-21)
(8.20293e-06 5.98574e-06 -4.50151e-22)
(6.112e-06 3.55444e-06 0)
(6.19139e-06 3.6793e-06 0)
(6.27541e-06 3.80251e-06 0)
(6.36358e-06 3.92472e-06 0)
(6.45555e-06 4.04641e-06 0)
(6.55093e-06 4.16797e-06 0)
(6.64939e-06 4.28974e-06 0)
(6.7506e-06 4.41199e-06 0)
(6.85428e-06 4.53496e-06 0)
(6.96016e-06 4.65884e-06 0)
(7.06799e-06 4.7838e-06 0)
(7.17752e-06 4.90998e-06 0)
(7.28853e-06 5.0375e-06 0)
(7.40079e-06 5.16643e-06 0)
(7.51409e-06 5.29684e-06 0)
(7.62823e-06 5.42872e-06 0)
(7.74297e-06 5.56202e-06 0)
(7.85812e-06 5.69658e-06 0)
(7.97347e-06 5.83209e-06 0)
(8.08835e-06 5.96783e-06 1.55658e-21)
(5.8489e-06 3.47847e-06 0)
(5.93789e-06 3.60243e-06 0)
(6.03024e-06 3.72482e-06 0)
(6.12558e-06 3.84635e-06 0)
(6.22372e-06 3.96752e-06 0)
(6.32441e-06 4.0887e-06 0)
(6.42744e-06 4.21025e-06 0)
(6.5326e-06 4.33242e-06 0)
(6.63969e-06 4.45545e-06 0)
(6.74854e-06 4.57954e-06 0)
(6.85897e-06 4.70485e-06 0)
(6.97082e-06 4.83151e-06 0)
(7.08392e-06 4.95964e-06 0)
(7.19813e-06 5.08933e-06 0)
(7.3133e-06 5.22064e-06 0)
(7.42928e-06 5.35359e-06 0)
(7.5459e-06 5.48814e-06 0)
(7.66302e-06 5.62417e-06 0)
(7.78041e-06 5.76146e-06 0)
(7.89689e-06 5.8993e-06 1.57922e-21)
(5.5536e-06 3.37998e-06 0)
(5.65457e-06 3.50508e-06 0)
(5.75757e-06 3.6286e-06 0)
(5.86229e-06 3.75119e-06 0)
(5.96874e-06 3.87343e-06 0)
(6.07675e-06 3.99568e-06 0)
(6.18627e-06 4.11832e-06 0)
(6.29719e-06 4.24163e-06 0)
(6.40943e-06 4.36584e-06 0)
(6.52289e-06 4.49116e-06 0)
(6.63749e-06 4.61777e-06 0)
(6.75314e-06 4.74581e-06 0)
(6.86976e-06 4.87541e-06 0)
(6.98726e-06 5.00666e-06 0)
(7.10556e-06 5.13965e-06 0)
(7.22457e-06 5.27443e-06 0)
(7.34417e-06 5.41101e-06 0)
(7.46424e-06 5.54937e-06 0)
(7.58455e-06 5.68942e-06 0)
(7.70347e-06 5.83063e-06 1.64103e-21)
(5.23142e-06 3.25879e-06 0)
(5.34629e-06 3.38698e-06 0)
(5.46181e-06 3.51345e-06 0)
(5.57771e-06 3.6388e-06 0)
(5.6942e-06 3.76366e-06 0)
(5.8112e-06 3.8884e-06 0)
(5.9288e-06 4.01345e-06 0)
(6.04699e-06 4.1391e-06 0)
(6.16581e-06 4.26561e-06 0)
(6.28524e-06 4.39321e-06 0)
(6.40529e-06 4.5221e-06 0)
(6.52596e-06 4.65242e-06 0)
(6.64723e-06 4.78434e-06 0)
(6.7691e-06 4.91797e-06 0)
(6.89153e-06 5.05343e-06 0)
(7.01449e-06 5.19082e-06 0)
(7.13791e-06 5.33021e-06 0)
(7.2617e-06 5.4717e-06 0)
(7.38567e-06 5.61534e-06 0)
(7.50785e-06 5.76078e-06 1.74447e-21)
(4.88835e-06 3.11426e-06 0)
(5.01854e-06 3.24754e-06 0)
(5.14799e-06 3.37887e-06 0)
(5.27642e-06 3.50869e-06 0)
(5.40426e-06 3.63778e-06 0)
(5.53151e-06 3.7665e-06 0)
(5.65842e-06 3.89532e-06 0)
(5.78505e-06 4.02457e-06 0)
(5.91155e-06 4.15455e-06 0)
(6.03801e-06 4.28551e-06 0)
(6.16451e-06 4.41767e-06 0)
(6.29113e-06 4.55122e-06 0)
(6.41793e-06 4.68633e-06 0)
(6.54496e-06 4.82317e-06 0)
(6.67227e-06 4.96188e-06 0)
(6.79987e-06 5.10261e-06 0)
(6.92774e-06 5.24553e-06 0)
(7.05586e-06 5.39084e-06 0)
(7.18408e-06 5.53872e-06 0)
(7.31025e-06 5.689e-06 1.88625e-21)
(4.52989e-06 2.94691e-06 0)
(4.67634e-06 3.08719e-06 0)
(4.8207e-06 3.2252e-06 0)
(4.96261e-06 3.36118e-06 0)
(5.10277e-06 3.49605e-06 0)
(5.24121e-06 3.63018e-06 0)
(5.37833e-06 3.7641e-06 0)
(5.51428e-06 3.89818e-06 0)
(5.64931e-06 4.03277e-06 0)
(5.78358e-06 4.16816e-06 0)
(5.91728e-06 4.30459e-06 0)
(6.05055e-06 4.44229e-06 0)
(6.18353e-06 4.58147e-06 0)
(6.31634e-06 4.72233e-06 0)
(6.44908e-06 4.86504e-06 0)
(6.58182e-06 5.00983e-06 0)
(6.71463e-06 5.15691e-06 0)
(6.84752e-06 5.30661e-06 0)
(6.98045e-06 5.45922e-06 0)
(7.11124e-06 5.61473e-06 2.06121e-21)
(4.16156e-06 2.75767e-06 0)
(4.32467e-06 2.90673e-06 0)
(4.48444e-06 3.05313e-06 0)
(4.64039e-06 3.19687e-06 0)
(4.79345e-06 3.339e-06 0)
(4.94371e-06 3.47994e-06 0)
(5.09166e-06 3.62026e-06 0)
(5.23755e-06 3.76038e-06 0)
(5.3817e-06 3.9007e-06 0)
(5.52437e-06 4.04155e-06 0)
(5.66581e-06 4.18323e-06 0)
(5.80624e-06 4.32599e-06 0)
(5.94586e-06 4.47008e-06 0)
(6.08486e-06 4.61573e-06 0)
(6.22342e-06 4.76316e-06 0)
(6.36166e-06 4.91264e-06 0)
(6.49973e-06 5.06445e-06 0)
(6.6377e-06 5.219e-06 0)
(6.77564e-06 5.37666e-06 0)
(6.91162e-06 5.53763e-06 2.26265e-21)
(3.78875e-06 2.54832e-06 0)
(3.96836e-06 2.70775e-06 0)
(4.1436e-06 2.864e-06 0)
(4.31376e-06 3.01693e-06 0)
(4.47996e-06 3.16762e-06 0)
(4.64233e-06 3.3166e-06 0)
(4.80145e-06 3.46448e-06 0)
(4.95763e-06 3.61176e-06 0)
(5.11126e-06 3.75887e-06 0)
(5.26268e-06 3.90618e-06 0)
(5.4122e-06 4.05405e-06 0)
(5.56011e-06 4.20275e-06 0)
(5.70668e-06 4.35256e-06 0)
(5.85215e-06 4.50376e-06 0)
(5.99676e-06 4.65659e-06 0)
(6.14072e-06 4.81135e-06 0)
(6.28423e-06 4.96839e-06 0)
(6.42747e-06 5.12815e-06 0)
(6.57063e-06 5.29109e-06 0)
(6.71221e-06 5.45759e-06 2.4832e-21)
(3.41634e-06 2.32136e-06 0)
(3.61158e-06 2.49232e-06 0)
(3.8017e-06 2.65946e-06 0)
(3.98594e-06 2.82285e-06 0)
(4.16525e-06 2.9833e-06 0)
(4.33987e-06 3.14147e-06 0)
(4.51032e-06 3.29799e-06 0)
(4.677e-06 3.45342e-06 0)
(4.84033e-06 3.60826e-06 0)
(5.00071e-06 3.76294e-06 0)
(5.15851e-06 3.91783e-06 0)
(5.31408e-06 4.07327e-06 0)
(5.46774e-06 4.22955e-06 0)
(5.61981e-06 4.38698e-06 0)
(5.77059e-06 4.54582e-06 0)
(5.92035e-06 4.70641e-06 0)
(6.06939e-06 4.86909e-06 0)
(6.21795e-06 5.03436e-06 0)
(6.36637e-06 5.20269e-06 0)
(6.51389e-06 5.37472e-06 2.71463e-21)
(3.08572e-06 2.11486e-06 0)
(3.29263e-06 2.29574e-06 0)
(3.49386e-06 2.47176e-06 0)
(3.68901e-06 2.644e-06 0)
(3.87866e-06 2.81294e-06 0)
(4.0631e-06 2.97925e-06 0)
(4.24275e-06 3.14353e-06 0)
(4.41802e-06 3.30635e-06 0)
(4.58933e-06 3.4682e-06 0)
(4.75709e-06 3.62955e-06 0)
(4.9217e-06 3.79078e-06 0)
(5.08355e-06 3.95225e-06 0)
(5.24301e-06 4.11426e-06 0)
(5.40044e-06 4.27711e-06 0)
(5.55618e-06 4.4411e-06 0)
(5.71057e-06 4.60652e-06 0)
(5.86397e-06 4.77373e-06 0)
(6.0167e-06 4.9432e-06 0)
(6.16925e-06 5.11537e-06 0)
(6.32161e-06 5.29113e-06 2.91717e-21)
(2.59589e-06 1.76996e-06 0)
(2.84502e-06 1.9732e-06 0)
(3.05594e-06 2.15827e-06 0)
(3.26111e-06 2.3383e-06 0)
(3.46047e-06 2.51488e-06 0)
(3.65436e-06 2.6883e-06 0)
(3.84301e-06 2.85915e-06 0)
(4.02676e-06 3.02793e-06 0)
(4.20597e-06 3.19513e-06 0)
(4.381e-06 3.36119e-06 0)
(4.55225e-06 3.52651e-06 0)
(4.7201e-06 3.69147e-06 0)
(4.88491e-06 3.85637e-06 0)
(5.04708e-06 4.02152e-06 0)
(5.20695e-06 4.18718e-06 0)
(5.36491e-06 4.35362e-06 0)
(5.52131e-06 4.52111e-06 0)
(5.67655e-06 4.68996e-06 0)
(5.83102e-06 4.86056e-06 0)
(5.98526e-06 5.03329e-06 0)
(6.13967e-06 5.209e-06 3.04203e-21)
(2.41951e-06 1.66628e-06 0)
(2.66044e-06 1.86692e-06 0)
(2.86989e-06 2.05235e-06 0)
(3.07433e-06 2.23368e-06 0)
(3.27352e-06 2.41213e-06 0)
(3.46768e-06 2.58783e-06 0)
(3.65691e-06 2.7612e-06 0)
(3.84147e-06 2.93262e-06 0)
(4.02161e-06 3.10248e-06 0)
(4.19766e-06 3.27113e-06 0)
(4.36992e-06 3.43891e-06 0)
(4.53874e-06 3.60612e-06 0)
(4.70447e-06 3.77304e-06 0)
(4.86747e-06 3.93992e-06 0)
(5.02808e-06 4.10698e-06 0)
(5.18667e-06 4.27445e-06 0)
(5.34362e-06 4.44256e-06 0)
(5.49934e-06 4.61155e-06 0)
(5.65423e-06 4.78171e-06 0)
(5.8089e-06 4.9533e-06 0)
(5.96376e-06 5.12693e-06 3.10888e-21)
(2.26295e-06 1.56643e-06 0)
(2.49496e-06 1.76434e-06 0)
(2.70074e-06 1.94933e-06 0)
(2.90259e-06 2.13124e-06 0)
(3.09989e-06 2.31095e-06 0)
(3.2928e-06 2.48842e-06 0)
(3.48123e-06 2.66391e-06 0)
(3.66536e-06 2.83765e-06 0)
(3.84535e-06 3.00991e-06 0)
(4.02143e-06 3.18097e-06 0)
(4.19387e-06 3.35106e-06 0)
(4.36296e-06 3.52044e-06 0)
(4.529e-06 3.68931e-06 0)
(4.69232e-06 3.85787e-06 0)
(4.85324e-06 4.02631e-06 0)
(5.01213e-06 4.1948e-06 0)
(5.16935e-06 4.36349e-06 0)
(5.32532e-06 4.53256e-06 0)
(5.48046e-06 4.70219e-06 0)
(5.63539e-06 4.87252e-06 0)
(5.79055e-06 5.04386e-06 3.15084e-21)
(2.12333e-06 1.47121e-06 0)
(2.34588e-06 1.66573e-06 0)
(2.5467e-06 1.84959e-06 0)
(2.74459e-06 2.03147e-06 0)
(2.93869e-06 2.21192e-06 0)
(3.12909e-06 2.39071e-06 0)
(3.31556e-06 2.56792e-06 0)
(3.49821e-06 2.74365e-06 0)
(3.67707e-06 2.91805e-06 0)
(3.85234e-06 3.09129e-06 0)
(4.0242e-06 3.26352e-06 0)
(4.19288e-06 3.43492e-06 0)
(4.35866e-06 3.60563e-06 0)
(4.52181e-06 3.7758e-06 0)
(4.68265e-06 3.94554e-06 0)
(4.84151e-06 4.11498e-06 0)
(4.99873e-06 4.2842e-06 0)
(5.15471e-06 4.4533e-06 0)
(5.30991e-06 4.62233e-06 0)
(5.465e-06 4.7913e-06 0)
(5.62028e-06 4.96027e-06 3.16611e-21)
(1.99824e-06 1.38093e-06 0)
(2.21112e-06 1.57171e-06 0)
(2.40602e-06 1.75389e-06 0)
(2.59891e-06 1.93519e-06 0)
(2.78879e-06 2.11584e-06 0)
(2.97567e-06 2.29547e-06 0)
(3.15923e-06 2.47397e-06 0)
(3.33948e-06 2.65132e-06 0)
(3.5164e-06 2.82754e-06 0)
(3.69009e-06 3.00267e-06 0)
(3.86069e-06 3.17681e-06 0)
(4.02838e-06 3.35004e-06 0)
(4.19338e-06 3.52244e-06 0)
(4.35593e-06 3.69408e-06 0)
(4.51631e-06 3.86504e-06 0)
(4.67482e-06 4.03535e-06 0)
(4.83179e-06 4.20504e-06 0)
(4.98759e-06 4.37411e-06 0)
(5.14267e-06 4.54247e-06 0)
(5.29765e-06 4.71007e-06 0)
(5.45284e-06 4.87673e-06 3.1533e-21)
(1.88518e-06 1.29558e-06 0)
(2.08846e-06 1.48235e-06 0)
(2.27684e-06 1.66241e-06 0)
(2.46401e-06 1.84267e-06 0)
(2.6489e-06 2.02309e-06 0)
(2.83149e-06 2.20312e-06 0)
(3.01137e-06 2.38253e-06 0)
(3.18849e-06 2.56113e-06 0)
(3.36276e-06 2.73883e-06 0)
(3.53424e-06 2.91559e-06 0)
(3.70299e-06 3.09138e-06 0)
(3.86916e-06 3.26622e-06 0)
(4.03292e-06 3.44012e-06 0)
(4.19447e-06 3.61308e-06 0)
(4.35406e-06 3.78512e-06 0)