/*--------------------------------*- C++ -*----------------------------------*\
  =========                 |
  \\      /  F ield         | OpenFOAM: The Open Source CFD Toolbox
   \\    /   O peration     | Website:  https://openfoam.org
    \\  /    A nd           | Version:  9
     \\/     M anipulation  |
\*---------------------------------------------------------------------------*/
FoamFile
{
    format      ascii;
    class       volSymmTensorField;
    location    "5";
    object      sigma;
}
// * * * * * * * * * * * * * * * * * * * * * * * * * * * * * * * * * * * * * //

dimensions      [1 -1 -2 0 0 0 0];

internalField   nonuniform List<symmTensor> 
1000
(
(614936 -420849 -2.26482e-10 357234 -3.08058e-10 86192.4)
(721383 -324566 -1.83471e-10 195096 -2.40309e-10 84696.7)
(774879 -248601 -1.43592e-10 118702 -1.87752e-10 84517.8)
(797520 -191309 -1.11036e-10 58678.1 -1.44819e-10 80715.1)
(805798 -145230 -8.24126e-11 23597.1 -1.09612e-10 77213.1)
(802428 -109210 -6.13923e-11 -2578.75 -8.30678e-11 74145.8)
(794328 -79940.5 -4.49272e-11 -19431.6 -6.24627e-11 71960.2)
(781834 -56670.6 -3.26563e-11 -31618.9 -4.67338e-11 70077.5)
(768958 -37329.3 -2.27406e-11 -39628.7 -3.41163e-11 68664)
(751912 -21240.3 -1.54247e-11 -47310.3 -2.40388e-11 67038.7)
(779748 -467914 -2.48049e-10 360409 -3.39684e-10 101897)
(849991 -335000 -1.82421e-10 205673 -2.47394e-10 97744.2)
(878672 -239048 -1.26627e-10 136116 -1.78458e-10 94180.6)
(881395 -170098 -8.53108e-11 79181.9 -1.2608e-10 87878.9)
(874308 -117529 -5.47495e-11 46817.7 -8.81997e-11 84053.9)
(858342 -78213.2 -3.34348e-11 21731.9 -6.06699e-11 80545)
(839971 -47517 -1.75161e-11 5640.7 -4.00792e-11 77965)
(818984 -24185.4 -6.42919e-12 -7075.32 -2.4967e-11 75589.6)
(798193 -5276.32 2.1051e-12 -14805.2 -1.3337e-11 73810.6)
(775232 9853.74 7.89583e-12 -25283 -4.06998e-12 71511.9)
(957269 -497641 -2.60352e-10 347111 -3.59329e-10 117681)
(980991 -334574 -1.68938e-10 211475 -2.41642e-10 107759)
(979260 -222493 -1.01469e-10 155112 -1.61208e-10 101918)
(958641 -144407 -5.75719e-11 105028 -1.05562e-10 95470)
(934159 -87249.5 -2.64671e-11 77628.4 -6.66953e-11 91486.1)
(904386 -46064.8 -5.87138e-12 54978.9 -3.93804e-11 87630.2)
(875175 -15128.6 8.71272e-12 40521.7 -1.97375e-11 84724.2)
(845298 7463.76 1.8085e-11 27939.4 -5.88122e-12 81911.1)
(817280 25025.4 2.47679e-11 20530.7 4.20967e-12 79793.4)
(788124 39297.3 2.90939e-11 8379.21 1.25795e-11 76954.9)
(1.14174e+06 -505807 -2.48863e-10 319943 -3.53736e-10 127500)
(1.11146e+06 -321966 -1.42559e-10 213150 -2.22468e-10 114680)
(1.07511e+06 -199196 -7.27563e-11 175472 -1.40062e-10 109692)
(1.02836e+06 -115491 -2.87467e-11 135477 -8.40808e-11 103330)
(984818 -56250.3 1.16719e-12 114845 -4.62342e-11 99302.6)
(940393 -14951.8 1.98653e-11 95534.7 -2.04701e-11 95150.3)
(899951 14908.3 3.22491e-11 82953.3 -2.70543e-12 91911.6)
(861381 35929.6 3.94237e-11 70655.9 9.34434e-12 88678.6)
(826391 51429.2 4.38316e-11 63047.6 1.75059e-11 86157.1)
(792116 64047.1 4.63756e-11 49995.9 2.4454e-11 82922)
(1.3249e+06 -488583 -2.13432e-10 282225 -3.22495e-10 131994)
(1.23756e+06 -295446 -1.08272e-10 211554 -1.94092e-10 121154)
(1.164e+06 -168798 -4.05829e-11 197122 -1.14963e-10 117385)
(1.08931e+06 -83970.2 5.7937e-13 169939 -6.20866e-11 111309)
(1.02566e+06 -25905.6 2.71825e-11 157561 -2.76726e-11 107335)
(966229 13207.4 4.25278e-11 142268 -5.08692e-12 102924)
(914700 40326.6 5.17033e-11 131686 9.69708e-12 99352.4)
(867837 58636.4 5.63212e-11 119626 1.94882e-11 95554.2)
(826596 71241.1 6.11641e-11 111319 2.80859e-11 91058.6)
(787854 81514.7 6.38347e-11 97372.7 3.52091e-11 86357.6)
(1.50263e+06 -445024 -1.6258e-10 239873 -2.73778e-10 135985)
(1.35752e+06 -253897 -6.55405e-11 209605 -1.56264e-10 127487)
(1.24536e+06 -130866 -4.69981e-12 221818 -8.58745e-11 125205)
(1.14135e+06 -50448.1 3.00341e-11 208919 -4.00449e-11 119460)
(1.05701e+06 2466.11 5.07913e-11 205314 -1.18007e-11 115520)
(982656 36654.1 6.10906e-11 193888 5.82105e-12 110797)
(920518 59212.1 6.85812e-11 184821 1.88336e-11 105562)
(866093 73643.4 7.33867e-11 172568 2.87161e-11 99515.6)
(819425 82683.7 7.55125e-11 162926 3.49277e-11 94375)
(777026 90064.9 7.6024e-11 147973 4.01139e-11 89227.8)
(1.66379e+06 -372346 -9.60067e-11 197548 -2.07223e-10 139562)
(1.46566e+06 -194217 -1.31418e-11 210504 -1.07787e-10 133856)
(1.31402e+06 -84275.6 3.49296e-11 251877 -5.27599e-11 133211)
(1.18066e+06 -15289.7 5.88692e-11 253178 -1.86111e-11 127685)
(1.07651e+06 27546.3 7.08148e-11 257273 4.06999e-13 123614)
(988665 53597.8 7.74143e-11 248394 1.40476e-11 116884)
(917485 69696.1 8.2969e-11 239568 2.49802e-11 109506)
(856953 79191.8 8.41854e-11 226205 3.15475e-11 102758)
(806162 84249.5 8.32757e-11 214440 3.51053e-11 97034.6)
(761070 88457.9 8.14537e-11 198183 3.81712e-11 91509.1)
(1.81921e+06 -270310 -1.16105e-11 168067 -1.23243e-10 144938)
(1.56311e+06 -113346 5.13659e-11 225963 -4.78965e-11 141884)
(1.36995e+06 -28322.5 7.9032e-11 296359 -1.62065e-11 142589)
(1.20814e+06 19510.7 8.61288e-11 307344 4.39204e-13 136602)
(1.08601e+06 46645.5 8.71725e-11 314592 8.34415e-12 131193)
(987108 61560.8 9.04904e-11 304675 1.84703e-11 121070)
(909060 69972.9 9.04785e-11 293403 2.42544e-11 112797)
(844296 74205.1 8.77532e-11 277315 2.73141e-11 105401)
(790858 75573.7 8.39235e-11 262427 2.84344e-11 99161.6)
(744150 76902 7.99537e-11 244506 2.95847e-11 93335.4)
(1.9488e+06 -126221 9.61543e-11 167241 -1.69781e-11 153348)
(1.62917e+06 -11041.7 1.25869e-10 276516 1.94391e-11 153215)
(1.39282e+06 29439.7 1.20387e-10 365849 1.58525e-11 153596)
(1.20903e+06 44576.7 1.03977e-10 373806 9.38399e-12 145653)
(1.0773e+06 52135.8 9.87781e-11 373960 1.10407e-11 134913)
(973948 54700.3 9.30069e-11 356924 1.29538e-11 123739)
(893876 55955.9 8.74766e-11 339585 1.40126e-11 114762)
(828083 55927.6 8.13584e-11 319076 1.42727e-11 106903)
(774087 54938.5 7.5467e-11 300461 1.38652e-11 100311)
(726997 54434.1 7.00673e-11 280822 1.38083e-11 94304.8)
(2.11813e+06 113692 2.73111e-10 291913 1.4144e-10 181436)
(1.65898e+06 127010 2.20906e-10 434167 9.49317e-11 177180)
(1.39019e+06 83907.8 1.57561e-10 480687 3.83291e-11 169184)
(1.2008e+06 54434.7 1.18288e-10 458364 1.12954e-11 153173)
(1.0686e+06 42928.4 1.00853e-10 432033 3.84856e-12 138435)
(965791 36500.1 8.72467e-11 400070 -5.07206e-14 126118)
(886277 34189 7.79919e-11 372410 -1.22321e-12 116386)
(820829 32835.3 7.02664e-11 346465 -1.76464e-12 108137)
(766912 31772.3 6.38154e-11 324262 -2.16214e-12 101279)
(719643 31047.7 5.81179e-11 303580 -2.3499e-12 95174.8)
(-2824.76 990.618 -3.94711e-11 -1595.86 -1.82061e-11 2587.33)
(2231.46 -3519.65 -4.18231e-11 304.812 -2.12742e-11 3185.69)
(22603.4 -11073.8 -4.5857e-11 -1137.23 -2.63235e-11 4975.58)
(55217.2 -17120.1 -4.83092e-11 -2328.35 -3.0348e-11 7966.77)
(93119.3 -20849.7 -4.89527e-11 -2947.44 -3.2815e-11 11523.3)
(132901 -22973 -4.84394e-11 -3249.01 -3.42022e-11 15294.7)
(171876 -23805.8 -4.71087e-11 -3300.19 -3.47244e-11 19016.8)
(209121 -23871.3 -4.5346e-11 -3162.89 -3.47341e-11 22592.7)
(243267 -23238.8 -4.32978e-11 -3094.29 -3.42751e-11 25871.2)
(275101 -22749.8 -4.13851e-11 -2564.52 -3.39228e-11 28962.6)
(3709.3 -3783.32 -4.19991e-11 -245.777 -2.14413e-11 3283.48)
(29999 -20492.8 -4.95103e-11 12640 -3.28984e-11 6668.35)
(68173.3 -38952.7 -5.93374e-11 13195.7 -4.53173e-11 10241.3)
(108685 -53064.1 -6.69402e-11 9210.45 -5.47253e-11 13721.8)
(149418 -61746.1 -7.10574e-11 5381.07 -6.04747e-11 17271.9)
(188133 -66614.9 -7.27965e-11 1913.26 -6.36613e-11 20681.9)
(224036 -68374 -7.25773e-11 -751.342 -6.4767e-11 23904.8)
(257263 -68260.8 -7.11871e-11 -2658.6 -6.46259e-11 26941.5)
(286560 -66378.1 -6.88218e-11 -4295.82 -6.33e-11 29634.6)
(314353 -64876.8 -6.65573e-11 -4447.99 -6.22576e-11 32294.1)
(11489.4 -18630.2 -4.92121e-11 12644.3 -3.16608e-11 4909.1)
(57517.1 -51185.1 -6.56072e-11 27232.7 -5.38116e-11 10206.7)
(110246 -74054.9 -7.79046e-11 25252.4 -6.91467e-11 14950.5)
(158687 -89380.4 -8.6731e-11 15479.1 -7.92684e-11 18741.7)
(203263 -97829.1 -9.12667e-11 6427.56 -8.47691e-11 22263.9)
(242522 -101806 -9.30467e-11 -1452.93 -8.72797e-11 25396.4)
(276994 -102297 -9.25659e-11 -7435.51 -8.74757e-11 28238.3)
(307714 -100670 -9.06807e-11 -11753.3 -8.6276e-11 30862)
(333398 -97113.9 -8.76572e-11 -15010.7 -8.37982e-11 33097)
(358265 -94123 -8.46996e-11 -15955.9 -8.17409e-11 35426)
(27574.6 -41902.5 -5.89807e-11 42265.3 -4.78345e-11 8545.97)
(94741.3 -87977.5 -8.44992e-11 46120.3 -7.89001e-11 14959.9)
(159488 -112026 -9.78077e-11 38311.1 -9.49204e-11 20403)
(214780 -125513 -1.06015e-10 22432.4 -1.03693e-10 24397.9)
(262596 -131103 -1.09284e-10 8468.93 -1.0718e-10 27876)
(302406 -132147 -1.09779e-10 -3633.1 -1.07642e-10 30759.7)
(335646 -129904 -1.08098e-10 -12936.1 -1.0594e-10 33249.5)
(364154 -125743 -1.05075e-10 -19818.2 -1.02991e-10 35483.4)
(386461 -119953 -1.01073e-10 -25018.8 -9.89778e-11 37262.3)
(408686 -115058 -9.71948e-11 -27102.1 -9.56198e-11 39264.6)
(55024.3 -74777.7 -7.23338e-11 85626.5 -7.07026e-11 14251.6)
(144691 -128035 -1.04587e-10 66898.4 -1.0621e-10 21053.4)
(219458 -149651 -1.17392e-10 48486 -1.20401e-10 26665.5)
(279476 -158641 -1.23632e-10 24823.3 -1.26007e-10 30551.1)
(328637 -159240 -1.24402e-10 5721.19 -1.26041e-10 33800.6)
(367647 -155728 -1.22604e-10 -10304.4 -1.23366e-10 36339.8)
(398754 -149580 -1.18949e-10 -22447.5 -1.18985e-10 38435.6)
(424441 -142044 -1.14215e-10 -31406 -1.13728e-10 40264.1)
(443074 -133578 -1.089e-10 -38088.5 -1.07889e-10 41596.6)
(462425 -126376 -1.03806e-10 -40959.8 -1.02965e-10 43279.3)
(97461.4 -117980 -9.0041e-11 139371 -1.00693e-10 22112.4)
(209010 -168650 -1.23984e-10 90143 -1.33922e-10 28706.4)
(291734 -183496 -1.34054e-10 58167.8 -1.43314e-10 34094.2)
(354117 -185688 -1.37092e-10 25923.4 -1.44188e-10 37599)
(402516 -179955 -1.34575e-10 1935.45 -1.39872e-10 40446.4)
(439015 -171077 -1.29971e-10 -17471.5 -1.33524e-10 42524.2)
(466706 -160531 -1.24012e-10 -31886.8 -1.26144e-10 44149.6)
(488562 -149331 -1.17358e-10 -42418.1 -1.18394e-10 45516.2)
(502888 -138110 -1.10664e-10 -50257.5 -1.10682e-10 46366.9)
(518744 -128487 -1.04273e-10 -53644.6 -1.0412e-10 47692.1)
(157854 -171037 -1.12564e-10 197215 -1.3738e-10 31938.1)
(287471 -208207 -1.41911e-10 114228 -1.60921e-10 37784.5)
(375088 -211551 -1.4657e-10 67390.8 -1.62303e-10 42587.5)
(436968 -204646 -1.45133e-10 26210.2 -1.56894e-10 45425.5)
(482277 -191523 -1.3872e-10 -2328.99 -1.47522e-10 47680.5)
(514354 -176845 -1.31053e-10 -24602.8 -1.37219e-10 49155.8)
(537216 -161784 -1.22694e-10 -40683.9 -1.26771e-10 50222.6)
(554061 -146981 -1.14144e-10 -52297.2 -1.16578e-10 51051.4)
(563430 -133194 -1.0616e-10 -60849.5 -1.07129e-10 51390.5)
(574951 -121230 -9.85321e-11 -64539.4 -9.89885e-11 52293.4)
(238908 -231978 -1.39375e-10 253224 -1.79332e-10 43549.1)
(379454 -245155 -1.57542e-10 138240 -1.86147e-10 48169.1)
(467642 -232476 -1.53964e-10 77640.4 -1.76493e-10 52087.5)
(525677 -214433 -1.46809e-10 28268.4 -1.63441e-10 54009.2)
(565480 -193202 -1.36051e-10 -4073.36 -1.48542e-10 55502.4)
(591263 -172653 -1.25274e-10 -28578.3 -1.3425e-10 56244.9)
(607960 -153309 -1.14656e-10 -45830.6 -1.20901e-10 56661.1)
(618720 -135308 -1.04455e-10 -58066.1 -1.08547e-10 56881.5)
(622582 -119404 -9.53306e-11 -67237.3 -9.75353e-11 56589.5)
(628930 -105415 -8.58706e-11 -70973.5 -8.73224e-11 56618.2)
(342211 -297233 -1.68985e-10 301413 -2.24039e-10 56666.5)
(483671 -277965 -1.70204e-10 160525 -2.08541e-10 59621.6)
(566875 -245659 -1.55907e-10 89352.4 -1.85481e-10 62390.4)
(617252 -214947 -1.41991e-10 33532.3 -1.63785e-10 63173.6)
(649053 -185223 -1.26593e-10 -1415.77 -1.43124e-10 63759.5)
(666707 -159021 -1.12359e-10 -27434.6 -1.24585e-10 63418.3)
(676048 -135834 -9.7225e-11 -45199.3 -1.06418e-10 61900.4)
(679627 -115309 -8.43955e-11 -57910.2 -9.10827e-11 60714.6)
(677744 -97832.3 -7.41221e-11 -67263.8 -7.86116e-11 59649.6)
(677869 -82205.1 -6.45645e-11 -72079.4 -6.77183e-11 59249.8)
(468047 -362065 -1.99033e-10 337166 -2.6823e-10 70997.8)
(598376 -305024 -1.79131e-10 179861 -2.26998e-10 71892.4)
(670099 -250992 -1.52383e-10 103047 -1.89205e-10 73279.1)
(708649 -206859 -1.31041e-10 43466.9 -1.58408e-10 72734.1)
(729824 -168697 -1.08274e-10 7487.32 -1.2968e-10 70984.6)
(737610 -137253 -8.85242e-11 -19070.8 -1.05172e-10 68360.8)
(738424 -110813 -7.25806e-11 -36858.2 -8.55738e-11 66459.4)
(734128 -88509.6 -5.97554e-11 -49297.1 -6.97611e-11 64940.3)
(726496 -70428 -4.99473e-11 -59424.4 -5.72875e-11 63495.6)
(719509 -54746.8 -4.13243e-11 -63009.6 -4.71024e-11 62901)
(303561 -21105.8 -3.89758e-11 -2563.67 -3.2786e-11 31698.6)
(328608 -18831.9 -3.6248e-11 -1993.33 -3.12377e-11 34155.2)
(351564 -16855.5 -3.38329e-11 -1586.52 -2.9889e-11 36397.3)
(372180 -15061.8 -3.16617e-11 -1285.79 -2.86644e-11 38406)
(390789 -13398.8 -2.96699e-11 -988.037 -2.75297e-11 40221.5)
(407445 -11910 -2.78937e-11 -770.881 -2.65129e-11 41842.6)
(422381 -10544.6 -2.628e-11 -563.07 -2.55811e-11 43297.6)
(435684 -9313.51 -2.48372e-11 -402.937 -2.47406e-11 44591.7)
(447524 -8184.94 -2.35321e-11 -261.493 -2.39703e-11 45743.6)
(457982 -7151.12 -2.23572e-11 -151.163 -2.32645e-11 46760.2)
(467169 -6189.33 -2.12932e-11 -61.0084 -2.26086e-11 47653.1)
(475146 -5286.08 -2.03268e-11 4.72258 -2.19926e-11 48427.9)
(481970 -4423.04 -1.94448e-11 49.4281 -2.14049e-11 49090.5)
(487678 -3587.94 -1.86371e-11 72.2587 -2.08365e-11 49644.3)
(492283 -2769.95 -1.78965e-11 72.5773 -2.02804e-11 50090.7)
(495812 -1967.72 -1.72204e-11 53.9942 -1.97356e-11 50432.6)
(498252 -1193.15 -1.66164e-11 15.3415 -1.92103e-11 50668.4)
(499709 -489.82 -1.61035e-11 -13.9667 -1.87342e-11 50810.4)
(500183 49.4082 -1.57377e-11 -10.9934 -1.83701e-11 50859.6)
(500138 176.899 -1.56197e-11 259.151 -1.82887e-11 50876.7)
(336719 -60412 -6.28321e-11 -5738.82 -5.92032e-11 34367.2)
(355169 -54376 -5.80898e-11 -5595.68 -5.51175e-11 36185.1)
(372960 -49059.6 -5.37898e-11 -5120.8 -5.15234e-11 37960.2)
(388836 -44100.5 -4.98413e-11 -4879.65 -4.81678e-11 39532)
(403558 -39453.3 -4.61158e-11 -4426.43 -4.5027e-11 41007.1)
(416799 -35254.7 -4.27697e-11 -4128.68 -4.21882e-11 42325.7)
(428895 -31368.4 -3.96679e-11 -3769.34 -3.95618e-11 43537.3)
(439764 -27839.3 -3.68641e-11 -3497.39 -3.71759e-11 44622.4)
(449582 -24583.5 -3.42865e-11 -3235.1 -3.49754e-11 45604.2)
(458353 -21587.9 -3.19319e-11 -3032.81 -3.29502e-11 46479.4)
(466176 -18795.4 -2.97579e-11 -2863.86 -3.10624e-11 47260)
(473081 -16173.1 -2.77424e-11 -2741.11 -2.92897e-11 47948.1)
(479126 -13678.4 -2.58539e-11 -2651.81 -2.7603e-11 48550.4)
(484344 -11280.7 -2.40698e-11 -2589.05 -2.59821e-11 49070.8)
(488764 -8956.7 -2.2373e-11 -2534.89 -2.44115e-11 49513.8)
(492429 -6704.91 -2.07542e-11 -2451.43 -2.2891e-11 49886.2)
(495337 -4552.94 -1.92231e-11 -2289.38 -2.144e-11 50191.4)
(497575 -2593.68 -1.78172e-11 -1922.61 -2.01226e-11 50446.8)
(499051 -969.445 -1.66082e-11 -1185.55 -1.90385e-11 50655)
(499998 -105.211 -1.57928e-11 353.128 -1.84808e-11 50868.6)
(375186 -87431.1 -7.988e-11 -17662.9 -7.71835e-11 36961.2)
(386942 -79206.1 -7.40273e-11 -17240 -7.16331e-11 38174.1)
(399600 -71827.2 -6.85056e-11 -15685.1 -6.66711e-11 39554)
(410542 -64978 -6.34811e-11 -14670.8 -6.20591e-11 40724.8)
(421236 -58452.9 -5.86118e-11 -13221.2 -5.7673e-11 41902.9)
(430842 -52530.7 -5.42271e-11 -12106.4 -5.36893e-11 42947.2)
(439902 -46990.4 -5.01001e-11 -10927.3 -4.99643e-11 43941.6)
(448120 -41928.6 -4.63492e-11 -9958.45 -4.65594e-11 44836.1)
(455713 -37230 -4.28706e-11 -9068.69 -4.33986e-11 45662.4)
(462595 -32892.1 -3.96788e-11 -8342.26 -4.04791e-11 46405.6)
(468860 -28843.6 -3.67176e-11 -7735.71 -3.77533e-11 47078.8)
(474500 -25049.5 -3.39674e-11 -7266.03 -3.51973e-11 47680)
(479562 -21457.4 -3.13901e-11 -6909.45 -3.27761e-11 48215.9)
(484067 -18031.2 -2.89582e-11 -6646.31 -3.0466e-11 48690.3)
(488037 -14738.9 -2.66446e-11 -6435.21 -2.82457e-11 49108.6)
(491508 -11567.7 -2.44288e-11 -6200.21 -2.6108e-11 49480.1)
(494456 -8525.85 -2.23003e-11 -5832.06 -2.406e-11 49810.8)
(496940 -5660.39 -2.02554e-11 -5108.59 -2.21378e-11 50122.9)
(498743 -3060.34 -1.83162e-11 -3715.92 -2.04062e-11 50419)
(500068 -842.222 -1.64676e-11 -1107.82 -1.89532e-11 50759.2)
(420174 -106490 -9.15273e-11 -29398.2 -8.97929e-11 40247.3)
(424793 -97068.2 -8.52787e-11 -29137.7 -8.34397e-11 40772.8)
(432132 -88378.8 -7.90606e-11 -26756.2 -7.76134e-11 41715)
(437751 -80454.5 -7.35473e-11 -25319.6 -7.22889e-11 42415.6)
(444105 -72741.3 -6.80149e-11 -23064.3 -6.71197e-11 43247.4)
(449693 -65741.2 -6.30441e-11 -21304.7 -6.24237e-11 43963.3)
(455373 -59110.4 -5.82831e-11 -19406.1 -5.79788e-11 44696.1)
(460587 -53024.1 -5.39342e-11 -17806.1 -5.38967e-11 45358)
(465632 -47335.3 -4.98619e-11 -16318.2 -5.00809e-11 45992.4)
(470313 -42063.7 -4.61064e-11 -15069.2 -4.65426e-11 46571.1)
(474727 -37131.5 -4.2606e-11 -14003.7 -4.32305e-11 47107.9)
(478818 -32507 -3.93465e-11 -13146.2 -4.01226e-11 47595.9)
(482617 -28135 -3.62877e-11 -12465.7 -3.71826e-11 48040.9)
(486119 -23974.8 -3.33994e-11 -11935.6 -3.43829e-11 48444.4)
(489326 -19985.8 -3.0647e-11 -11500.7 -3.16973e-11 48811.3)
(492251 -16137.5 -2.79972e-11 -11065.7 -2.91067e-11 49150.3)
(494831 -12409.6 -2.54219e-11 -10496.5 -2.66001e-11 49465.8)
(497110 -8777.76 -2.28665e-11 -9544.31 -2.41649e-11 49780.8)
(498779 -5273.25 -2.032e-11 -7883.41 -2.18282e-11 50090.5)
(500098 -1641.78 -1.75243e-11 -4933.06 -1.9428e-11 50465.7)
(468461 -116348 -9.74876e-11 -43367.1 -9.61572e-11 43741.4)
(465655 -106888 -9.16024e-11 -43323.9 -8.97825e-11 43539.7)
(467771 -97661.6 -8.51305e-11 -39812.2 -8.36182e-11 44071.5)
(467946 -89539.4 -7.96825e-11 -37891.4 -7.81737e-11 44289.1)
(469948 -81379 -7.39355e-11 -34670.8 -7.27231e-11 44780.6)
(471412 -74004.7 -6.88119e-11 -32127.1 -6.77924e-11 45163.8)
(473614 -66912.7 -6.37992e-11 -29357.6 -6.30546e-11 45633.1)
(475695 -60368 -5.91956e-11 -26969.1 -5.86796e-11 46058)
(478046 -54200 -5.48408e-11 -24732.4 -5.45562e-11 46494.7)
(480366 -48453.2 -5.08001e-11 -22815.5 -5.0711e-11 46901.3)
(482752 -43054.6 -4.70159e-11 -21161.9 -4.70963e-11 47291.8)
(485102 -37979.6 -4.34818e-11 -19803.5 -4.36948e-11 47654.3)
(487428 -33175.9 -4.01593e-11 -18709.2 -4.04719e-11 47992.6)
(489698 -28598.8 -3.70169e-11 -17850.8 -3.73978e-11 48305.9)
(491889 -24199.3 -3.4017e-11 -17167.9 -3.44405e-11 48597.3)
(493994 -19922.5 -3.11097e-11 -16561 -3.15648e-11 48873.8)
(495925 -15718.9 -2.82492e-11 -15893.6 -2.87399e-11 49137.7)
(497707 -11483.7 -2.53319e-11 -14924 -2.58988e-11 49410.5)
(499009 -7213.53 -2.23303e-11 -13363 -2.30443e-11 49682.7)
(500107 -2344.18 -1.87942e-11 -10663.9 -1.98052e-11 50025.9)
(519204 -117515 -9.76171e-11 -56021.8 -9.66816e-11 47629)
(508658 -109241 -9.29699e-11 -56773.3 -9.11004e-11 46617.8)
(505662 -100218 -8.6732e-11 -52281.1 -8.50952e-11 46733.5)
(500284 -92699.5 -8.19031e-11 -50144.6 -8.00666e-11 46431.7)
(497929 -84756.8 -7.63956e-11 -46174.7 -7.478e-11 46561.6)
(495207 -77607.6 -7.1525e-11 -43000.7 -7.00154e-11 46590.5)
(493856 -70604.6 -6.66356e-11 -39510.4 -6.53534e-11 46773.8)
(492716 -64088.1 -6.21041e-11 -36424.9 -6.10124e-11 46943.2)
(492257 -57889.7 -5.77662e-11 -33507.6 -5.68825e-11 47162.9)
(492091 -52068.7 -5.37059e-11 -30950.6 -5.30006e-11 47380.7)
(492304 -46567.9 -4.98764e-11 -28711.7 -4.93289e-11 47608.4)
(492757 -41369.3 -4.62806e-11 -26835.3 -4.58547e-11 47829.5)
(493439 -36428.7 -4.28861e-11 -25301.3 -4.25485e-11 48044.7)
(494290 -31700.6 -3.96656e-11 -24092.7 -3.93799e-11 48249.9)
(495272 -27130.9 -3.65796e-11 -23160.1 -3.63132e-11 48445.6)
(496351 -22644.1 -3.35693e-11 -22419.5 -3.32994e-11 48635.4)
(497435 -18167.8 -3.0576e-11 -21756.8 -3.02912e-11 48819.7)
(498524 -13529 -2.74625e-11 -20974.3 -2.71754e-11 49014.7)
(499336 -8703.59 -2.41937e-11 -19847.9 -2.39398e-11 49210.6)
(500083 -2890.62 -2.01857e-11 -17923.8 -2.00517e-11 49467.6)
(569987 -109990 -9.19222e-11 -66614.5 -9.13799e-11 51735.8)
(551734 -104223 -8.94509e-11 -68844 -8.7472e-11 49857.4)
(543998 -96178.3 -8.39755e-11 -63754.5 -8.21405e-11 49558.1)
(533234 -90024.4 -8.02764e-11 -61645.1 -7.80373e-11 48729.4)
(526666 -83011.6 -7.54979e-11 -57231.4 -7.33892e-11 48483.4)
(519901 -76659.5 -7.12502e-11 -53518 -6.91751e-11 48161.1)
(515044 -70283.7 -6.6839e-11 -49408.6 -6.49499e-11 48051.6)
(510741 -64237.1 -6.26604e-11 -45646.8 -6.09403e-11 47966.4)
(507468 -58407.4 -5.85973e-11 -42070.7 -5.70726e-11 47964.3)
(504801 -52859.1 -5.47389e-11 -38877.9 -5.3388e-11 47989.2)
(502790 -47570.4 -5.10678e-11 -36060.8 -4.98711e-11 48046.6)
(501275 -42532.6 -4.75945e-11 -33673.1 -4.65159e-11 48117)
(500219 -37717.1 -4.4302e-11 -31713.1 -4.33028e-11 48197.3)
(499541 -33080 -4.11662e-11 -30177 -4.02028e-11 48280.5)
(499188 -28567.4 -3.81498e-11 -29035.1 -3.71794e-11 48363.9)
(499107 -24088.9 -3.51911e-11 -28231.5 -3.41732e-11 48447.4)
(499219 -19556.8 -3.22256e-11 -27685.1 -3.11263e-11 48530.2)
(499486 -14747.1 -2.90948e-11 -27267.2 -2.78898e-11 48619.9)
(499738 -9627.43 -2.57647e-11 -26826.5 -2.44451e-11 48712)
(500040 -3240.75 -2.158e-11 -26059.2 -2.01513e-11 48842.2)
(618754 -94329.8 -8.0507e-11 -73184.8 -8.06028e-11 55977.9)
(593334 -92359 -8.11681e-11 -77564 -7.92846e-11 53256.7)
(581310 -86127.9 -7.70973e-11 -72794.5 -7.51751e-11 52510.2)
(565667 -81850 -7.48551e-11 -70899.4 -7.23379e-11 51185.5)
(555063 -76401.4 -7.12913e-11 -66667.6 -6.87456e-11 50528.8)
(544592 -71292 -6.79877e-11 -62790.1 -6.53759e-11 49855.7)
(536344 -66036.7 -6.44216e-11 -58478.1 -6.19129e-11 49429.4)
(529022 -60890.2 -6.09044e-11 -54327.4 -5.85196e-11 49078.8)
(522989 -55832.5 -5.73993e-11 -50299.2 -5.51831e-11 48841.6)
(517861 -50914.5 -5.39845e-11 -46588.4 -5.19343e-11 48666)
(513631 -46152.7 -5.06798e-11 -43245.1 -4.87838e-11 48547.4)
(510136 -41552.5 -4.75068e-11 -40352.8 -4.57341e-11 48463.8)
(507312 -37104.7 -4.44683e-11 -37945.6 -4.27781e-11 48406.4)
(505062 -32777.5 -4.15534e-11 -36052.9 -3.98945e-11 48364.1)
(503323 -28523.7 -3.87345e-11 -34678.2 -3.70509e-11 48330.9)
(502021 -24249.9 -3.59551e-11 -33811.1 -3.41852e-11 48300.9)
(501105 -19863.8 -3.31541e-11 -33417.7 -3.12352e-11 48272.5)
(500490 -15113.4 -3.01695e-11 -33455.3 -2.80322e-11 48242.9)
(500160 -9965.8 -2.69693e-11 -33848.2 -2.45551e-11 48216)
(499975 -3385.75 -2.28863e-11 -34486.8 -2.01077e-11 48193.9)
(663846 -72060.8 -6.03346e-11 -74440.6 -6.19286e-11 58384.3)
(632019 -74575.1 -6.6632e-11 -81299.8 -6.54886e-11 55864)
(616032 -71443.9 -6.68817e-11 -79011.2 -6.50372e-11 55406.7)
(596472 -69410 -6.64396e-11 -77644.1 -6.38062e-11 53705.3)
(582011 -66179.3 -6.45663e-11 -74077.6 -6.17019e-11 52613.9)
(568348 -62618.9 -6.23899e-11 -70131.9 -5.9381e-11 51629.9)
(556973 -58738.3 -5.98317e-11 -65703.6 -5.685e-11 50903.8)
(546927 -54684.7 -5.7098e-11 -61263.1 -5.42014e-11 50307.1)
(538343 -50570.8 -5.42685e-11 -56910.3 -5.15089e-11 49844.1)
(530916 -46458.9 -5.14243e-11 -52838.3 -4.8812e-11 49470.4)
(524572 -42401.3 -4.86166e-11 -49133.1 -4.61447e-11 49172.2)
(519160 -38421.4 -4.58804e-11 -45895.4 -4.3521e-11 48927.1)
(514592 -34526.1 -4.32337e-11 -43186.1 -4.09444e-11 48722.2)
(510768 -30695.1 -4.06762e-11 -41062 -3.84007e-11 48543.4)
(507622 -26889.7 -3.81915e-11 -39562.2 -3.58629e-11 48381.9)
(505065 -23020.5 -3.57342e-11 -38724.4 -3.32705e-11 48226.8)
(503086 -18996.8 -3.32482e-11 -38567 -3.05621e-11 48076.3)
(501551 -14561.6 -3.05852e-11 -39143.6 -2.75636e-11 47915.4)
(500621 -9680.62 -2.77152e-11 -40455.8 -2.42513e-11 47759.3)
(499913 -3313.72 -2.40121e-11 -42622.6 -1.99223e-11 47569.5)
(701338 -43491.5 -3.72019e-11 -71752 -4.0191e-11 61013.1)
(669036 -48997.8 -4.53798e-11 -77280.6 -4.5922e-11 58600)
(648587 -50293.5 -4.9164e-11 -79748.4 -4.82226e-11 57237.7)
(626828 -50818 -5.259e-11 -80202.2 -5.03575e-11 56082.9)
(608547 -50568.3 -5.40488e-11 -78803.3 -5.10701e-11 54899.9)
(591877 -49422.3 -5.37249e-11 -76058.1 -5.03602e-11 53520.5)
(577344 -47649.5 -5.27578e-11 -72326.6 -4.92417e-11 52424.9)
(564517 -45354.4 -5.13055e-11 -68100.9 -4.77779e-11 51533.8)
(553356 -42697.3 -4.95121e-11 -63650.6 -4.60721e-11 50821.6)
(543627 -39798.3 -4.75053e-11 -59269.8 -4.42004e-11 50242.9)
(535206 -36754.1 -4.538e-11 -55140.3 -4.22255e-11 49771.3)
(527930 -33633.4 -4.32118e-11 -51431.8 -4.01908e-11 49377.7)
(521684 -30477.8 -4.105e-11 -48263.9 -3.81224e-11 49042)
(516345 -27297 -3.89217e-11 -45747.3 -3.60252e-11 48743.7)
(511842 -24075.7 -3.68341e-11 -43967.7 -3.38875e-11 48469.6)
(508064 -20744.6 -3.47614e-11 -43024.7 -3.16611e-11 48202)
(505037 -17226.7 -3.26662e-11 -42995.8 -2.92925e-11 47938.1)
(502582 -13284.2 -3.04273e-11 -44039.8 -2.66191e-11 47650.2)
(501048 -8886.94 -2.80216e-11 -46241.2 -2.36185e-11 47365.4)
(499823 -3057.13 -2.49073e-11 -49951.5 -1.96264e-11 47005.1)
(722546 -19958.6 -1.93315e-11 -63802.2 -2.37675e-11 63441.2)
(692797 -22900.9 -2.55641e-11 -69557.9 -2.75623e-11 61162.4)
(669425 -28328.4 -3.24292e-11 -75172.2 -3.2476e-11 59185.9)
(646979 -30901.5 -3.72886e-11 -77599.8 -3.57943e-11 57710.9)
(627123 -32712 -4.12295e-11 -77673.6 -3.86616e-11 56682.7)
(608934 -33529.7 -4.28256e-11 -76211.6 -3.96246e-11 55248.7)
(592768 -33562.5 -4.32238e-11 -73448.2 -3.9709e-11 53911)
(578269 -32947.1 -4.30247e-11 -69948.8 -3.93674e-11 52793.2)
(565449 -31808.1 -4.23474e-11 -66001.2 -3.86781e-11 51873.8)
(554103 -30275.2 -4.13332e-11 -61940.5 -3.7724e-11 51106.8)
(544139 -28449.5 -4.00818e-11 -57990.2 -3.65693e-11 50465.6)
(535407 -26416.1 -3.8686e-11 -54361.7 -3.52676e-11 49919.3)
(527806 -24233.1 -3.72103e-11 -51215 -3.3856e-11 49445.6)
(521213 -21931.2 -3.57021e-11 -48704.9 -3.23528e-11 49020.9)
(515570 -19515 -3.41861e-11 -46960.9 -3.07583e-11 48629.6)
(510758 -16942.9 -3.26626e-11 -46137.9 -2.90425e-11 48248.8)
(506842 -14160.4 -3.11155e-11 -46370.3 -2.71664e-11 47874.9)
(503601 -10983.2 -2.94713e-11 -47905.1 -2.50015e-11 47469.2)
(501525 -7389.93 -2.77178e-11 -50906.8 -2.25304e-11 47066.2)
(499803 -2550.78 -2.54468e-11 -55942 -1.91845e-11 46550.9)
(711557 3135.9 -6.26927e-12 -54920 -1.04656e-11 64374.1)
(688204 -244.862 -1.20707e-11 -66945.3 -1.32834e-11 61592.9)
(666736 -6869.55 -1.94161e-11 -72763.8 -1.88036e-11 59668.2)
(646348 -11214.8 -2.51102e-11 -76047.8 -2.30194e-11 58159.5)
(627968 -14635.8 -2.98611e-11 -76707.7 -2.67581e-11 57106)
(610884 -17064.1 -3.22027e-11 -75784.2 -2.85275e-11 55578.7)
(595454 -18635 -3.3615e-11 -73515.2 -2.96401e-11 54263.5)
(581378 -19488.8 -3.43913e-11 -70450.3 -3.02811e-11 53143.3)
(568725 -19736.7 -3.46412e-11 -66872.2 -3.05209e-11 52202.4)
(557341 -19502 -3.44978e-11 -63117 -3.04371e-11 51399.7)
(547187 -18882.5 -3.40582e-11 -59413.6 -3.00914e-11 50713.5)
(538152 -17964.7 -3.34149e-11 -55985.1 -2.95392e-11 50115.5)
(530175 -16812.1 -3.26367e-11 -53007.2 -2.88198e-11 49586)
(523160 -15466.5 -3.17794e-11 -50653.4 -2.7959e-11 49102.6)
(517079 -13944.7 -3.08768e-11 -49076 -2.69655e-11 48650.6)
(511832 -12234.2 -2.99518e-11 -48461.7 -2.58273e-11 48206.5)
(507519 -10296.2 -2.9001e-11 -48977.5 -2.45166e-11 47767.3)
(503919 -8016.29 -2.80028e-11 -50920.8 -2.295e-11 47290.1)
(501624 -5396.59 -2.6965e-11 -54520.8 -2.11254e-11 46814.2)
(499714 -1858.8 -2.56561e-11 -60426.9 -1.86426e-11 46205.8)
(703249 26298.4 7.2686e-12 -44424.7 2.92126e-12 65652.2)
(681746 20980.9 4.64197e-13 -58391.2 -7.94908e-13 62683.4)
(663571 13170.9 -7.19473e-12 -65603.7 -6.65819e-12 60725.1)
(644794 7396.94 -1.35969e-11 -70392 -1.15077e-11 59081)
(627890 2616.45 -1.83788e-11 -72325.9 -1.52986e-11 57602.3)
(611707 -1189.15 -2.16059e-11 -72547.5 -1.78769e-11 56010.5)
(596936 -4095.76 -2.39732e-11 -71240.5 -1.98734e-11 54676.2)
(583240 -6255.48 -2.5679e-11 -68987.1 -2.1381e-11 53521.8)
(570787 -7755.3 -2.68099e-11 -66067.4 -2.24535e-11 52541.6)
(559445 -8712.41 -2.74976e-11 -62840.3 -2.31643e-11 51694.8)
(549219 -9215.82 -2.78352e-11 -59551.5 -2.35691e-11 50962.6)
(540025 -9351.33 -2.79158e-11 -56446.9 -2.37217e-11 50317.6)
(531826 -9185.62 -2.78121e-11 -53725.9 -2.36637e-11 49740.7)
(524551 -8770.14 -2.75889e-11 -51586.7 -2.34267e-11 49209.8)
(518186 -8135.5 -2.72934e-11 -50210.8 -2.30283e-11 48709.3)
(512655 -7296.12 -2.69667e-11 -49808.7 -2.24745e-11 48216)
(508074 -6233.7 -2.66235e-11 -50595 -2.17494e-11 47724.8)
(504233 -4919.24 -2.62986e-11 -52864.9 -2.08289e-11 47193.2)
(501799 -3339.38 -2.59881e-11 -56879.4 -1.96986e-11 46665.4)
(499696 -1153.06 -2.56421e-11 -63443 -1.81161e-11 45979.4)
(688665 44244.2 1.66241e-11 -35618.4 1.25259e-11 66322.7)
(670043 38811.5 1.01055e-11 -51161.1 9.15972e-12 63291.2)
(654940 30640.4 2.62911e-12 -59245.6 3.41863e-12 61367.9)
(638266 24188.9 -3.11763e-12 -65027.2 -8.64897e-13 59296.1)
(623238 18519.5 -7.84662e-12 -67837.9 -4.65559e-12 57605.3)
(608447 13729.6 -1.17496e-11 -68876.1 -7.8823e-12 56078)
(594800 9773.02 -1.48369e-11 -68303.2 -1.05735e-11 54788.5)
(581940 6542.59 -1.72774e-11 -66705.5 -1.27912e-11 53657.1)
(570112 3973.54 -1.914e-11 -64358.5 -1.45744e-11 52685.9)
(559207 1970.05 -2.05434e-11 -61624.8 -1.59822e-11 51836.4)
(549274 454.865 -2.15696e-11 -58753.7 -1.70617e-11 51093.6)
(540254 -650.586 -2.23092e-11 -56000.7 -1.78622e-11 50432)
(532140 -1411.52 -2.28332e-11 -53573.6 -1.84241e-11 49834.6)
(524881 -1888.47 -2.32123e-11 -51685.8 -1.87845e-11 49280.1)
(518486 -2119.66 -2.34993e-11 -50526.4 -1.89662e-11 48754.4)
(512900 -2158.42 -2.3764e-11 -50334.4 -1.90012e-11 48234)
(508239 -1976.41 -2.40121e-11 -51313.2 -1.88665e-11 47714.5)
(504355 -1679.06 -2.43671e-11 -53800.9 -1.86283e-11 47155.4)
(501878 -1127.94 -2.47642e-11 -58173.2 -1.81857e-11 46589.3)
(499685 -370.348 -2.53795e-11 -65077.6 -1.75609e-11 45859.2)
(670317 59147.7 2.61225e-11 -26897.3 2.20981e-11 65500.5)
(654621 53643.9 1.95464e-11 -43077.3 1.86434e-11 62729.8)
(642579 45524.3 1.25623e-11 -51740.6 1.3302e-11 60863.3)
(628210 38779.7 6.62765e-12 -58408.7 8.85209e-12 58934.9)
(615260 32601.7 1.55339e-12 -62066.2 4.73494e-12 57375.2)
(602109 27165.8 -2.8044e-12 -63955.6 1.08841e-12 55935.9)
(589847 22453.2 -6.41725e-12 -64161.4 -2.09773e-12 54714.6)
(578095 18404.1 -9.42727e-12 -63274.5 -4.85451e-12 53629.7)
(567170 14978.1 -1.18815e-11 -61555.2 -7.20415e-12 52691.4)
(556982 12104.6 -1.38829e-11 -59368.6 -9.18873e-12 51863.1)
(547616 9721.83 -1.55007e-11 -56965.7 -1.08449e-11 51133.2)
(539039 7763.24 -1.68187e-11 -54608.4 -1.22137e-11 50478.1)