/*--------------------------------*- C++ -*----------------------------------*\
  =========                 |
  \\      /  F ield         | OpenFOAM: The Open Source CFD Toolbox
   \\    /   O peration     | Website:  https://openfoam.org
    \\  /    A nd           | Version:  9
     \\/     M anipulation  |
\*---------------------------------------------------------------------------*/
FoamFile
{
    format      ascii;
    class       volScalarField;
    location    "5";
    object      sigmaEq;
}
// * * * * * * * * * * * * * * * * * * * * * * * * * * * * * * * * * * * * * //

dimensions      [1 -1 -2 0 0 0 0];

internalField   nonuniform List<scalar> 
1000
(
860850
814431
799735
799930
797527
792427
784447
773923
762991
749530
1.00395e+06
912693
869321
850555
834718
820075
804841
789099
772566
756967
1.14362e+06
1.00923e+06
935092
894129
863021
837371
813875
791859
770054
750910
1.27987e+06
1.10277e+06
995935
931128
883237
845447
812966
784343
757312
734641
1.40802e+06
1.18974e+06
1.05061e+06
961108
895397
844630
802716
767283
736036
710229
1.52665e+06
1.26969e+06
1.09874e+06
984118
899969
835841
785087
743806
707957
678562
1.62916e+06
1.33815e+06
1.1356e+06
996528
894866
819309
761072
713974
674303
641671
1.72748e+06
1.39499e+06
1.15919e+06
997768
881318
797554
733165
681919
639768
604789
1.80186e+06
1.41846e+06
1.14905e+06
972712
853300
766779
701280
649220
606822
570937
1.89415e+06
1.38902e+06
1.10846e+06
937988
826942
744357
681672
630960
589401
553302
5205.18
6604.91
28701
60863.2
96706.7
133937
170222
204866
236679
266253
7555.15
41237.4
88009.3
133844
174966
211773
244172
273350
298493
322332
33067.9
97889.8
157029
209806
254144
291183
321590
347368
367744
387338
78261.8
167541
234146
289627
334050
369737
397704
420348
436731
452889
143603
246777
317213
372724
414811
447378
471800
490706
503046
515752
228799
332469
402204
455472
493632
521914
542011
556669
564873
573952
331845
423261
487018
535573
568464
591594
606811
616842
620867
626079
450120
518002
569961
610916
637173
654407
664417
669613
669730
670954
580167
615634
650134
680376
698488
709143
713986
714445
710849
708133
718391
714924
726846
743120
751872
755360
753972
748873
742331
733930
292804
315780
337041
356243
373606
389212
403223
415735
426883
436748
445423
452968
459432
464848
469229
472599
474945
476349
476798
476590
340735
354534
368420
381226
393254
404367
414633
424019
432581
440320
447281
453477
458938
463680
467710
471041
473638
475502
476439
476400
398482
403555
409940
415916
422011
427933
433758
439332
444678
449713
454445
458834
462880
466564
469867
472761
475147
476939
477727
477362
457903
455492
455278
455055
455565
456425
457790
459421
461356
463448
465684
467980
470305
472606
474823
476893
478658
479992
480393
479745
515346
506625
500712
495083
490640
486864
484064
481902
480479
479599
479251
479320
479756
480477
481397
482422
483368
484092
484100
483310
568713
554745
544051
533779
525111
517247
510743
505123
500576
496862
493988
491823
490311
489355
488860
488722
488763
488842
488564
487841
616620
598440
584028
569840
557725
546327
536576
527849
520438
514089
508824
504513
501097
498477
496563
495248
494394
493869
493435
492967
657863
636429
619552
602084
587308
573088
560673
549354
539448
530742
523268
516927
511672
507420
504101
501622
499906
498834
498372
498328
692982
668192
650415
630550
613614
597079
582293
568734
556641
545883
536467
528325
521417
515680
511070
507518
505021
503482
503087
503567
719951
693718
676057
655634
637257
619440
602826
587372
573272
560539
549212
539269
530694
523449
517523
512872
509573
507555
507242
508308
731896
707242
689088
669436
650620
632463
615300
599120
584146
570436
558074
547077
537470
529249
522445
517049
513215
510899
510706
512267
714361
699791
683086
665803
648707
632013
615962
600611
586215
572862
560677
549715
540041
531686
524726
519191
515294
513025
513124
515179
700647
688601
675322
660167
645156
629896
615005
600518
586767
573856
561954
551142
541521
533154
526149
520575
516688
514491
514809
517188
683387
674693
664292
651458
638482
624749
611165
597733
584840
572606
561226
550807
541472
533311
526453
521004
517209
515160
515717
518277
663867
657868
650226
639653
628748
616745
604669
592502
580681
569335
558689
548869
540015
532242
525672
520485
516779
515098
514948
518423
642795
639277
634084
625686
616775
606524
596014
585216
574595
564291
554545
545494
537300
530074
523980
519126
515813
514119
514770
517255
620573
619197
616182
609855
602866
594380
585478
576130
566814
557673
548962
540824
533426
526887
521369
516973
513984
512410
513003
515332
597655
598133
597050
592639
587451
580681
573377
565514
557565
549676
542104
534993
528511
522772
517933
514077
511457
510083
510593
512591
574282
576320
576922
574263
570758
565647
559921
553564
547029
540461
534112
528123
522656
517820
513751
510518
508329
507166
507564
509168
550577
553927
555997
554934
552997
549482
545307
540462
535373
530182
525125
520337
515971
512122
508908
506377
504677
503778
504060
505213
526539
530990
534344
534745
534286
532318
529677
526356
522749
518983
515280
511763
508571
505786
503500
501743
500601
500018
500207
500912
502081
507479
511981
513754
514717
514272
513169
511398
509311
507024
504733
502550
500594
498936
497644
496728
496211
496010
496163
496458
477024
483278
488853
491963
494340
495435
495907
495737
495231
494484
493667
492877
492213
491735
491488
491465
491635
491888
492087
492049
451147
458254
464899
469379
473223
475927
478052
479565
480720
481590
482317
482976
483651
484389
485218
486121
487026
487797
488143
487882
424153
432209
440021
445994
451437
455886
459796
463117
466047
468632
470978
473145
475197
477170
479082
480914
482570
483901
484498
484151
395824
405056
414241
421930
429184
435579
441456
446745
451583
455990
460037
463762
467212
470417
473388
476111
478490
480378
481309
481019
365849
376659
387579
397340
406725
415349
423437
430895
437804
444155
449988
455320
460180
464590
468560
472084
475090
477457
478750
478651
334439
347408
360553
372831
384722
395886
406430
416247
425365
433752
441423
448377
454628
460187
465061
469255
472726
475404
476971
477112
301694
317680
333757
349132
363992
378044
391306
403662
415108
425602
435144
443723
451338
457986
463660
468355
472038
474707
476220
476492
269870
289713
309331
328189
346286
363360
379393
394271
407986
420499
431812
441912
450792
458433
464798
469855
473531
475858
476773
476670
522810
539932
572576
609149
646769
679962
706427
724634
734638
733422
494756
510882
541585
577010
615002
650377
680782
703546
718533
721822
469467
484773
513473
546870
583405
618296
649596
675153
694632
706191
446285
461084
488287
520086
555486
590006
621697
648523
669504
685327
424530
438897
464686
494757
528624
562242
593822
621815
644149
663190
404079
418167
442848
471446
503860
536384
567254
595470
618172
639329
384529
398381
422081
449304
480280
511656
541695
569878
592624
614810
365785
379442
402310
428307
457912
488060
517059
544806
567350
589969
347658
361109
383219
408084
436389
465316
493241
520337
542515
565084
330093
343298
364684
388472
415516
443192
469991
496254
517975
540216
313043
325919
346547
369254
395043
421444
447092
472401
493583
515311
296543
308956
328717
350263
374736
399796
424248
448509
469099
490214
280710
292443
311104
331300
354316
377928
401122
424261
444219
464675
265772
276470
293636
312166
333486
355492
377336
399292
418596
438395
252191
261228
276171
292496
311748
331940
352340
373091
391767
410975
240626
246810
258462
271898
288627
306772
325643
345202
363334
382083
232395
233461
239765
249218
262894
278842
296246
314794
332636
351222
228362
219972
218842
223521
233842
247598
263757
281627
299591
318440
232053
204540
191719
190686
198140
210542
226389
244527
263516
283467
233566
175700
155831
150016
156257
168590
185458
205157
226359
248484
)
;

boundaryField
{
    left
    {
        type            calculated;
        value           nonuniform List<scalar> 
30
(
518290
490341
465138
441998
420300
399919
380478
361892
343990
326732
310091
294120
278957
264860
252324
242219
236243
237318
254224
292758
2.01326e+06
1.35192e+06
1.0719e+06
915417
814154
736247
676052
626328
585211
548941
)
;
    }
    right
    {
        type            calculated;
        value           nonuniform List<scalar> 
30
(
476495
476401
477310
479664
483211
487749
492898
498299
503583
508389
512371
515353
517381
518484
518475
517434
515526
512757
509301
505308
500967
496475
492035
487845
484103
480975
478626
477110
476514
476561
)
;
    }
    down
    {
        type            calculated;
        value           nonuniform List<scalar> 
30
(
4263.77
2797.31
20993.4
52551.8
89003.9
127138
164403
199939
232542
262748
289946
313647
335419
354997
372659
388486
402675
415323
426579
436528
445270
452866
459369
464814
469214
472594
474941
476345
476796
476643
)
;
    }
    up
    {
        type            calculated;
        value           nonuniform List<scalar> 
30
(
226345
173595
155182
149454
155574
167750
184503
204143
225319
247469
268894
288838
308575
327534
345735
362900
379018
393969
407750
420319
431681
441822
450736
458404
464790
469859
473538
475861
476769
476702
)
;
    }
    hole
    {
        type            calculated;
        value           nonuniform List<scalar> 
20
(
855639
1.00299e+06
1.14676e+06
1.28441e+06
1.41638e+06
1.53846e+06
1.64388e+06
1.74525e+06
1.82297e+06
1.91286e+06
3212.26
3211.14
16138.7
56826.3
120446
206279
311413
432803
566585
708919
)
;
    }
    frontAndBack
    {
        type            empty;
    }
}


// ************************************************************************* //
