/*--------------------------------*- C++ -*----------------------------------*\
  =========                 |
  \\      /  F ield         | OpenFOAM: The Open Source CFD Toolbox
   \\    /   O peration     | Website:  https://openfoam.org
    \\  /    A nd           | Version:  9
     \\/     M anipulation  |
\*---------------------------------------------------------------------------*/
FoamFile
{
    format      ascii;
    class       volVectorField;
    location    "15";
    object      D;
}
// * * * * * * * * * * * * * * * * * * * * * * * * * * * * * * * * * * * * * //

dimensions      [0 1 0 0 0 0 0];

internalField   nonuniform List<vector> 
1000
(
(1.02839e-05 3.51941e-06 0)
(9.58761e-06 3.90326e-06 0)
(9.08552e-06 4.22056e-06 0)
(8.72424e-06 4.46795e-06 0)
(8.46699e-06 4.68025e-06 0)
(8.28607e-06 4.86266e-06 0)
(8.16387e-06 5.0266e-06 0)
(8.08669e-06 5.17583e-06 0)
(8.04351e-06 5.3149e-06 0)
(8.02902e-06 5.44659e-06 0)
(9.27862e-06 3.15998e-06 0)
(8.55095e-06 3.4473e-06 0)
(8.03222e-06 3.69311e-06 0)
(7.65916e-06 3.8817e-06 0)
(7.39375e-06 4.0461e-06 0)
(7.2059e-06 4.187e-06 0)
(7.0772e-06 4.31435e-06 0)
(6.99305e-06 4.43061e-06 0)
(6.94216e-06 4.5384e-06 0)
(6.91723e-06 4.64313e-06 0)
(8.24438e-06 2.80222e-06 0)
(7.5115e-06 2.9823e-06 0)
(6.99032e-06 3.15267e-06 0)
(6.61575e-06 3.28217e-06 0)
(6.34997e-06 3.39977e-06 0)
(6.16146e-06 3.5013e-06 0)
(6.03134e-06 3.59477e-06 0)
(5.94451e-06 3.68098e-06 0)
(5.88962e-06 3.76079e-06 0)
(5.85883e-06 3.84011e-06 0)
(7.19163e-06 2.4543e-06 0)
(6.47802e-06 2.52161e-06 0)
(5.96765e-06 2.6142e-06 0)
(5.60258e-06 2.68505e-06 0)
(5.34495e-06 2.75779e-06 0)
(5.16274e-06 2.82289e-06 0)
(5.03696e-06 2.88592e-06 0)
(4.95216e-06 2.94557e-06 0)
(4.89761e-06 3.00121e-06 0)
(4.86453e-06 3.05815e-06 0)
(6.13872e-06 2.10687e-06 0)
(5.45085e-06 2.07135e-06 0)
(4.96618e-06 2.08914e-06 0)
(4.6236e-06 2.10528e-06 0)
(4.38417e-06 2.13752e-06 0)
(4.21624e-06 2.17095e-06 0)
(4.10084e-06 2.20834e-06 0)
(4.02285e-06 2.24605e-06 0)
(3.97234e-06 2.28209e-06 0)
(3.94018e-06 2.32042e-06 0)
(5.06991e-06 1.77708e-06 0)
(4.42918e-06 1.63615e-06 0)
(3.98971e-06 1.588e-06 0)
(3.68351e-06 1.55653e-06 0)
(3.47312e-06 1.55592e-06 0)
(3.3273e-06 1.5644e-06 0)
(3.22809e-06 1.58241e-06 0)
(3.16116e-06 1.60373e-06 0)
(3.11783e-06 1.6254e-06 0)
(3.0891e-06 1.6497e-06 0)
(3.967e-06 1.46877e-06 0)
(3.40851e-06 1.23024e-06 0)
(3.03812e-06 1.12572e-06 0)
(2.7838e-06 1.0575e-06 0)
(2.61348e-06 1.03321e-06 0)
(2.49709e-06 1.02484e-06 0)
(2.41905e-06 1.03016e-06 0)
(2.36652e-06 1.04087e-06 0)
(2.33254e-06 1.05329e-06 0)
(2.30904e-06 1.06807e-06 0)
(2.86355e-06 1.15957e-06 0)
(2.40107e-06 8.52982e-07 0)
(2.11889e-06 7.13029e-07 0)
(1.9298e-06 6.25072e-07 0)
(1.80807e-06 5.89634e-07 0)
(1.72622e-06 5.74006e-07 0)
(1.67222e-06 5.73695e-07 0)
(1.63584e-06 5.79341e-07 0)
(1.61222e-06 5.87125e-07 0)
(1.59502e-06 5.96526e-07 0)
(1.70862e-06 8.38679e-07 0)
(1.39888e-06 5.05226e-07 0)
(1.22793e-06 3.59783e-07 0)
(1.1164e-06 2.77544e-07 0)
(1.04999e-06 2.45961e-07 0)
(1.00528e-06 2.32581e-07 0)
(9.76424e-07 2.3218e-07 0)
(9.56455e-07 2.36311e-07 0)
(9.4319e-07 2.41997e-07 0)
(9.32661e-07 2.48361e-07 0)
(5.8202e-07 4.3303e-07 0)
(4.45394e-07 1.98193e-07 0)
(3.9276e-07 9.66039e-08 0)
(3.6249e-07 5.60397e-08 0)
(3.4485e-07 4.13614e-08 0)
(3.32233e-07 3.73172e-08 0)
(3.23882e-07 3.85421e-08 0)
(3.17703e-07 4.148e-08 0)
(3.13405e-07 4.46442e-08 0)
(3.0962e-07 4.78007e-08 0)
(1.81583e-05 5.72857e-06 0)
(1.81275e-05 6.43634e-06 0)
(1.81042e-05 7.09827e-06 0)
(1.81012e-05 7.70512e-06 0)
(1.81238e-05 8.26183e-06 0)
(1.81746e-05 8.77495e-06 0)
(1.82539e-05 9.25229e-06 0)
(1.83602e-05 9.70098e-06 0)
(1.84927e-05 1.01263e-05 0)
(1.86485e-05 1.05345e-05 0)
(1.75801e-05 5.68286e-06 0)
(1.74975e-05 6.389e-06 0)
(1.74389e-05 7.04327e-06 0)
(1.74104e-05 7.63839e-06 0)
(1.74147e-05 8.18069e-06 0)
(1.74507e-05 8.67731e-06 0)
(1.75169e-05 9.13665e-06 0)
(1.76105e-05 9.56604e-06 0)
(1.7731e-05 9.97117e-06 0)
(1.78731e-05 1.0359e-05 0)
(1.697e-05 5.58859e-06 0)
(1.68262e-05 6.29377e-06 0)
(1.672e-05 6.93524e-06 0)
(1.66541e-05 7.51146e-06 0)
(1.66291e-05 8.03289e-06 0)
(1.66408e-05 8.50769e-06 0)
(1.66872e-05 8.94492e-06 0)
(1.67632e-05 9.35193e-06 0)
(1.68666e-05 9.73487e-06 0)
(1.69907e-05 1.01011e-05 0)
(1.63128e-05 5.45071e-06 0)
(1.61004e-05 6.15354e-06 0)
(1.59392e-05 6.77911e-06 0)
(1.5829e-05 7.33207e-06 0)
(1.57685e-05 7.82803e-06 0)
(1.57516e-05 8.27653e-06 0)
(1.57736e-05 8.68762e-06 0)
(1.58274e-05 9.06916e-06 0)
(1.59101e-05 9.42743e-06 0)
(1.60133e-05 9.76964e-06 0)
(1.56006e-05 5.27048e-06 0)
(1.53133e-05 5.96571e-06 0)
(1.50931e-05 6.57015e-06 0)
(1.4937e-05 7.09423e-06 0)
(1.48404e-05 7.55938e-06 0)
(1.47936e-05 7.97692e-06 0)
(1.47895e-05 8.35824e-06 0)
(1.48195e-05 8.71106e-06 0)
(1.48802e-05 9.04194e-06 0)
(1.49614e-05 9.35765e-06 0)
(1.48321e-05 5.05165e-06 0)
(1.44655e-05 5.73009e-06 0)
(1.41858e-05 6.30708e-06 0)
(1.39851e-05 6.79703e-06 0)
(1.38535e-05 7.22731e-06 0)
(1.37769e-05 7.61054e-06 0)
(1.37468e-05 7.95911e-06 0)
(1.3753e-05 8.28054e-06 0)
(1.37916e-05 8.58173e-06 0)
(1.38511e-05 8.86864e-06 0)
(1.40091e-05 4.79742e-06 0)
(1.35623e-05 5.44642e-06 0)
(1.32255e-05 5.98799e-06 0)
(1.29834e-05 6.43859e-06 0)
(1.28185e-05 6.83026e-06 0)
(1.2714e-05 7.17636e-06 0)
(1.26594e-05 7.48976e-06 0)
(1.26432e-05 7.77774e-06 0)
(1.26609e-05 8.04739e-06 0)
(1.26999e-05 8.30372e-06 0)
(1.31363e-05 4.51174e-06 0)
(1.26128e-05 5.11692e-06 0)
(1.22232e-05 5.61446e-06 0)
(1.19433e-05 6.02081e-06 0)
(1.17483e-05 6.37088e-06 0)
(1.16186e-05 6.67766e-06 0)
(1.15418e-05 6.95431e-06 0)
(1.15054e-05 7.20741e-06 0)
(1.1504e-05 7.44431e-06 0)
(1.15248e-05 7.66855e-06 0)
(1.22194e-05 4.19961e-06 0)
(1.1627e-05 4.74556e-06 0)
(1.11913e-05 5.19062e-06 0)
(1.0878e-05 5.54788e-06 0)
(1.06569e-05 5.85376e-06 0)
(1.05056e-05 6.11964e-06 0)
(1.04097e-05 6.35854e-06 0)
(1.03561e-05 6.57621e-06 0)
(1.03378e-05 6.77955e-06 0)
(1.03432e-05 6.97129e-06 0)
(1.12668e-05 3.86599e-06 0)
(1.06153e-05 4.33794e-06 0)
(1.01416e-05 4.72283e-06 0)
(9.80064e-06 5.02694e-06 0)
(9.55847e-06 5.28674e-06 0)
(9.38973e-06 5.51089e-06 0)
(9.27837e-06 5.71198e-06 0)
(9.21073e-06 5.89436e-06 0)
(9.17854e-06 6.0647e-06 0)
(9.17248e-06 6.22203e-06 0)
(1.88367e-05 1.09264e-05 0)
(1.90539e-05 1.13144e-05 0)
(1.92886e-05 1.16958e-05 0)
(1.95387e-05 1.20725e-05 0)
(1.98029e-05 1.24465e-05 0)
(2.00795e-05 1.28188e-05 0)
(2.03674e-05 1.3191e-05 0)
(2.06652e-05 1.35638e-05 0)
(2.09718e-05 1.3938e-05 0)
(2.12862e-05 1.43144e-05 0)
(2.16075e-05 1.46934e-05 0)
(2.19347e-05 1.50756e-05 0)
(2.22671e-05 1.54613e-05 0)
(2.26037e-05 1.58507e-05 0)
(2.29439e-05 1.62439e-05 0)
(2.32869e-05 1.66412e-05 0)
(2.36319e-05 1.70423e-05 0)
(2.39783e-05 1.7447e-05 0)
(2.43254e-05 1.78545e-05 0)
(2.46724e-05 1.82638e-05 0)
(1.80716e-05 1.07362e-05 0)
(1.83178e-05 1.11179e-05 0)
(1.85775e-05 1.14933e-05 0)
(1.88486e-05 1.18647e-05 0)
(1.91305e-05 1.22341e-05 0)
(1.9422e-05 1.26026e-05 0)
(1.97223e-05 1.29717e-05 0)
(2.00305e-05 1.33421e-05 0)
(2.03459e-05 1.37145e-05 0)
(2.06677e-05 1.40897e-05 0)
(2.09952e-05 1.44682e-05 0)
(2.13277e-05 1.48503e-05 0)
(2.16646e-05 1.52364e-05 0)
(2.20054e-05 1.56268e-05 0)
(2.23495e-05 1.60216e-05 0)
(2.26962e-05 1.64208e-05 0)
(2.30452e-05 1.68243e-05 0)
(2.33958e-05 1.72319e-05 0)
(2.37475e-05 1.76428e-05 0)
(2.40996e-05 1.80563e-05 0)
(1.72021e-05 1.04675e-05 0)
(1.74848e-05 1.08503e-05 0)
(1.7777e-05 1.1227e-05 0)
(1.8076e-05 1.15995e-05 0)
(1.83825e-05 1.19703e-05 0)
(1.86953e-05 1.23404e-05 0)
(1.90143e-05 1.27111e-05 0)
(1.93388e-05 1.30833e-05 0)
(1.96685e-05 1.3458e-05 0)
(2.0003e-05 1.38355e-05 0)
(2.03417e-05 1.42167e-05 0)
(2.06843e-05 1.46018e-05 0)
(2.10305e-05 1.49911e-05 0)
(2.13799e-05 1.53851e-05 0)
(2.1732e-05 1.57838e-05 0)
(2.20866e-05 1.61874e-05 0)
(2.24433e-05 1.65958e-05 0)
(2.28015e-05 1.70088e-05 0)
(2.3161e-05 1.74261e-05 0)
(2.35207e-05 1.78472e-05 0)
(1.62398e-05 1.01275e-05 0)
(1.6565e-05 1.05172e-05 0)
(1.68961e-05 1.09009e-05 0)
(1.72291e-05 1.12798e-05 0)
(1.75663e-05 1.16568e-05 0)
(1.79061e-05 1.20327e-05 0)
(1.82493e-05 1.24092e-05 0)
(1.85954e-05 1.27871e-05 0)
(1.89445e-05 1.31673e-05 0)
(1.92963e-05 1.35506e-05 0)
(1.96508e-05 1.39374e-05 0)
(2.00078e-05 1.43283e-05 0)
(2.03673e-05 1.47236e-05 0)
(2.0729e-05 1.51238e-05 0)
(2.10928e-05 1.5529e-05 0)
(2.14585e-05 1.59393e-05 0)
(2.18259e-05 1.6355e-05 0)
(2.21946e-05 1.67761e-05 0)
(2.25644e-05 1.72025e-05 0)
(2.29342e-05 1.76341e-05 0)
(1.52051e-05 9.71007e-06 0)
(1.55776e-05 1.0113e-05 0)
(1.59521e-05 1.05102e-05 0)
(1.63238e-05 1.09012e-05 0)
(1.6696e-05 1.12898e-05 0)
(1.70672e-05 1.16765e-05 0)
(1.74388e-05 1.20633e-05 0)
(1.78104e-05 1.2451e-05 0)
(1.81826e-05 1.28407e-05 0)
(1.85555e-05 1.32332e-05 0)
(1.89293e-05 1.3629e-05 0)
(1.9304e-05 1.40288e-05 0)
(1.96797e-05 1.4433e-05 0)
(2.00567e-05 1.4842e-05 0)
(2.04348e-05 1.52562e-05 0)
(2.08141e-05 1.56759e-05 0)
(2.11945e-05 1.61013e-05 0)
(2.15759e-05 1.65328e-05 0)
(2.19579e-05 1.69707e-05 0)
(2.23398e-05 1.74152e-05 0)
(1.4114e-05 9.21837e-06 0)
(1.45368e-05 9.64039e-06 0)
(1.49585e-05 1.00571e-05 0)
(1.5372e-05 1.04654e-05 0)
(1.57827e-05 1.08707e-05 0)
(1.61886e-05 1.12729e-05 0)
(1.65918e-05 1.16743e-05 0)
(1.69922e-05 1.20758e-05 0)
(1.73906e-05 1.24787e-05 0)
(1.77874e-05 1.28838e-05 0)
(1.81831e-05 1.32918e-05 0)
(1.85781e-05 1.37035e-05 0)
(1.89726e-05 1.41194e-05 0)
(1.9367e-05 1.45399e-05 0)
(1.97615e-05 1.49657e-05 0)
(2.01563e-05 1.5397e-05 0)
(2.05516e-05 1.58344e-05 0)
(2.09471e-05 1.62783e-05 0)
(2.13431e-05 1.67297e-05 0)
(2.17388e-05 1.71887e-05 0)
(1.29834e-05 8.65375e-06 0)
(1.34582e-05 9.1007e-06 0)
(1.39292e-05 9.54253e-06 0)
(1.43868e-05 9.97367e-06 0)
(1.48383e-05 1.04004e-05 0)
(1.52812e-05 1.08226e-05 0)
(1.57184e-05 1.12428e-05 0)
(1.61497e-05 1.16621e-05 0)
(1.65766e-05 1.20818e-05 0)
(1.69994e-05 1.25029e-05 0)
(1.74191e-05 1.29263e-05 0)
(1.78361e-05 1.33529e-05 0)
(1.82512e-05 1.37832e-05 0)
(1.86646e-05 1.42179e-05 0)
(1.90771e-05 1.46576e-05 0)
(1.94887e-05 1.51029e-05 0)
(1.99e-05 1.55543e-05 0)
(2.03111e-05 1.60126e-05 0)
(2.07221e-05 1.64789e-05 0)
(2.11329e-05 1.69537e-05 0)
(1.18293e-05 8.02167e-06 0)
(1.23562e-05 8.49896e-06 0)
(1.28772e-05 8.97054e-06 0)
(1.338e-05 9.42937e-06 0)
(1.38733e-05 9.88188e-06 0)
(1.43547e-05 1.03284e-05 0)
(1.48272e-05 1.07714e-05 0)
(1.52912e-05 1.12122e-05 0)
(1.5748e-05 1.16522e-05 0)
(1.61984e-05 1.20926e-05 0)
(1.66435e-05 1.25345e-05 0)
(1.70841e-05 1.29788e-05 0)
(1.75209e-05 1.34262e-05 0)
(1.79546e-05 1.38775e-05 0)
(1.83859e-05 1.43334e-05 0)
(1.88154e-05 1.47945e-05 0)
(1.92436e-05 1.52618e-05 0)
(1.96709e-05 1.57359e-05 0)
(2.00978e-05 1.62184e-05 0)
(2.05245e-05 1.67098e-05 0)
(1.06685e-05 7.32826e-06 0)
(1.12462e-05 7.84153e-06 0)
(1.1816e-05 8.34635e-06 0)
(1.23642e-05 8.83738e-06 0)
(1.28993e-05 9.3192e-06 0)
(1.34197e-05 9.79355e-06 0)
(1.39281e-05 1.02625e-05 0)
(1.44253e-05 1.0728e-05 0)
(1.49127e-05 1.11914e-05 0)
(1.53915e-05 1.16541e-05 0)
(1.58628e-05 1.21174e-05 0)
(1.63275e-05 1.25821e-05 0)
(1.67868e-05 1.30492e-05 0)
(1.72414e-05 1.35195e-05 0)
(1.76922e-05 1.39939e-05 0)
(1.814e-05 1.4473e-05 0)
(1.85856e-05 1.49578e-05 0)
(1.90296e-05 1.54492e-05 0)
(1.94727e-05 1.59487e-05 0)
(1.99158e-05 1.64571e-05 0)
(9.5142e-06 6.58432e-06 0)
(1.01404e-05 7.13706e-06 0)
(1.07539e-05 7.67611e-06 0)
(1.13466e-05 8.20259e-06 0)
(1.19227e-05 8.71743e-06 0)
(1.24824e-05 9.22317e-06 0)
(1.30273e-05 9.72166e-06 0)
(1.35584e-05 1.02149e-05 0)
(1.40772e-05 1.07045e-05 0)
(1.4585e-05 1.11922e-05 0)
(1.5083e-05 1.16792e-05 0)
(1.55725e-05 1.21666e-05 0)
(1.60546e-05 1.26555e-05 0)
(1.65303e-05 1.31469e-05 0)
(1.70008e-05 1.36414e-05 0)
(1.74671e-05 1.41401e-05 0)
(1.793e-05 1.46438e-05 0)
(1.83908e-05 1.51536e-05 0)
(1.885e-05 1.56709e-05 0)
(1.93094e-05 1.61964e-05 0)
(8.62268e-06 6.02756e-06 0)
(9.27601e-06 6.60884e-06 0)
(9.91264e-06 7.16714e-06 0)
(1.05297e-05 7.71377e-06 0)
(1.11293e-05 8.24874e-06 0)
(1.17116e-05 8.77444e-06 0)
(1.22782e-05 9.29258e-06 0)
(1.28299e-05 9.8049e-06 0)
(1.3368e-05 1.0313e-05 0)
(1.38938e-05 1.08183e-05 0)
(1.44085e-05 1.13221e-05 0)
(1.49133e-05 1.18254e-05 0)
(1.54095e-05 1.23293e-05 0)
(1.58982e-05 1.28347e-05 0)
(1.63805e-05 1.33424e-05 0)
(1.68576e-05 1.38531e-05 0)
(1.73307e-05 1.43678e-05 0)
(1.78009e-05 1.48873e-05 0)
(1.82692e-05 1.5413e-05 0)
(1.87378e-05 1.59455e-05 0)
(8.02735e-06 5.69619e-06 0)
(8.68089e-06 6.2772e-06 0)
(9.31805e-06 6.83975e-06 0)
(9.93731e-06 7.39237e-06 0)
(1.05402e-05 7.93485e-06 0)
(1.11266e-05 8.46884e-06 0)
(1.16976e-05 8.99574e-06 0)
(1.22541e-05 9.51692e-06 0)
(1.2797e-05 1.00337e-05 0)
(1.33275e-05 1.05473e-05 0)
(1.38466e-05 1.10587e-05 0)
(1.43555e-05 1.15691e-05 0)
(1.48554e-05 1.20791e-05 0)
(1.53473e-05 1.25897e-05 0)
(1.58324e-05 1.31016e-05 0)
(1.6312e-05 1.36154e-05 0)
(1.6787e-05 1.41319e-05 0)
(1.7259e-05 1.46519e-05 0)
(1.7729e-05 1.51763e-05 0)
(1.81993e-05 1.57056e-05 0)
(7.5009e-06 5.37867e-06 0)
(8.14273e-06 5.95761e-06 0)
(8.77353e-06 6.52151e-06 0)
(9.38817e-06 7.07769e-06 0)
(9.98876e-06 7.62552e-06 0)
(1.05742e-05 8.16606e-06 0)
(1.11455e-05 8.70031e-06 0)
(1.17029e-05 9.22925e-06 0)
(1.22474e-05 9.7539e-06 0)
(1.27796e-05 1.02752e-05 0)
(1.33008e-05 1.0794e-05 0)
(1.38117e-05 1.13111e-05 0)
(1.43135e-05 1.18272e-05 0)
(1.48072e-05 1.23429e-05 0)
(1.5294e-05 1.2859e-05 0)
(1.5775e-05 1.33758e-05 0)
(1.62513e-05 1.3894e-05 0)
(1.67245e-05 1.44142e-05 0)
(1.71955e-05 1.49369e-05 0)
(1.76671e-05 1.54624e-05 0)
(7.02841e-06 5.07382e-06 0)
(7.65482e-06 5.64773e-06 0)
(8.27431e-06 6.21077e-06 0)
(8.87983e-06 6.76888e-06 0)
(9.47372e-06 7.32067e-06 0)
(1.00541e-05 7.86664e-06 0)
(1.06219e-05 8.40731e-06 0)
(1.11769e-05 8.94324e-06 0)
(1.17198e-05 9.47512e-06 0)
(1.22513e-05 1.00036e-05 0)
(1.27721e-05 1.05293e-05 0)
(1.3283e-05 1.10528e-05 0)
(1.3785e-05 1.15747e-05 0)
(1.42792e-05 1.20954e-05 0)
(1.47664e-05 1.26155e-05 0)
(1.52479e-05 1.31352e-05 0)
(1.57247e-05 1.36549e-05 0)
(1.61984e-05 1.41751e-05 0)
(1.667e-05 1.46958e-05 0)
(1.71423e-05 1.52172e-05 0)
(6.60471e-06 4.78459e-06 0)
(7.21212e-06 5.35172e-06 0)
(7.81629e-06 5.91206e-06 0)
(8.40885e-06 6.47022e-06 0)
(8.99233e-06 7.02422e-06 0)
(9.56424e-06 7.57407e-06 0)
(1.01253e-05 8.11979e-06 0)
(1.06749e-05 8.66156e-06 0)
(1.12137e-05 9.19969e-06 0)
(1.17419e-05 9.73454e-06 0)
(1.22603e-05 1.02665e-05 0)
(1.27694e-05 1.07959e-05 0)
(1.32701e-05 1.13232e-05 0)
(1.37633e-05 1.18486e-05 0)
(1.42498e-05 1.23723e-05 0)
(1.47308e-05 1.28947e-05 0)
(1.52075e-05 1.34158e-05 0)
(1.56808e-05 1.39357e-05 0)
(1.61527e-05 1.44542e-05 0)
(1.66253e-05 1.49713e-05 0)
(6.2219e-06 4.5109e-06 0)
(6.8083e-06 5.06965e-06 0)
(7.39449e-06 5.62571e-06 0)
(7.97141e-06 6.18236e-06 0)
(8.54164e-06 6.73712e-06 0)
(9.1023e-06 7.28953e-06 0)
(9.65389e-06 7.8391e-06 0)
(1.01957e-05 8.38563e-06 0)
(1.0728e-05 8.92907e-06 0)
(1.12509e-05 9.46948e-06 0)
(1.17649e-05 1.0007e-05 0)
(1.22705e-05 1.05417e-05 0)
(1.27685e-05 1.10738e-05 0)
(1.32595e-05 1.16034e-05 0)
(1.37444e-05 1.21305e-05 0)
(1.42241e-05 1.26552e-05 0)
(1.46997e-05 1.31774e-05 0)
(1.51726e-05 1.36969e-05 0)
(1.56435e-05 1.42132e-05 0)
(1.61153e-05 1.47262e-05 0)
(5.87345e-06 4.25282e-06 0)
(6.43757e-06 4.80226e-06 0)
(7.00388e-06 5.3529e-06 0)
(7.56318e-06 5.90675e-06 0)
(8.118e-06 6.46097e-06 0)
(8.66522e-06 7.01465e-06 0)
(9.20524e-06 7.56686e-06 0)
(9.7371e-06 8.11703e-06 0)
(1.0261e-05 8.66476e-06 0)
(1.07768e-05 9.20981e-06 0)
(1.12848e-05 9.75204e-06 0)
(1.17855e-05 1.02913e-05 0)
(1.22794e-05 1.08277e-05 0)
(1.27672e-05 1.13609e-05 0)
(1.32495e-05 1.1891e-05 0)
(1.37272e-05 1.24178e-05 0)
(1.42011e-05 1.29408e-05 0)
(1.46727e-05 1.34599e-05 0)
(1.51425e-05 1.39741e-05 0)
(1.5613e-05 1.4483e-05 0)
(5.55291e-06 4.00967e-06 0)
(6.0941e-06 4.54923e-06 0)
(6.63939e-06 5.09362e-06 0)
(7.17973e-06 5.64369e-06 0)
(7.71756e-06 6.19631e-06 0)
(8.24972e-06 6.75018e-06 0)
(8.77646e-06 7.30396e-06 0)
(9.29675e-06 7.85674e-06 0)
(9.81058e-06 8.40778e-06 0)
(1.03178e-05 8.95657e-06 0)
(1.08185e-05 9.50269e-06 0)
(1.13131e-05 1.00458e-05 0)
(1.18018e-05 1.05857e-05 0)
(1.22853e-05 1.11221e-05 0)
(1.27642e-05 1.16547e-05 0)
(1.32392e-05 1.21831e-05 0)
(1.37109e-05 1.27069e-05 0)
(1.41806e-05 1.32254e-05 0)
(1.46489e-05 1.37376e-05 0)
(1.51177e-05 1.42429e-05 0)
(5.25448e-06 3.7806e-06 0)
(5.7725e-06 4.31017e-06 0)
(6.29606e-06 4.84783e-06 0)
(6.81656e-06 5.39343e-06 0)
(7.33628e-06 5.94363e-06 0)
(7.85216e-06 6.49678e-06 0)
(8.36437e-06 7.05117e-06 0)
(8.87179e-06 7.60559e-06 0)
(9.37434e-06 8.15901e-06 0)
(9.87172e-06 8.71063e-06 0)
(1.0364e-05 9.25981e-06 0)
(1.08514e-05 9.80602e-06 0)
(1.13341e-05 1.03488e-05 0)
(1.18126e-05 1.08877e-05 0)
(1.22873e-05 1.14223e-05 0)
(1.2759e-05 1.1952e-05 0)
(1.3228e-05 1.24763e-05 0)
(1.36954e-05 1.29943e-05 0)
(1.41617e-05 1.35048e-05 0)
(1.46285e-05 1.4007e-05 0)
(4.97274e-06 3.56465e-06 0)
(5.46757e-06 4.08441e-06 0)
(5.96906e-06 4.61514e-06 0)
(6.46917e-06 5.15585e-06 0)
(6.97006e-06 5.70302e-06 0)
(7.46882e-06 6.25471e-06 0)
(7.96556e-06 6.8089e-06 0)
(8.45916e-06 7.3641e-06 0)
(8.94948e-06 7.91902e-06 0)
(9.43614e-06 8.47263e-06 0)
(9.91915e-06 9.02404e-06 0)
(1.03985e-05 9.57254e-06 0)
(1.08745e-05 1.01175e-05 0)
(1.13473e-05 1.06583e-05 0)
(1.18174e-05 1.11944e-05 0)
(1.22851e-05 1.17251e-05 0)
(1.27511e-05 1.22497e-05 0)
(1.32158e-05 1.27673e-05 0)
(1.36798e-05 1.32763e-05 0)
(1.41442e-05 1.37761e-05 0)
(4.7027e-06 3.36089e-06 0)
(5.17445e-06 3.87126e-06 0)
(5.6537e-06 4.39511e-06 0)
(6.13312e-06 4.9307e-06 0)
(6.61471e-06 5.47442e-06 0)
(7.09579e-06 6.02407e-06 0)
(7.57644e-06 6.57737e-06 0)
(8.05557e-06 7.1326e-06 0)
(8.533e-06 7.68822e-06 0)
(9.00829e-06 8.24299e-06 0)
(9.48137e-06 8.79585e-06 0)
(9.95219e-06 9.34589e-06 0)
(1.04209e-05 9.89233e-06 0)
(1.08875e-05 1.04344e-05 0)
(1.13525e-05 1.09715e-05 0)
(1.18161e-05 1.15028e-05 0)
(1.22785e-05 1.20275e-05 0)
(1.27404e-05 1.25447e-05 0)
(1.32018e-05 1.30527e-05 0)
(1.36636e-05 1.35509e-05 0)
(4.43968e-06 3.1685e-06 0)
(4.88844e-06 3.67008e-06 0)
(5.34541e-06 4.18724e-06 0)
(5.80397e-06 4.71766e-06 0)
(6.26602e-06 5.25766e-06 0)
(6.7291e-06 5.80481e-06 0)
(7.1933e-06 6.35663e-06 0)
(7.65758e-06 6.9112e-06 0)
(8.1217e-06 7.46679e-06 0)
(8.58523e-06 8.02197e-06 0)
(9.04801e-06 8.57552e-06 0)
(9.50991e-06 9.12637e-06 0)
(9.97095e-06 9.67361e-06 0)
(1.04312e-05 1.02164e-05 0)
(1.08908e-05 1.0754e-05 0)
(1.13499e-05 1.12855e-05 0)
(1.18087e-05 1.18102e-05 0)
(1.22675e-05 1.2327e-05 0)
(1.27262e-05 1.28344e-05 0)
(1.31852e-05 1.33317e-05 0)
(4.17913e-06 2.98676e-06 0)
(4.60496e-06 3.48024e-06 0)
(5.03963e-06 3.99101e-06 0)
(5.4773e-06 4.51632e-06 0)
(5.9197e-06 5.05242e-06 0)
(6.36469e-06 5.59671e-06 0)
(6.8123e-06 6.14655e-06 0)
(7.26158e-06 6.69986e-06 0)
(7.71226e-06 7.25474e-06 0)
(8.16388e-06 7.80963e-06 0)
(8.61622e-06 8.36315e-06 0)
(9.06908e-06 8.91411e-06 0)
(9.52236e-06 9.46151e-06 0)
(9.97605e-06 1.00044e-05 0)
(1.04301e-05 1.0542e-05 0)
(1.08847e-05 1.10734e-05 0)
(1.13398e-05 1.15978e-05 0)
(1.17954e-05 1.21143e-05 0)
(1.22514e-05 1.26214e-05 0)
(1.27076e-05 1.31186e-05 0)
(3.9166e-06 2.81532e-06 0)
(4.31945e-06 3.30137e-06 0)
(4.73181e-06 3.80608e-06 0)
(5.1486e-06 4.32637e-06 0)
(5.57142e-06 4.85842e-06 0)
(5.99837e-06 5.39953e-06 0)
(6.42948e-06 5.94693e-06 0)
(6.86387e-06 6.49841e-06 0)
(7.30123e-06 7.05195e-06 0)
(7.74105e-06 7.60587e-06 0)
(8.18307e-06 8.15868e-06 0)
(8.62699e-06 8.7091e-06 0)
(9.07262e-06 9.25601e-06 0)
(9.51982e-06 9.79846e-06 0)
(9.9685e-06 1.03355e-05 0)
(1.04186e-05 1.08665e-05 0)
(1.08699e-05 1.13904e-05 0)
(1.13224e-05 1.19066e-05 0)
(1.17757e-05 1.24138e-05 0)
(1.22293e-05 1.29116e-05 0)
(3.64744e-06 2.65365e-06 0)
(4.02719e-06 3.13293e-06 0)
(4.41722e-06 3.63191e-06 0)
(4.81324e-06 4.14725e-06 0)
(5.21666e-06 4.67514e-06 0)
(5.62584e-06 5.21276e-06 0)
(6.04076e-06 5.75729e-06 0)
(6.4606e-06 6.30641e-06 0)
(6.88501e-06 6.85803e-06 0)
(7.31343e-06 7.41035e-06 0)
(7.74551e-06 7.96182e-06 0)
(8.18087e-06 8.51107e-06 0)
(8.6192e-06 9.05693e-06 0)
(9.06024e-06 9.59838e-06 0)
(9.50377e-06 1.01345e-05 0)
(9.94957e-06 1.06646e-05 0)
(1.03974e-05 1.11878e-05 0)
(1.08469e-05 1.17036e-05 0)
(1.12977e-05 1.22111e-05 0)
(1.17488e-05 1.27101e-05 0)
(3.36692e-06 2.50213e-06 0)
(3.72335e-06 2.9751e-06 0)
(4.09104e-06 3.46851e-06 0)
(4.46648e-06 3.97886e-06 0)
(4.85082e-06 4.50235e-06 0)
(5.24269e-06 5.03611e-06 0)
(5.64198e-06 5.57727e-06 0)
(6.04789e-06 6.12348e-06 0)
(6.46e-06 6.67255e-06 0)
(6.87771e-06 7.22265e-06 0)
(7.30053e-06 7.77215e-06 0)
(7.72798e-06 8.31963e-06 0)
(8.15965e-06 8.86388e-06 0)
(8.59511e-06 9.40385e-06 0)
(9.034e-06 9.93864e-06 0)
(9.47596e-06 1.04675e-05 0)
(9.92063e-06 1.09898e-05 0)
(1.03675e-05 1.15051e-05 0)
(1.0816e-05 1.2013e-05 0)
(1.12651e-05 1.25135e-05 0)
(3.06962e-06 2.35994e-06 0)
(3.4025e-06 2.82698e-06 0)
(3.7479e-06 3.31489e-06 0)
(4.10308e-06 3.82016e-06 0)
(4.4689e-06 4.33899e-06 0)
(4.84416e-06 4.86852e-06 0)
(5.22865e-06 5.40585e-06 0)
(5.62156e-06 5.9486e-06 0)
(6.02237e-06 6.49457e-06 0)
(6.43036e-06 7.04188e-06 0)
(6.84496e-06 7.58885e-06 0)
(7.26553e-06 8.13405e-06 0)
(7.69149e-06 8.67622e-06 0)
(8.12228e-06 9.21428e-06 0)
(8.55736e-06 9.74735e-06 0)
(8.99621e-06 1.02747e-05 0)
(9.43831e-06 1.07958e-05 0)
(9.88303e-06 1.13105e-05 0)
(1.03297e-05 1.18186e-05 0)
(1.07771e-05 1.23208e-05 0)
(2.7502e-06 2.229e-06 0)
(3.0593e-06 2.68996e-06 0)
(3.38258e-06 3.172e-06 0)
(3.71801e-06 3.6717e-06 0)
(4.06608e-06 4.18529e-06 0)
(4.42572e-06 4.70993e-06 0)
(4.79655e-06 5.24273e-06 0)
(5.17771e-06 5.78132e-06 0)
(5.56853e-06 6.32348e-06 0)
(5.96818e-06 6.86732e-06 0)
(6.37592e-06 7.41115e-06 0)
(6.79095e-06 7.9535e-06 0)
(7.21253e-06 8.49309e-06 0)
(7.63991e-06 9.02885e-06 0)
(8.07235e-06 9.55987e-06 0)
(8.50913e-06 1.00855e-05 0)
(8.94956e-06 1.06053e-05 0)
(9.39286e-06 1.11191e-05 0)
(9.83828e-06 1.16273e-05 0)
(1.02846e-05 1.21308e-05 0)
(2.40112e-06 2.1062e-06 0)
(2.68638e-06 2.56096e-06 0)
(2.98801e-06 3.03685e-06 0)
(3.30454e-06 3.53059e-06 0)
(3.63604e-06 4.0385e-06 0)
(3.98146e-06 4.55775e-06 0)
(4.34021e-06 5.08552e-06 0)
(4.71132e-06 5.61943e-06 0)
(5.09393e-06 6.15728e-06 0)
(5.48707e-06 6.69717e-06 0)
(5.8898e-06 7.23741e-06 0)
(6.30116e-06 7.77652e-06 0)
(6.72018e-06 8.31321e-06 0)
(7.14592e-06 8.8464e-06 0)
(7.57742e-06 9.37518e-06 0)
(8.01372e-06 9.8989e-06 0)
(8.4539e-06 1.04172e-05 0)
(8.89694e-06 1.093e-05 0)
(9.34197e-06 1.1438e-05 0)
(9.78782e-06 1.19424e-05 0)
(2.01808e-06 1.99818e-06 0)
(2.27963e-06 2.44532e-06 0)
(2.56039e-06 2.91362e-06 0)
(2.85914e-06 3.40002e-06 0)
(3.17554e-06 3.9009e-06 0)
(3.50843e-06 4.41352e-06 0)
(3.85697e-06 4.93506e-06 0)
(4.22e-06 5.46319e-06 0)
(4.59646e-06 5.99572e-06 0)
(4.98518e-06 6.53076e-06 0)
(5.38502e-06 7.06662e-06 0)
(5.7948e-06 7.60182e-06 0)
(6.21338e-06 8.13508e-06 0)
(6.63955e-06 8.6653e-06 0)
(7.07214e-06 9.19161e-06 0)
(7.50992e-06 9.71335e-06 0)
(7.95166e-06 1.02301e-05 0)
(8.39603e-06 1.0742e-05 0)
(8.84192e-06 1.12496e-05 0)
(9.28798e-06 1.17542e-05 0)
(2.99006e-07 4.76091e-08 0)
(9.01951e-07 2.40195e-07 0)
(1.54177e-06 5.72569e-07 0)
(2.22909e-06 1.02461e-06 0)
(2.97794e-06 1.586e-06 0)
(3.79351e-06 2.23821e-06 0)
(4.67899e-06 2.96115e-06 0)
(5.6323e-06 3.73347e-06 0)
(6.64971e-06 4.53345e-06 0)
(7.72448e-06 5.34317e-06 0)
(2.81412e-07 4.48708e-08 0)
(8.49731e-07 2.2208e-07 0)
(1.45158e-06 5.26895e-07 0)
(2.0951e-06 9.42968e-07 0)
(2.79302e-06 1.46278e-06 0)
(3.55011e-06 2.07109e-06 0)
(4.36985e-06 2.75078e-06 0)
(5.25059e-06 3.48329e-06 0)
(6.18852e-06 4.24792e-06 0)
(7.1772e-06 5.03061e-06 0)
(2.65608e-07 4.1368e-08 0)
(8.02873e-07 2.03323e-07 0)
(1.37109e-06 4.82395e-07 0)
(1.97581e-06 8.65107e-07 0)
(2.62831e-06 1.34599e-06 0)
(3.33263e-06 1.91235e-06 0)
(4.09261e-06 2.54956e-06 0)
(4.90767e-06 3.24189e-06 0)
(5.77619e-06 3.97069e-06 0)
(6.69178e-06 4.72608e-06 0)
(2.51146e-07 3.70965e-08 0)
(7.60153e-07 1.84097e-07 0)
(1.29856e-06 4.39871e-07 0)
(1.86963e-06 7.93012e-07 0)
(2.48336e-06 1.2395e-06 0)
(3.14279e-06 1.76854e-06 0)
(3.85154e-06 2.36723e-06 0)
(4.60877e-06 3.02173e-06 0)
(5.41435e-06 3.71451e-06 0)
(6.26102e-06 4.43721e-06 0)
(2.37629e-07 3.20531e-08 0)
(7.20261e-07 1.63829e-07 0)
(1.23127e-06 3.97483e-07 0)
(1.77184e-06 7.23163e-07 0)
(2.35089e-06 1.13789e-06 0)
(2.97052e-06 1.63233e-06 0)
(3.63428e-06 2.19507e-06 0)
(4.34104e-06 2.81397e-06 0)
(5.09214e-06 3.47312e-06 0)
(5.87823e-06 4.16413e-06 0)
(2.24936e-07 2.63429e-08 0)
(6.82836e-07 1.42685e-07 0)
(1.16855e-06 3.55454e-07 0)
(1.68146e-06 6.55954e-07 0)
(2.22952e-06 1.04191e-06 0)
(2.81385e-06 1.50505e-06 0)
(3.43781e-06 2.03499e-06 0)
(4.09971e-06 2.62069e-06 0)
(4.80223e-06 3.24775e-06 0)
(5.53457e-06 3.90728e-06 0)
(2.12816e-07 1.99634e-08 0)
(6.47102e-07 1.20427e-07 0)
(1.10894e-06 3.12982e-07 0)
(1.59611e-06 5.89812e-07 0)
(2.1158e-06 9.49152e-07 0)
(2.66826e-06 1.38351e-06 0)
(3.25671e-06 1.88341e-06 0)
(3.87886e-06 2.43859e-06 0)
(4.53835e-06 3.03611e-06 0)
(5.22328e-06 3.66612e-06 0)
(2.01165e-07 1.30092e-08 0)
(6.12747e-07 9.71759e-08 0)
(1.05185e-06 2.70109e-07 0)
(1.51481e-06 5.2467e-07 0)
(2.00817e-06 8.5942e-07 0)
(2.53141e-06 1.26741e-06 0)
(3.08759e-06 1.73982e-06 0)
(3.67395e-06 2.26691e-06 0)
(4.29475e-06 2.83707e-06 0)
(4.93769e-06 3.43962e-06 0)
(1.89839e-07 5.49518e-09 0)
(5.79336e-07 7.28472e-08 0)
(9.96449e-07 2.26492e-07 0)
(1.43627e-06 4.59827e-07 0)
(1.90478e-06 7.71614e-07 0)
(2.40079e-06 1.15528e-06 0)
(2.92724e-06 1.60256e-06 0)
(3.48104e-06 2.10399e-06 0)
(4.0667e-06 2.64912e-06 0)
(4.67207e-06 3.22659e-06 0)
(1.78755e-07 -2.51781e-09 0)
(5.4662e-07 4.75132e-08 0)
(9.42271e-07 1.82115e-07 0)
(1.35969e-06 3.95135e-07 0)
(1.80434e-06 6.85414e-07 0)
(2.27453e-06 1.04661e-06 0)
(2.77304e-06 1.47083e-06 0)
(3.29666e-06 1.94884e-06 0)
(3.84992e-06 2.47108e-06 0)
(4.42123e-06 3.02582e-06 0)
(1.67823e-07 -1.10122e-08 0)
(5.14353e-07 2.11316e-08 0)
(8.88819e-07 1.36815e-07 0)
(1.28426e-06 3.30278e-07 0)
(1.70563e-06 6.00313e-07 0)
(2.15089e-06 9.40692e-07 0)
(2.62267e-06 1.34378e-06 0)
(3.1178e-06 1.80047e-06 0)
(3.64067e-06 2.30188e-06 0)
(4.18053e-06 2.83617e-06 0)
(1.57077e-07 -1.99657e-08 0)
(4.82496e-07 -6.2493e-09 0)
(8.35775e-07 9.05869e-08 0)
(1.20938e-06 2.65177e-07 0)
(1.60765e-06 5.16143e-07 0)
(2.02836e-06 8.3723e-07 0)
(2.47401e-06 1.22094e-06 0)
(2.94166e-06 1.65824e-06 0)
(3.43544e-06 2.14077e-06 0)
(3.94567e-06 2.65674e-06 0)
(1.46382e-07 -2.94511e-08 0)
(4.50816e-07 -3.47083e-08 0)
(7.82872e-07 4.33491e-08 0)
(1.13448e-06 1.99704e-07 0)
(1.50946e-06 4.3272e-07 0)
(1.90551e-06 7.35958e-07 0)
(2.32509e-06 1.10194e-06 0)
(2.7656e-06 1.52165e-06 0)
(3.23094e-06 1.98712e-06 0)
(3.71254e-06 2.48674e-06 0)
(1.35684e-07 -3.95091e-08 0)
(4.19211e-07 -6.42984e-08 0)
(7.2995e-07 -4.90584e-09 0)
(1.05912e-06 1.3396e-07 0)
(1.4102e-06 3.50207e-07 0)
(1.78097e-06 6.37032e-07 0)
(2.17395e-06 9.86852e-07 0)
(2.58704e-06 1.39066e-06 0)
(3.02389e-06 1.84078e-06 0)
(3.47716e-06 2.32587e-06 0)
(1.2498e-07 -5.03162e-08 0)
(3.87945e-07 -9.53139e-08 0)
(6.7721e-07 -5.43608e-08 0)
(9.8304e-07 6.78998e-08 0)
(1.30909e-06 2.68611e-07 0)
(1.65333e-06 5.40472e-07 0)
(2.01854e-06 8.75655e-07 0)
(2.40325e-06 1.26515e-06 0)
(2.81087e-06 1.70148e-06 0)
(3.23536e-06 2.17368e-06 0)
(1.1444e-07 -6.22337e-08 0)
(3.57401e-07 -1.28005e-07 0)
(6.24646e-07 -1.04826e-07 0)
(9.05949e-07 2.19449e-09 0)
(1.20522e-06 1.88897e-07 0)
(1.52108e-06 4.47357e-07 0)
(1.8567e-06 7.69391e-07 0)
(2.21135e-06 1.14603e-06 0)
(2.58832e-06 1.56999e-06 0)
(2.98286e-06 2.03074e-06 0)
(1.04636e-07 -7.59047e-08 0)
(3.28878e-07 -1.63118e-07 0)
(5.73257e-07 -1.5675e-07 0)
(8.28058e-07 -6.33697e-08 0)
(1.09778e-06 1.10988e-07 0)
(1.38248e-06 3.57621e-07 0)
(1.68582e-06 6.67968e-07 0)
(2.00794e-06 1.03307e-06 0)
(2.35206e-06 1.44588e-06 0)
(2.71469e-06 1.8964e-06 0)
(9.67951e-08 -9.31853e-08 0)
(3.04011e-07 -2.01225e-07 0)
(5.23703e-07 -2.08875e-07 0)
(7.48952e-07 -1.26151e-07 0)
(9.85598e-07 3.82264e-08 0)
(1.23538e-06 2.74735e-07 0)
(1.503e-06 5.74667e-07 0)
(1.78942e-06 9.29336e-07 0)
(2.09778e-06 1.33194e-06 0)
(2.42588e-06 1.77309e-06 0)
(9.73245e-08 -1.16256e-07 0)
(2.89482e-07 -2.43818e-07 0)
(4.79891e-07 -2.62189e-07 0)
(6.69202e-07 -1.87634e-07 0)
(8.66981e-07 -3.11963e-08 0)
(1.07695e-06 1.96692e-07 0)
(1.30425e-06 4.87344e-07 0)
(1.55058e-06 8.3235e-07 0)
(1.81931e-06 1.22535e-06 0)
(2.10929e-06 1.65772e-06 0)
(1.19805e-07 -1.55347e-07 0)
(2.89183e-07 -2.90267e-07 0)
(4.43199e-07 -3.09127e-07 0)
(5.87938e-07 -2.37158e-07 0)
(7.39995e-07 -8.63611e-08 0)
(9.04e-07 1.34016e-07 0)
(1.08606e-06 4.15902e-07 0)
(1.28814e-06 7.51559e-07 0)
(1.51308e-06 1.13495e-06 0)
(1.76071e-06 1.5582e-06 0)
)
;

boundaryField
{
    left
    {
        type            fixedDisplacement;
        value           uniform (0 0 0);
    }
    right
    {
        type            solidTraction;
        tractionSeries  
{
        file            "$FOAM_CASE/constant/timeVsTraction";
        outOfBounds     clamp;
}
        pressure        uniform 0;
        secondOrder     false;
        setEffectiveTraction false;
        relaxationFactor 1;
        value           nonuniform List<vector> 
30
(
(2.48452e-05 1.84681e-05 -9.88094e-21)
(2.42735e-05 1.82626e-05 -9.93891e-21)
(2.3697e-05 1.80582e-05 -1.00518e-20)
(2.31142e-05 1.78513e-05 -1.02157e-20)
(2.2525e-05 1.76397e-05 -1.04304e-20)
(2.19304e-05 1.74214e-05 -1.06954e-20)
(2.13322e-05 1.71951e-05 -1.10103e-20)
(2.07324e-05 1.69601e-05 -1.13745e-20)
(2.01334e-05 1.67165e-05 -1.17874e-20)
(1.95376e-05 1.64649e-05 -1.2248e-20)
(1.89723e-05 1.62174e-05 -1.25005e-20)
(1.84347e-05 1.59744e-05 -1.2484e-20)
(1.79032e-05 1.57277e-05 -1.24736e-20)
(1.73786e-05 1.54787e-05 -1.24692e-20)
(1.68616e-05 1.5229e-05 -1.24716e-20)
(1.63513e-05 1.49803e-05 -1.24802e-20)
(1.58485e-05 1.47334e-05 -1.24942e-20)
(1.53523e-05 1.44903e-05 -1.25133e-20)
(1.4862e-05 1.42518e-05 -1.25365e-20)
(1.43764e-05 1.40189e-05 -1.25628e-20)
(1.38945e-05 1.37923e-05 -1.25911e-20)
(1.34147e-05 1.35726e-05 -1.26202e-20)
(1.29356e-05 1.33597e-05 -1.26488e-20)
(1.24559e-05 1.31535e-05 -1.26755e-20)
(1.19743e-05 1.29536e-05 -1.26991e-20)
(1.14895e-05 1.2759e-05 -1.27186e-20)
(1.10008e-05 1.25685e-05 -1.27328e-20)