/*--------------------------------*- C++ -*----------------------------------*\
  =========                 |
  \\      /  F ield         | OpenFOAM: The Open Source CFD Toolbox
   \\    /   O peration     | Website:  https://openfoam.org
    \\  /    A nd           | Version:  9
     \\/     M anipulation  |
\*---------------------------------------------------------------------------*/
FoamFile
{
    format      ascii;
    class       volVectorField;
    location    "15";
    object      D_0;
}
// * * * * * * * * * * * * * * * * * * * * * * * * * * * * * * * * * * * * * //

dimensions      [0 1 0 0 0 0 0];

internalField   nonuniform List<vector> 
1000
(
(9.61518e-06 3.29838e-06 0)
(8.96107e-06 3.6593e-06 0)
(8.49119e-06 3.95758e-06 0)
(8.15358e-06 4.18999e-06 0)
(7.91349e-06 4.38948e-06 0)
(7.74475e-06 4.56088e-06 0)
(7.63085e-06 4.71491e-06 0)
(7.55896e-06 4.85512e-06 0)
(7.51876e-06 4.98576e-06 0)
(7.50534e-06 5.10944e-06 0)
(8.67329e-06 2.96046e-06 0)
(7.99113e-06 3.2308e-06 0)
(7.50625e-06 3.46219e-06 0)
(7.15779e-06 3.63976e-06 0)
(6.91e-06 3.79455e-06 0)
(6.7346e-06 3.92722e-06 0)
(6.61439e-06 4.0471e-06 0)
(6.53573e-06 4.15651e-06 0)
(6.48808e-06 4.25791e-06 0)
(6.46469e-06 4.35638e-06 0)
(7.70413e-06 2.62373e-06 0)
(7.0187e-06 2.79346e-06 0)
(6.53234e-06 2.9545e-06 0)
(6.18248e-06 3.07707e-06 0)
(5.93416e-06 3.18825e-06 0)
(5.75785e-06 3.28421e-06 0)
(5.63601e-06 3.37246e-06 0)
(5.55457e-06 3.45378e-06 0)
(5.50293e-06 3.52903e-06 0)
(5.47383e-06 3.60373e-06 0)
(6.71503e-06 2.29831e-06 0)
(6.05295e-06 2.36128e-06 0)
(5.57702e-06 2.44907e-06 0)
(5.23589e-06 2.51698e-06 0)
(4.99477e-06 2.58621e-06 0)
(4.82396e-06 2.64815e-06 0)
(4.70582e-06 2.70792e-06 0)
(4.62599e-06 2.76441e-06 0)
(4.57444e-06 2.81705e-06 0)
(4.54302e-06 2.87081e-06 0)
(5.73309e-06 1.97095e-06 0)
(5.09441e-06 1.94071e-06 0)
(4.64175e-06 1.95709e-06 0)
(4.32141e-06 1.97372e-06 0)
(4.09668e-06 2.00479e-06 0)
(3.9389e-06 2.037e-06 0)
(3.83018e-06 2.07273e-06 0)
(3.75653e-06 2.10866e-06 0)
(3.70862e-06 2.14296e-06 0)
(3.67795e-06 2.17932e-06 0)
(4.73798e-06 1.66016e-06 0)
(4.14043e-06 1.53171e-06 0)
(3.72934e-06 1.48765e-06 0)
(3.44279e-06 1.45902e-06 0)
(3.24489e-06 1.45946e-06 0)
(3.10764e-06 1.46817e-06 0)
(3.01395e-06 1.48577e-06 0)
(2.9506e-06 1.50637e-06 0)
(2.90939e-06 1.52725e-06 0)
(2.88192e-06 1.55051e-06 0)
(3.70725e-06 1.372e-06 0)
(3.18754e-06 1.14899e-06 0)
(2.84013e-06 1.05436e-06 0)
(2.60154e-06 9.90679e-07 0)
(2.44122e-06 9.69174e-07 0)
(2.33148e-06 9.62001e-07 0)
(2.2577e-06 9.67763e-07 0)
(2.20789e-06 9.7841e-07 0)
(2.17552e-06 9.90653e-07 0)
(2.15301e-06 1.00503e-06 0)
(2.66919e-06 1.0844e-06 0)
(2.24619e-06 7.94538e-07 0)
(1.98076e-06 6.66373e-07 0)
(1.80316e-06 5.8469e-07 0)
(1.68856e-06 5.52721e-07 0)
(1.61124e-06 5.38852e-07 0)
(1.56015e-06 5.39345e-07 0)
(1.5256e-06 5.45265e-07 0)
(1.50306e-06 5.5315e-07 0)
(1.48655e-06 5.62473e-07 0)
(1.59411e-06 7.82899e-07 0)
(1.30771e-06 4.71035e-07 0)
(1.14756e-06 3.35672e-07 0)
(1.04297e-06 2.59424e-07 0)
(9.80438e-07 2.30539e-07 0)
(9.38213e-07 2.18603e-07 0)
(9.10865e-07 2.18775e-07 0)
(8.91859e-07 2.23115e-07 0)
(8.79161e-07 2.28872e-07 0)
(8.69031e-07 2.35215e-07 0)
(5.41522e-07 4.02918e-07 0)
(4.16555e-07 1.82617e-07 0)
(3.6702e-07 8.98453e-08 0)
(3.38657e-07 5.20669e-08 0)
(3.22026e-07 3.88683e-08 0)
(3.10094e-07 3.52859e-08 0)
(3.02166e-07 3.66751e-08 0)
(2.96272e-07 3.95916e-08 0)
(2.9215e-07 4.27157e-08 0)
(2.88508e-07 4.58061e-08 0)
(1.69928e-05 5.37382e-06 0)
(1.6963e-05 6.03734e-06 0)
(1.69401e-05 6.65806e-06 0)
(1.69361e-05 7.22715e-06 0)
(1.6956e-05 7.74909e-06 0)
(1.70021e-05 8.23007e-06 0)
(1.70749e-05 8.6774e-06 0)
(1.71731e-05 9.09772e-06 0)
(1.72955e-05 9.49611e-06 0)
(1.74395e-05 9.8783e-06 0)
(1.64507e-05 5.33095e-06 0)
(1.63724e-05 5.99299e-06 0)
(1.63163e-05 6.60658e-06 0)
(1.62883e-05 7.16472e-06 0)
(1.6291e-05 7.67321e-06 0)
(1.63233e-05 8.13874e-06 0)
(1.63838e-05 8.56936e-06 0)
(1.64699e-05 8.97179e-06 0)
(1.65809e-05 9.35135e-06 0)
(1.67125e-05 9.71462e-06 0)
(1.58789e-05 5.24252e-06 0)
(1.57431e-05 5.90373e-06 0)
(1.56424e-05 6.5054e-06 0)
(1.55792e-05 7.04585e-06 0)
(1.55545e-05 7.53484e-06 0)
(1.55638e-05 7.98005e-06 0)
(1.56053e-05 8.38995e-06 0)
(1.56752e-05 8.77149e-06 0)
(1.57709e-05 9.13021e-06 0)
(1.58862e-05 9.47314e-06 0)
(1.52632e-05 5.11312e-06 0)
(1.5063e-05 5.77226e-06 0)
(1.49105e-05 6.35907e-06 0)
(1.48058e-05 6.87774e-06 0)
(1.47474e-05 7.34296e-06 0)
(1.47298e-05 7.76361e-06 0)
(1.47493e-05 8.14895e-06 0)
(1.47987e-05 8.50643e-06 0)
(1.48756e-05 8.84202e-06 0)
(1.49717e-05 9.16245e-06 0)
(1.45959e-05 4.94397e-06 0)
(1.43254e-05 5.59611e-06 0)
(1.41176e-05 6.16313e-06 0)
(1.39694e-05 6.65486e-06 0)
(1.38772e-05 7.09121e-06 0)
(1.38324e-05 7.4827e-06 0)
(1.38278e-05 7.84004e-06 0)
(1.38555e-05 8.17061e-06 0)
(1.39121e-05 8.48052e-06 0)
(1.39881e-05 8.77615e-06 0)
(1.3876e-05 4.73848e-06 0)
(1.35311e-05 5.37513e-06 0)
(1.3267e-05 5.91652e-06 0)
(1.3077e-05 6.37619e-06 0)
(1.29528e-05 6.77972e-06 0)
(1.28805e-05 7.13895e-06 0)
(1.28521e-05 7.4656e-06 0)
(1.28579e-05 7.76675e-06 0)
(1.28943e-05 8.04888e-06 0)
(1.29502e-05 8.31759e-06 0)
(1.31049e-05 4.49962e-06 0)
(1.26843e-05 5.10886e-06 0)
(1.23669e-05 5.61721e-06 0)
(1.21387e-05 6.03991e-06 0)
(1.19839e-05 6.40714e-06 0)
(1.18859e-05 6.73155e-06 0)
(1.1835e-05 7.02526e-06 0)
(1.18202e-05 7.29511e-06 0)
(1.18371e-05 7.54774e-06 0)
(1.18741e-05 7.78789e-06 0)
(1.22873e-05 4.23126e-06 0)
(1.17945e-05 4.79956e-06 0)
(1.14276e-05 5.26654e-06 0)
(1.11649e-05 5.64779e-06 0)
(1.09823e-05 5.97597e-06 0)
(1.08613e-05 6.26359e-06 0)
(1.07898e-05 6.52291e-06 0)
(1.07564e-05 6.76016e-06 0)
(1.07556e-05 6.98219e-06 0)
(1.07756e-05 7.19237e-06 0)
(1.1428e-05 3.93779e-06 0)
(1.08708e-05 4.45086e-06 0)
(1.04614e-05 4.8686e-06 0)
(1.01681e-05 5.20381e-06 0)
(9.96145e-06 5.49065e-06 0)
(9.82042e-06 5.74001e-06 0)
(9.73123e-06 5.96404e-06 0)
(9.6816e-06 6.16819e-06 0)
(9.66503e-06 6.35887e-06 0)
(9.67054e-06 6.5387e-06 0)
(1.05354e-05 3.62408e-06 0)
(9.92324e-06 4.0678e-06 0)
(9.47896e-06 4.42928e-06 0)
(9.16021e-06 4.71475e-06 0)
(8.9341e-06 4.95853e-06 0)
(8.77684e-06 5.16891e-06 0)
(8.67321e-06 5.35763e-06 0)
(8.61042e-06 5.52881e-06 0)
(8.5807e-06 5.68867e-06 0)
(8.57535e-06 5.83634e-06 0)
(1.7614e-05 1.02451e-05 0)
(1.78159e-05 1.06082e-05 0)
(1.80343e-05 1.0965e-05 0)
(1.82672e-05 1.13174e-05 0)
(1.85134e-05 1.16671e-05 0)
(1.87713e-05 1.20153e-05 0)
(1.90398e-05 1.23633e-05 0)
(1.93176e-05 1.27118e-05 0)
(1.96038e-05 1.30618e-05 0)
(1.98972e-05 1.34136e-05 0)
(2.0197e-05 1.3768e-05 0)
(2.05024e-05 1.41252e-05 0)
(2.08126e-05 1.44857e-05 0)
(2.11267e-05 1.48496e-05 0)
(2.14442e-05 1.52171e-05 0)
(2.17643e-05 1.55882e-05 0)
(2.20863e-05 1.59629e-05 0)
(2.24095e-05 1.63408e-05 0)
(2.27334e-05 1.67213e-05 0)
(2.30573e-05 1.71035e-05 0)
(1.68971e-05 1.00677e-05 0)
(1.71266e-05 1.04248e-05 0)
(1.73686e-05 1.07759e-05 0)
(1.76214e-05 1.11233e-05 0)
(1.78844e-05 1.14687e-05 0)
(1.81564e-05 1.18134e-05 0)
(1.84367e-05 1.21585e-05 0)
(1.87244e-05 1.25048e-05 0)
(1.90188e-05 1.28531e-05 0)
(1.93191e-05 1.32039e-05 0)
(1.96248e-05 1.35577e-05 0)
(1.99353e-05 1.39149e-05 0)
(2.02498e-05 1.42758e-05 0)
(2.05679e-05 1.46407e-05 0)
(2.08891e-05 1.50096e-05 0)
(2.12127e-05 1.53825e-05 0)
(2.15385e-05 1.57595e-05 0)
(2.18657e-05 1.61401e-05 0)
(2.21939e-05 1.65238e-05 0)
(2.25225e-05 1.69098e-05 0)
(1.60833e-05 9.81612e-06 0)
(1.63472e-05 1.01744e-05 0)
(1.66199e-05 1.05268e-05 0)
(1.68991e-05 1.08752e-05 0)
(1.71852e-05 1.12221e-05 0)
(1.74773e-05 1.15681e-05 0)
(1.77751e-05 1.19149e-05 0)
(1.80781e-05 1.2263e-05 0)
(1.8386e-05 1.26133e-05 0)
(1.86983e-05 1.29664e-05 0)
(1.90146e-05 1.33227e-05 0)
(1.93345e-05 1.36827e-05 0)
(1.96577e-05 1.40467e-05 0)
(1.99839e-05 1.4415e-05 0)
(2.03126e-05 1.47876e-05 0)
(2.06436e-05 1.51647e-05 0)
(2.09765e-05 1.55462e-05 0)
(2.13109e-05 1.59319e-05 0)
(2.16465e-05 1.63216e-05 0)
(2.19822e-05 1.67147e-05 0)
(1.51833e-05 9.49754e-06 0)
(1.54872e-05 9.86231e-06 0)
(1.57965e-05 1.02214e-05 0)
(1.61077e-05 1.05759e-05 0)
(1.64226e-05 1.09286e-05 0)
(1.67401e-05 1.12803e-05 0)
(1.70607e-05 1.16325e-05 0)
(1.73839e-05 1.19859e-05 0)
(1.77099e-05 1.23416e-05 0)
(1.80385e-05 1.27e-05 0)
(1.83696e-05 1.30617e-05 0)
(1.8703e-05 1.34272e-05 0)
(1.90386e-05 1.37969e-05 0)
(1.93764e-05 1.4171e-05 0)
(1.9716e-05 1.45497e-05 0)
(2.00574e-05 1.49332e-05 0)
(2.04004e-05 1.53216e-05 0)
(2.07446e-05 1.57148e-05 0)
(2.10897e-05 1.6113e-05 0)
(2.14348e-05 1.65159e-05 0)
(1.42161e-05 9.10622e-06 0)
(1.45643e-05 9.48351e-06 0)
(1.49145e-05 9.85538e-06 0)
(1.52619e-05 1.02213e-05 0)
(1.56097e-05 1.0585e-05 0)
(1.59566e-05 1.09469e-05 0)
(1.63038e-05 1.13088e-05 0)
(1.6651e-05 1.16715e-05 0)
(1.69987e-05 1.20361e-05 0)
(1.7347e-05 1.24032e-05 0)
(1.76961e-05 1.27734e-05 0)
(1.8046e-05 1.31473e-05 0)
(1.8397e-05 1.35253e-05 0)
(1.87489e-05 1.39078e-05 0)
(1.9102e-05 1.4295e-05 0)
(1.94561e-05 1.46873e-05 0)
(1.98113e-05 1.50848e-05 0)
(2.01673e-05 1.54879e-05 0)
(2.05239e-05 1.58968e-05 0)
(2.08803e-05 1.63117e-05 0)
(1.31962e-05 8.64523e-06 0)
(1.35918e-05 9.04055e-06 0)
(1.39861e-05 9.43075e-06 0)
(1.43728e-05 9.8131e-06 0)
(1.47568e-05 1.01925e-05 0)
(1.51361e-05 1.0569e-05 0)
(1.5513e-05 1.09447e-05 0)
(1.58871e-05 1.13204e-05 0)
(1.62593e-05 1.16974e-05 0)
(1.663e-05 1.20764e-05 0)
(1.69997e-05 1.24582e-05 0)
(1.73686e-05 1.28433e-05 0)
(1.7737e-05 1.32322e-05 0)
(1.81053e-05 1.36256e-05 0)
(1.84737e-05 1.40237e-05 0)
(1.88424e-05 1.44269e-05 0)
(1.92114e-05 1.48357e-05 0)
(1.95807e-05 1.52505e-05 0)
(1.99503e-05 1.5672e-05 0)
(2.03197e-05 1.61005e-05 0)
(1.21395e-05 8.1159e-06 0)
(1.25838e-05 8.5347e-06 0)
(1.30244e-05 8.94858e-06 0)
(1.34524e-05 9.3524e-06 0)
(1.38746e-05 9.75201e-06 0)
(1.42887e-05 1.01473e-05 0)
(1.46973e-05 1.05407e-05 0)
(1.51004e-05 1.09332e-05 0)
(1.54993e-05 1.1326e-05 0)
(1.58944e-05 1.17201e-05 0)
(1.62865e-05 1.21164e-05 0)
(1.66761e-05 1.25155e-05 0)
(1.70637e-05 1.29181e-05 0)
(1.74499e-05 1.33247e-05 0)
(1.7835e-05 1.3736e-05 0)
(1.82194e-05 1.41523e-05 0)
(1.86035e-05 1.45743e-05 0)
(1.89873e-05 1.50026e-05 0)
(1.9371e-05 1.54382e-05 0)
(1.97545e-05 1.58815e-05 0)
(1.10606e-05 7.52336e-06 0)
(1.15538e-05 7.9707e-06 0)
(1.20412e-05 8.41256e-06 0)
(1.25115e-05 8.84243e-06 0)
(1.29729e-05 9.26628e-06 0)
(1.34231e-05 9.6845e-06 0)
(1.38649e-05 1.00993e-05 0)
(1.42986e-05 1.0512e-05 0)
(1.47255e-05 1.09239e-05 0)
(1.51465e-05 1.13362e-05 0)
(1.55624e-05 1.17498e-05 0)
(1.5974e-05 1.21656e-05 0)
(1.6382e-05 1.25843e-05 0)
(1.67871e-05 1.30066e-05 0)
(1.71899e-05 1.3433e-05 0)
(1.7591e-05 1.38644e-05 0)
(1.79908e-05 1.43013e-05 0)
(1.83899e-05 1.47445e-05 0)
(1.87884e-05 1.51954e-05 0)
(1.91868e-05 1.56542e-05 0)
(9.97509e-06 6.87338e-06 0)
(1.05159e-05 7.35451e-06 0)
(1.1049e-05 7.82761e-06 0)
(1.1562e-05 8.28774e-06 0)
(1.20625e-05 8.73915e-06 0)
(1.25493e-05 9.18351e-06 0)
(1.30247e-05 9.62278e-06 0)
(1.34896e-05 1.00587e-05 0)
(1.39452e-05 1.04926e-05 0)
(1.43927e-05 1.09259e-05 0)
(1.48331e-05 1.13596e-05 0)
(1.52674e-05 1.17946e-05 0)
(1.56965e-05 1.22318e-05 0)
(1.61212e-05 1.2672e-05 0)
(1.65423e-05 1.31158e-05 0)
(1.69605e-05 1.35641e-05 0)
(1.73766e-05 1.40175e-05 0)
(1.77913e-05 1.4477e-05 0)
(1.8205e-05 1.4944e-05 0)
(1.86187e-05 1.54189e-05 0)
(8.89527e-06 6.17606e-06 0)
(9.48148e-06 6.69424e-06 0)
(1.00556e-05 7.19952e-06 0)
(1.06103e-05 7.69293e-06 0)
(1.11494e-05 8.17537e-06 0)
(1.1673e-05 8.64922e-06 0)
(1.21826e-05 9.11621e-06 0)
(1.26793e-05 9.57821e-06 0)
(1.31644e-05 1.00368e-05 0)
(1.36391e-05 1.04935e-05 0)
(1.41046e-05 1.09495e-05 0)
(1.4562e-05 1.14059e-05 0)
(1.50125e-05 1.18637e-05 0)
(1.5457e-05 1.23236e-05 0)
(1.58965e-05 1.27865e-05 0)
(1.6332e-05 1.32532e-05 0)
(1.67644e-05 1.37245e-05 0)
(1.71947e-05 1.42013e-05 0)
(1.76236e-05 1.4685e-05 0)
(1.80526e-05 1.51762e-05 0)
(8.06099e-06 5.65433e-06 0)
(8.67266e-06 6.19925e-06 0)
(9.26854e-06 6.72259e-06 0)
(9.84607e-06 7.23493e-06 0)
(1.04072e-05 7.73628e-06 0)
(1.09521e-05 8.22888e-06 0)
(1.14821e-05 8.71434e-06 0)
(1.19981e-05 9.1943e-06 0)
(1.25013e-05 9.67026e-06 0)
(1.29929e-05 1.01435e-05 0)
(1.3474e-05 1.06154e-05 0)
(1.39459e-05 1.10867e-05 0)
(1.44095e-05 1.15586e-05 0)
(1.48662e-05 1.20318e-05 0)
(1.53168e-05 1.25071e-05 0)
(1.57625e-05 1.29851e-05 0)
(1.62044e-05 1.34669e-05 0)
(1.66435e-05 1.3953e-05 0)
(1.70809e-05 1.44447e-05 0)
(1.75185e-05 1.49426e-05 0)
(7.50363e-06 5.34395e-06 0)
(8.1155e-06 5.8886e-06 0)
(8.71197e-06 6.41592e-06 0)
(9.29163e-06 6.93387e-06 0)
(9.85587e-06 7.44228e-06 0)
(1.04046e-05 7.94268e-06 0)
(1.09389e-05 8.43639e-06 0)
(1.14594e-05 8.92469e-06 0)
(1.19672e-05 9.40883e-06 0)
(1.24632e-05 9.88992e-06 0)
(1.29485e-05 1.0369e-05 0)
(1.34242e-05 1.0847e-05 0)
(1.38913e-05 1.13247e-05 0)
(1.4351e-05 1.18029e-05 0)
(1.48043e-05 1.22822e-05 0)
(1.52523e-05 1.27633e-05 0)
(1.56961e-05 1.32468e-05 0)
(1.61369e-05 1.37335e-05 0)
(1.65759e-05 1.42242e-05 0)
(1.70151e-05 1.47194e-05 0)
(7.01043e-06 5.04656e-06 0)
(7.61138e-06 5.58924e-06 0)
(8.20191e-06 6.11781e-06 0)
(8.7773e-06 6.63912e-06 0)
(9.33945e-06 7.15256e-06 0)
(9.88733e-06 7.65912e-06 0)
(1.04219e-05 8.15976e-06 0)
(1.09433e-05 8.65538e-06 0)
(1.14526e-05 9.14694e-06 0)
(1.19504e-05 9.63532e-06 0)
(1.24376e-05 1.01213e-05 0)
(1.29152e-05 1.06057e-05 0)
(1.33842e-05 1.10892e-05 0)
(1.38456e-05 1.15723e-05 0)
(1.43005e-05 1.20556e-05 0)
(1.47499e-05 1.25396e-05 0)
(1.51949e-05 1.30249e-05 0)
(1.56369e-05 1.35119e-05 0)
(1.60768e-05 1.40013e-05 0)
(1.65173e-05 1.44931e-05 0)
(6.56754e-06 4.76108e-06 0)
(7.15405e-06 5.29904e-06 0)
(7.73402e-06 5.82679e-06 0)
(8.3009e-06 6.3499e-06 0)
(8.85681e-06 6.86706e-06 0)
(9.40002e-06 7.37874e-06 0)
(9.9313e-06 7.88542e-06 0)
(1.04506e-05 8.38763e-06 0)
(1.09584e-05 8.88602e-06 0)
(1.14555e-05 9.38118e-06 0)
(1.19424e-05 9.87373e-06 0)
(1.24201e-05 1.03642e-05 0)
(1.28893e-05 1.08532e-05 0)
(1.33511e-05 1.1341e-05 0)
(1.38064e-05 1.18282e-05 0)
(1.42563e-05 1.2315e-05 0)
(1.47018e-05 1.28018e-05 0)
(1.51443e-05 1.3289e-05 0)
(1.55848e-05 1.37767e-05 0)
(1.60259e-05 1.42651e-05 0)
(6.17018e-06 4.49026e-06 0)
(6.73888e-06 5.02184e-06 0)
(7.3045e-06 5.54705e-06 0)
(7.85925e-06 6.0702e-06 0)
(8.40543e-06 6.58945e-06 0)
(8.94071e-06 7.10478e-06 0)
(9.4657e-06 7.61623e-06 0)
(9.97998e-06 8.12395e-06 0)
(1.0484e-05 8.62825e-06 0)
(1.0978e-05 9.12945e-06 0)
(1.14627e-05 9.62792e-06 0)
(1.19387e-05 1.0124e-05 0)
(1.24068e-05 1.0618e-05 0)
(1.28677e-05 1.11103e-05 0)
(1.33224e-05 1.16011e-05 0)
(1.37719e-05 1.20905e-05 0)
(1.42172e-05 1.25787e-05 0)
(1.46593e-05 1.30659e-05 0)
(1.51002e-05 1.35517e-05 0)
(1.55415e-05 1.40363e-05 0)
(5.811e-06 4.23404e-06 0)
(6.35998e-06 4.75774e-06 0)
(6.90874e-06 5.27893e-06 0)
(7.44882e-06 5.80067e-06 0)
(7.98259e-06 6.32063e-06 0)
(8.50734e-06 6.83838e-06 0)
(9.02352e-06 7.35346e-06 0)
(9.53044e-06 7.86568e-06 0)
(1.00284e-05 8.37499e-06 0)
(1.05175e-05 8.88145e-06 0)
(1.09981e-05 9.38517e-06 0)
(1.14709e-05 9.88628e-06 0)
(1.19364e-05 1.03849e-05 0)
(1.23953e-05 1.08812e-05 0)
(1.28484e-05 1.13752e-05 0)
(1.32967e-05 1.1867e-05 0)
(1.37411e-05 1.23564e-05 0)
(1.41828e-05 1.28433e-05 0)
(1.46227e-05 1.33273e-05 0)
(1.50633e-05 1.38083e-05 0)
(5.48395e-06 3.99249e-06 0)
(6.01199e-06 4.50744e-06 0)
(6.54208e-06 5.02353e-06 0)
(7.06561e-06 5.54264e-06 0)
(7.58491e-06 6.06209e-06 0)
(8.09706e-06 6.58105e-06 0)
(8.60238e-06 7.09863e-06 0)
(9.1e-06 7.61429e-06 0)
(9.59005e-06 8.12766e-06 0)
(1.00725e-05 8.63852e-06 0)
(1.05476e-05 9.14672e-06 0)
(1.10157e-05 9.65219e-06 0)
(1.14774e-05 1.01549e-05 0)
(1.19333e-05 1.06547e-05 0)
(1.2384e-05 1.11515e-05 0)
(1.28304e-05 1.16453e-05 0)
(1.32732e-05 1.21357e-05 0)
(1.37137e-05 1.26224e-05 0)
(1.41526e-05 1.31046e-05 0)
(1.4592e-05 1.3582e-05 0)
(5.18301e-06 3.76497e-06 0)
(5.68948e-06 4.27064e-06 0)
(6.1998e-06 4.78085e-06 0)
(6.70551e-06 5.29642e-06 0)
(7.20884e-06 5.81437e-06 0)
(7.70682e-06 6.33352e-06 0)
(8.19969e-06 6.85259e-06 0)
(8.68644e-06 7.37072e-06 0)
(9.16708e-06 7.88723e-06 0)
(9.64143e-06 8.40163e-06 0)
(1.01097e-05 8.91354e-06 0)
(1.0572e-05 9.42266e-06 0)
(1.10289e-05 9.92874e-06 0)
(1.14809e-05 1.04316e-05 0)
(1.19284e-05 1.09309e-05 0)
(1.23722e-05 1.14263e-05 0)
(1.28129e-05 1.19175e-05 0)
(1.32517e-05 1.24038e-05 0)
(1.36891e-05 1.28843e-05 0)
(1.41269e-05 1.33586e-05 0)
(4.90275e-06 3.55069e-06 0)
(5.38741e-06 4.04699e-06 0)
(5.87728e-06 4.55088e-06 0)
(6.36431e-06 5.06224e-06 0)
(6.85061e-06 5.57792e-06 0)
(7.33329e-06 6.0964e-06 0)
(7.81248e-06 6.61606e-06 0)
(8.28714e-06 7.13575e-06 0)
(8.75717e-06 7.65452e-06 0)
(9.22231e-06 8.17162e-06 0)
(9.68263e-06 8.68643e-06 0)
(1.01383e-05 9.19848e-06 0)
(1.05895e-05 9.70733e-06 0)
(1.10367e-05 1.02126e-05 0)
(1.14803e-05 1.07138e-05 0)
(1.1921e-05 1.12106e-05 0)
(1.23592e-05 1.17023e-05 0)
(1.27958e-05 1.21884e-05 0)
(1.32313e-05 1.26675e-05 0)
(1.36672e-05 1.3139e-05 0)
(4.63812e-06 3.34877e-06 0)
(5.10094e-06 3.83585e-06 0)
(5.57001e-06 4.33323e-06 0)
(6.03784e-06 4.83999e-06 0)
(6.5064e-06 5.35283e-06 0)
(6.97296e-06 5.86995e-06 0)
(7.43759e-06 6.38943e-06 0)
(7.89925e-06 6.90988e-06 0)
(8.35778e-06 7.43008e-06 0)
(8.81283e-06 7.94907e-06 0)
(9.2644e-06 8.46602e-06 0)
(9.71253e-06 8.98027e-06 0)
(1.01574e-05 9.49122e-06 0)
(1.05993e-05 9.99833e-06 0)
(1.10385e-05 1.05011e-05 0)
(1.14755e-05 1.09988e-05 0)
(1.19108e-05 1.1491e-05 0)
(1.23449e-05 1.19767e-05 0)
(1.27783e-05 1.24546e-05 0)
(1.32119e-05 1.29241e-05 0)
(4.38444e-06 3.15832e-06 0)
(4.82549e-06 3.63658e-06 0)
(5.27361e-06 4.1275e-06 0)
(5.72194e-06 4.62946e-06 0)
(6.17232e-06 5.13906e-06 0)
(6.62221e-06 5.65426e-06 0)
(7.07169e-06 6.17291e-06 0)
(7.51972e-06 6.6934e-06 0)
(7.96611e-06 7.21428e-06 0)
(8.41046e-06 7.73439e-06 0)
(8.85269e-06 8.25273e-06 0)
(9.29276e-06 8.76847e-06 0)
(9.73076e-06 9.28086e-06 0)
(1.01669e-05 9.78925e-06 0)
(1.06013e-05 1.0293e-05 0)
(1.10344e-05 1.07914e-05 0)
(1.14664e-05 1.12838e-05 0)
(1.18977e-05 1.17692e-05 0)
(1.23287e-05 1.22463e-05 0)
(1.27598e-05 1.27144e-05 0)
(4.1373e-06 2.97858e-06 0)
(4.55668e-06 3.44859e-06 0)
(4.9838e-06 3.93322e-06 0)
(5.41247e-06 4.43033e-06 0)
(5.84441e-06 4.93644e-06 0)
(6.27735e-06 5.4493e-06 0)
(6.71132e-06 5.96657e-06 0)
(7.14535e-06 6.48645e-06 0)
(7.57921e-06 7.00732e-06 0)
(8.01248e-06 7.52784e-06 0)
(8.44501e-06 8.04685e-06 0)
(8.87668e-06 8.56338e-06 0)
(9.3075e-06 9.07657e-06 0)
(9.73754e-06 9.58566e-06 0)
(1.01669e-05 1.00899e-05 0)
(1.05958e-05 1.05886e-05 0)
(1.10243e-05 1.1081e-05 0)
(1.14528e-05 1.15662e-05 0)
(1.18812e-05 1.20428e-05 0)
(1.23097e-05 1.25103e-05 0)
(3.89245e-06 2.80888e-06 0)
(4.2902e-06 3.27127e-06 0)
(4.6963e-06 3.74991e-06 0)
(5.10526e-06 4.24222e-06 0)
(5.51869e-06 4.74467e-06 0)
(5.93456e-06 5.25484e-06 0)
(6.35289e-06 5.77026e-06 0)
(6.77279e-06 6.28897e-06 0)
(7.19398e-06 6.80919e-06 0)
(7.61603e-06 7.32944e-06 0)
(8.03873e-06 7.84845e-06 0)
(8.46188e-06 8.36512e-06 0)
(8.8854e-06 8.87849e-06 0)
(9.30925e-06 9.38773e-06 0)
(9.73345e-06 9.89204e-06 0)
(1.0158e-05 1.03907e-05 0)
(1.05831e-05 1.08829e-05 0)
(1.10085e-05 1.13679e-05 0)
(1.14343e-05 1.18443e-05 0)
(1.18602e-05 1.23118e-05 0)
(3.64569e-06 2.64887e-06 0)
(4.02179e-06 3.10429e-06 0)
(4.40685e-06 3.57724e-06 0)
(4.79613e-06 4.06483e-06 0)
(5.19109e-06 4.56349e-06 0)
(5.58996e-06 5.07067e-06 0)
(5.99274e-06 5.5838e-06 0)
(6.3986e-06 6.10079e-06 0)
(6.80723e-06 6.61976e-06 0)
(7.21817e-06 7.13913e-06 0)
(7.63114e-06 7.65749e-06 0)
(8.04587e-06 8.17367e-06 0)
(8.46217e-06 8.68663e-06 0)
(8.87992e-06 9.19547e-06 0)
(9.29901e-06 9.69938e-06 0)
(9.71935e-06 1.01976e-05 0)
(1.01409e-05 1.06895e-05 0)
(1.05634e-05 1.11742e-05 0)
(1.09866e-05 1.16508e-05 0)
(1.141e-05 1.21188e-05 0)
(3.39268e-06 2.49806e-06 0)
(3.747e-06 2.94713e-06 0)
(4.11102e-06 3.4147e-06 0)
(4.48073e-06 3.89764e-06 0)
(4.8574e-06 4.39239e-06 0)
(5.23951e-06 4.8963e-06 0)
(5.62704e-06 5.40673e-06 0)
(6.01919e-06 5.92152e-06 0)
(6.41562e-06 6.43868e-06 0)
(6.81581e-06 6.95656e-06 0)
(7.21942e-06 7.47368e-06 0)
(7.62608e-06 7.98878e-06 0)
(8.03551e-06 8.50077e-06 0)
(8.44745e-06 9.00872e-06 0)
(8.86169e-06 9.51179e-06 0)
(9.278e-06 1.00093e-05 0)
(9.69618e-06 1.05005e-05 0)
(1.01159e-05 1.0985e-05 0)
(1.05367e-05 1.14618e-05 0)
(1.09578e-05 1.1931e-05 0)
(3.12896e-06 2.35679e-06 0)
(3.46133e-06 2.79994e-06 0)
(3.80431e-06 3.26227e-06 0)
(4.15461e-06 3.74053e-06 0)
(4.51332e-06 4.23115e-06 0)
(4.87913e-06 4.73144e-06 0)
(5.25192e-06 5.23871e-06 0)
(5.63095e-06 5.75075e-06 0)
(6.0158e-06 6.26553e-06 0)
(6.4059e-06 6.78133e-06 0)
(6.80079e-06 7.29661e-06 0)
(7.20001e-06 7.81008e-06 0)
(7.60316e-06 8.32058e-06 0)
(8.00983e-06 8.82716e-06 0)
(8.41969e-06 9.32899e-06 0)
(8.83239e-06 9.82539e-06 0)
(9.24757e-06 1.03158e-05 0)
(9.66476e-06 1.07998e-05 0)
(1.00835e-05 1.12771e-05 0)
(1.05026e-05 1.17476e-05 0)
(2.84949e-06 2.22429e-06 0)
(3.15968e-06 2.66187e-06 0)
(3.48167e-06 3.11904e-06 0)
(3.81291e-06 3.59253e-06 0)
(4.15418e-06 4.07877e-06 0)
(4.50435e-06 4.57508e-06 0)
(4.86322e-06 5.07875e-06 0)
(5.23002e-06 5.58756e-06 0)
(5.60422e-06 6.09942e-06 0)
(5.98519e-06 6.6126e-06 0)
(6.37233e-06 7.12553e-06 0)
(6.76506e-06 7.63686e-06 0)
(7.16283e-06 8.14543e-06 0)
(7.5651e-06 8.65025e-06 0)
(7.97136e-06 9.15049e-06 0)
(8.38111e-06 9.64551e-06 0)
(8.79386e-06 1.01349e-05 0)
(9.20902e-06 1.06183e-05 0)
(9.62598e-06 1.10958e-05 0)
(1.00436e-05 1.15679e-05 0)
(2.54925e-06 2.10233e-06 0)
(2.83707e-06 2.5342e-06 0)
(3.13826e-06 2.98586e-06 0)
(3.45093e-06 3.45412e-06 0)
(3.7755e-06 3.93544e-06 0)
(4.11099e-06 4.42715e-06 0)
(4.45702e-06 4.92657e-06 0)
(4.81276e-06 5.43147e-06 0)
(5.17758e-06 5.93977e-06 0)
(5.55069e-06 6.4497e-06 0)
(5.93138e-06 6.95968e-06 0)
(6.3189e-06 7.46835e-06 0)
(6.71253e-06 7.97452e-06 0)
(7.11157e-06 8.47719e-06 0)
(7.51532e-06 8.97554e-06 0)
(7.92311e-06 9.46896e-06 0)
(8.33427e-06 9.95705e-06 0)
(8.74807e-06 1.04397e-05 0)
(9.16382e-06 1.09173e-05 0)
(9.58039e-06 1.13907e-05 0)
(2.22123e-06 1.98797e-06 0)
(2.48664e-06 2.41403e-06 0)
(2.76747e-06 2.85992e-06 0)
(3.06239e-06 3.32258e-06 0)
(3.37141e-06 3.79856e-06 0)
(3.69355e-06 4.28522e-06 0)
(4.02824e-06 4.77991e-06 0)
(4.37455e-06 5.28041e-06 0)
(4.73166e-06 5.78467e-06 0)
(5.09865e-06 6.2909e-06 0)
(5.47462e-06 6.79753e-06 0)
(5.85867e-06 7.30317e-06 0)
(6.24987e-06 7.80664e-06 0)
(6.64734e-06 8.30692e-06 0)
(7.05018e-06 8.80319e-06 0)
(7.45747e-06 9.29485e-06 0)
(7.86835e-06 9.78156e-06 0)
(8.28188e-06 1.02633e-05 0)
(8.69723e-06 1.07407e-05 0)
(9.11333e-06 1.12149e-05 0)
(1.86142e-06 1.88748e-06 0)
(2.10456e-06 2.30636e-06 0)
(2.36579e-06 2.7451e-06 0)
(2.64404e-06 3.20086e-06 0)
(2.93891e-06 3.67024e-06 0)
(3.24932e-06 4.15067e-06 0)
(3.57445e-06 4.63953e-06 0)
(3.91319e-06 5.13461e-06 0)
(4.26454e-06 5.63389e-06 0)
(4.62737e-06 6.13558e-06 0)
(5.00062e-06 6.63812e-06 0)
(5.38317e-06 7.14012e-06 0)
(5.77391e-06 7.64039e-06 0)
(6.17174e-06 8.13792e-06 0)
(6.57554e-06 8.6319e-06 0)
(6.98415e-06 9.12172e-06 0)
(7.39643e-06 9.60706e-06 0)
(7.81115e-06 1.00879e-05 0)
(8.22727e-06 1.05649e-05 0)
(8.64355e-06 1.10393e-05 0)
(2.78513e-07 4.57337e-08 0)
(8.40129e-07 2.27879e-07 0)
(1.43649e-06 5.40469e-07 0)
(2.07785e-06 9.64779e-07 0)
(2.77743e-06 1.49127e-06 0)
(3.54014e-06 2.10269e-06 0)
(4.36883e-06 2.78029e-06 0)
(5.26136e-06 3.50413e-06 0)
(6.21405e-06 4.25387e-06 0)
(7.22028e-06 5.01274e-06 0)
(2.62031e-07 4.32284e-08 0)
(7.91228e-07 2.11107e-07 0)
(1.35204e-06 4.9798e-07 0)
(1.95234e-06 8.88634e-07 0)
(2.60413e-06 1.37616e-06 0)
(3.31194e-06 1.94641e-06 0)
(4.07896e-06 2.58344e-06 0)
(4.9035e-06 3.26993e-06 0)
(5.78185e-06 3.98651e-06 0)
(6.70774e-06 4.72001e-06 0)
(2.47226e-07 3.99995e-08 0)
(7.47348e-07 1.93713e-07 0)
(1.27668e-06 4.56571e-07 0)
(1.84061e-06 8.16033e-07 0)
(2.44979e-06 1.26711e-06 0)
(3.10806e-06 1.79804e-06 0)
(3.819e-06 2.39524e-06 0)
(4.58195e-06 3.04403e-06 0)
(5.39527e-06 3.727e-06 0)
(6.25287e-06 4.43485e-06 0)
(2.33678e-07 3.60452e-08 0)
(7.07342e-07 1.75858e-07 0)
(1.20878e-06 4.16982e-07 0)
(1.74117e-06 7.48805e-07 0)
(2.31397e-06 1.16768e-06 0)
(2.93009e-06 1.66364e-06 0)
(3.59291e-06 2.22471e-06 0)
(4.30159e-06 2.83801e-06 0)
(5.0559e-06 3.48718e-06 0)
(5.84901e-06 4.16438e-06 0)
(2.21018e-07 3.13679e-08 0)
(6.69984e-07 1.57019e-07 0)
(1.14578e-06 3.77509e-07 0)
(1.6496e-06 6.8368e-07 0)
(2.18987e-06 1.07284e-06 0)
(2.76861e-06 1.53639e-06 0)
(3.38916e-06 2.06376e-06 0)
(4.05046e-06 2.64368e-06 0)
(4.75362e-06 3.26128e-06 0)
(5.48994e-06 3.90875e-06 0)
(2.0913e-07 2.60687e-08 0)
(6.34934e-07 1.37354e-07 0)
(1.08706e-06 3.38356e-07 0)
(1.56496e-06 6.2101e-07 0)
(2.07616e-06 9.83268e-07 0)
(2.62176e-06 1.41751e-06 0)
(3.20492e-06 1.91414e-06 0)
(3.82406e-06 2.46292e-06 0)
(4.48159e-06 3.05042e-06 0)
(5.16747e-06 3.66835e-06 0)
(1.97779e-07 2.01497e-08 0)
(6.01468e-07 1.16652e-07 0)
(1.03124e-06 2.98789e-07 0)
(1.48503e-06 5.59342e-07 0)
(1.96962e-06 8.96714e-07 0)
(2.4853e-06 1.30403e-06 0)
(3.03508e-06 1.77251e-06 0)
(3.61687e-06 2.29268e-06 0)
(4.23396e-06 2.85246e-06 0)
(4.8753e-06 3.44269e-06 0)
(1.86873e-07 1.37039e-08 0)
(5.69303e-07 9.50243e-08 0)
(9.77771e-07 2.5884e-07 0)
(1.40889e-06 4.98605e-07 0)
(1.86878e-06 8.12996e-07 0)
(2.35703e-06 1.19564e-06 0)
(2.87648e-06 1.63839e-06 0)
(3.42462e-06 2.13223e-06 0)
(4.00533e-06 2.66634e-06 0)
(4.60718e-06 3.23082e-06 0)
(1.76281e-07 6.7468e-09 0)
(5.38047e-07 7.24093e-08 0)
(9.25912e-07 2.18206e-07 0)
(1.33535e-06 4.38154e-07 0)
(1.77192e-06 7.31092e-07 0)
(2.23461e-06 1.091e-06 0)
(2.72611e-06 1.51021e-06 0)
(3.24362e-06 1.98002e-06 0)
(3.79128e-06 2.49066e-06 0)
(4.35778e-06 3.03162e-06 0)
(1.65932e-07 -6.56833e-10 0)
(5.07483e-07 4.88572e-08 0)
(8.75205e-07 1.76858e-07 0)
(1.26366e-06 3.77849e-07 0)
(1.67783e-06 6.50702e-07 0)
(2.11626e-06 9.896e-07 0)
(2.5815e-06 1.38725e-06 0)
(3.07062e-06 1.83512e-06 0)
(3.58779e-06 2.3243e-06 0)
(4.12222e-06 2.84394e-06 0)
(1.55845e-07 -8.50667e-09 0)
(4.77553e-07 2.43772e-08 0)
(8.25247e-07 1.34689e-07 0)
(1.19308e-06 3.17406e-07 0)
(1.58538e-06 5.71362e-07 0)
(2.00037e-06 8.90803e-07 0)
(2.44047e-06 1.26869e-06 0)
(2.90278e-06 1.69659e-06 0)
(3.39134e-06 2.16627e-06 0)
(3.89616e-06 2.66673e-06 0)
(1.45859e-07 -1.68391e-08 0)
(4.47895e-07 -1.02975e-09 0)
(7.75704e-07 9.17073e-08 0)
(1.123e-06 2.56767e-07 0)
(1.49361e-06 4.92928e-07 0)
(1.88551e-06 7.94342e-07 0)
(2.30104e-06 1.15411e-06 0)
(2.73747e-06 1.56386e-06 0)
(3.19865e-06 2.01586e-06 0)
(3.67554e-06 2.49915e-06 0)
(1.3587e-07 -2.56717e-08 0)
(4.18345e-07 -2.74435e-08 0)
(7.26375e-07 4.78018e-08 0)
(1.05292e-06 1.95812e-07 0)
(1.40165e-06 4.15227e-07 0)
(1.77034e-06 6.99969e-07 0)
(2.16134e-06 1.04316e-06 0)
(2.57223e-06 1.43646e-06 0)
(3.00661e-06 1.87249e-06 0)
(3.45652e-06 2.34046e-06 0)
(1.2582e-07 -3.50698e-08 0)
(3.88882e-07 -5.49779e-08 0)
(6.77111e-07 2.97649e-09 0)
(9.8241e-07 1.34683e-07 0)
(1.30867e-06 3.38426e-07 0)
(1.65357e-06 6.07847e-07 0)
(2.01953e-06 9.3593e-07 0)
(2.4046e-06 1.31435e-06 0)
(2.81215e-06 1.736e-06 0)
(3.23535e-06 2.19035e-06 0)
(1.1579e-07 -4.51879e-08 0)
(3.59654e-07 -8.38822e-08 0)
(6.27755e-07 -4.29515e-08 0)
(9.11167e-07 7.33201e-08 0)
(1.21388e-06 2.62549e-07 0)
(1.53384e-06 5.17997e-07 0)
(1.87367e-06 8.32391e-07 0)
(2.232e-06 1.19742e-06 0)
(2.61203e-06 1.60615e-06 0)
(3.00811e-06 2.04843e-06 0)
(1.05859e-07 -5.6332e-08 0)
(3.30793e-07 -1.14358e-07 0)
(5.7839e-07 -8.98218e-08 0)
(8.38953e-07 1.23302e-08 0)
(1.11642e-06 1.88477e-07 0)
(1.40971e-06 4.31428e-07 0)
(1.72171e-06 7.33538e-07 0)
(2.05176e-06 1.08652e-06 0)
(2.40293e-06 1.48366e-06 0)
(2.77079e-06 1.91521e-06 0)
(9.65678e-08 -6.9068e-08 0)
(3.03681e-07 -1.47076e-07 0)
(5.29795e-07 -1.38135e-07 0)
(7.65707e-07 -4.85079e-08 0)
(1.01551e-06 1.16213e-07 0)
(1.27949e-06 3.48066e-07 0)
(1.56119e-06 6.3924e-07 0)
(1.86066e-06 9.81449e-07 0)
(2.18092e-06 1.36813e-06 0)
(2.51874e-06 1.79008e-06 0)
(8.90335e-08 -8.50704e-08 0)
(2.79834e-07 -1.82455e-07 0)
(4.82595e-07 -1.86566e-07 0)
(6.90739e-07 -1.06827e-07 0)
(9.09832e-07 4.86902e-08 0)
(1.14132e-06 2.71194e-07 0)
(1.38942e-06 5.5263e-07 0)
(1.65534e-06 8.8501e-07 0)
(1.94198e-06 1.26212e-06 0)
(2.2473e-06 1.67528e-06 0)
(8.91005e-08 -1.06388e-07 0)
(2.65309e-07 -2.21896e-07 0)
(4.40449e-07 -2.35991e-07 0)
(6.14934e-07 -1.63873e-07 0)
(7.97644e-07 -1.57871e-08 0)
(9.91892e-07 1.98713e-07 0)
(1.20263e-06 4.71574e-07 0)
(1.43114e-06 7.95005e-07 0)
(1.68045e-06 1.16308e-06 0)
(1.94987e-06 1.56791e-06 0)
(1.09123e-07 -1.42187e-07 0)
(2.6359e-07 -2.64649e-07 0)
(4.04502e-07 -2.79347e-07 0)
(5.3736e-07 -2.09735e-07 0)
(6.77388e-07 -6.6945e-08 0)
(8.28754e-07 1.40492e-07 0)
(9.97178e-07 4.05138e-07 0)
(1.18431e-06 7.19905e-07 0)
(1.39302e-06 1.0791e-06 0)
(1.62266e-06 1.47543e-06 0)
)
;

boundaryField
{
    left
    {
        type            fixedDisplacement;
        value           uniform (0 0 0);
    }
    right
    {
        type            solidTraction;
        tractionSeries  
{
        file            "$FOAM_CASE/constant/timeVsTraction";
        outOfBounds     clamp;
}
        pressure        uniform 0;
        secondOrder     false;
        setEffectiveTraction false;
        relaxationFactor 1;
        value           nonuniform List<vector> 
30
(
(2.32186e-05 1.72942e-05 -8.45346e-21)
(2.26848e-05 1.71024e-05 -8.50291e-21)
(2.21467e-05 1.69116e-05 -8.59996e-21)
(2.16029e-05 1.67186e-05 -8.74163e-21)
(2.10532e-05 1.65212e-05 -8.92751e-21)
(2.04985e-05 1.63176e-05 -9.15716e-21)
(1.99405e-05 1.61066e-05 -9.43014e-21)
(1.93809e-05 1.58878e-05 -9.74575e-21)
(1.88219e-05 1.5661e-05 -1.01032e-20)
(1.82656e-05 1.54269e-05 -1.05014e-20)
(1.77375e-05 1.51968e-05 -1.07208e-20)
(1.7235e-05 1.49707e-05 -1.07089e-20)
(1.67377e-05 1.47414e-05 -1.07015e-20)
(1.62466e-05 1.45099e-05 -1.06986e-20)
(1.57622e-05 1.42778e-05 -1.07007e-20)
(1.52837e-05 1.40465e-05 -1.07074e-20)
(1.48119e-05 1.38171e-05 -1.07181e-20)
(1.4346e-05 1.35909e-05 -1.07326e-20)
(1.38852e-05 1.33691e-05 -1.075e-20)
(1.34287e-05 1.31524e-05 -1.07697e-20)
(1.29754e-05 1.29416e-05 -1.07908e-20)
(1.25239e-05 1.27369e-05 -1.08124e-20)
(1.20731e-05 1.25387e-05 -1.08335e-20)
(1.16216e-05 1.23466e-05 -1.08532e-20)
(1.11682e-05 1.21601e-05 -1.08705e-20)
(1.07121e-05 1.19786e-05 -1.08848e-20)