/*--------------------------------*- C++ -*----------------------------------*\
  =========                 |
  \\      /  F ield         | OpenFOAM: The Open Source CFD Toolbox
   \\    /   O peration     | Website:  https://openfoam.org
    \\  /    A nd           | Version:  9
     \\/     M anipulation  |
\*---------------------------------------------------------------------------*/
FoamFile
{
    format      ascii;
    class       volSymmTensorField;
    location    "15";
    object      epsilon;
}
// * * * * * * * * * * * * * * * * * * * * * * * * * * * * * * * * * * * * * //

dimensions      [0 0 0 0 0 0 0];

internalField   nonuniform List<symmTensor> 
1000
(
(6.10856e-06 -7.97822e-06 7.34777e-19 1.42719e-06 8.0915e-19 2.20366e-33)
(8.67226e-06 -6.15692e-06 -1.33171e-20 -1.54657e-06 7.80453e-21 0)
(9.9376e-06 -4.69583e-06 1.5389e-20 -2.97564e-06 -3.13004e-21 0)
(1.0651e-05 -3.60174e-06 3.94863e-21 -3.95979e-06 -2.93904e-21 0)
(1.10004e-05 -2.72312e-06 -1.66744e-20 -4.50086e-06 1.35329e-21 0)
(1.11303e-05 -2.03591e-06 -1.79691e-21 -4.84396e-06 2.05328e-21 0)
(1.1133e-05 -1.47743e-06 -1.51962e-20 -5.02718e-06 -8.27535e-21 0)
(1.10439e-05 -1.03277e-06 1.04342e-20 -5.11849e-06 4.9249e-21 0)
(1.09225e-05 -6.63208e-07 -5.41032e-21 -5.14915e-06 -6.2405e-21 0)
(1.07373e-05 -3.54971e-07 0 -5.14919e-06 0 0)
(8.35116e-06 -8.92226e-06 6.56365e-19 5.90127e-07 8.48667e-19 1.15027e-34)
(1.03577e-05 -6.35679e-06 0 -2.13077e-06 0 0)
(1.12586e-05 -4.49473e-06 1.22773e-20 -3.32799e-06 6.05999e-21 0)
(1.16813e-05 -3.18225e-06 -2.11092e-20 -4.15791e-06 -1.15783e-20 0)
(1.18078e-05 -2.17834e-06 -8.98582e-21 -4.57084e-06 -5.54619e-21 0)
(1.17597e-05 -1.42875e-06 6.26121e-21 -4.825e-06 6.55007e-21 0)
(1.16177e-05 -8.42362e-07 7.02314e-21 -4.93655e-06 4.78077e-21 0)
(1.14149e-05 -3.96265e-07 1.65287e-20 -4.98402e-06 9.73529e-21 0)
(1.11823e-05 -3.45321e-08 0 -4.96381e-06 0 0)
(1.09319e-05 2.54438e-07 0 -4.96751e-06 0 0)
(1.09812e-05 -9.61013e-06 5.77384e-19 -5.35845e-07 8.64114e-19 0)
(1.21374e-05 -6.35812e-06 0 -2.7887e-06 0 0)
(1.25279e-05 -4.16821e-06 1.17035e-20 -3.62112e-06 6.28664e-21 0)
(1.25865e-05 -2.67705e-06 -3.56407e-21 -4.22551e-06 1.37237e-21 0)
(1.24491e-05 -1.58031e-06 -1.74571e-22 -4.47369e-06 8.39002e-23 0)
(1.21975e-05 -7.93094e-07 -5.82803e-21 -4.61567e-06 -6.2334e-21 0)
(1.18966e-05 -2.00552e-07 8.00412e-21 -4.64244e-06 3.70209e-21 0)
(1.15694e-05 2.319e-07 -5.93801e-21 -4.63561e-06 -4.44921e-21 0)
(1.12333e-05 5.67828e-07 -4.84971e-22 -4.56843e-06 8.81094e-22 0)
(1.09059e-05 8.39942e-07 -1.25838e-21 -4.55811e-06 -5.25757e-22 0)
(1.36428e-05 -9.71056e-06 4.90059e-19 -2.04548e-06 8.87101e-19 -5.67452e-35)
(1.39479e-05 -6.12601e-06 6.80426e-21 -3.54283e-06 -8.86196e-22 0)
(1.3731e-05 -3.73562e-06 -5.34789e-21 -3.87892e-06 -3.15623e-21 0)
(1.33672e-05 -2.11984e-06 -3.46706e-21 -4.18403e-06 7.9427e-22 0)
(1.2926e-05 -9.70984e-07 6.05719e-21 -4.22765e-06 6.14485e-21 0)
(1.24493e-05 -1.74756e-07 -7.35174e-21 -4.23748e-06 -4.96712e-21 0)
(1.19798e-05 4.00576e-07 -6.35465e-21 -4.17376e-06 -4.60992e-21 0)
(1.1528e-05 8.03952e-07 -1.4172e-20 -4.11258e-06 -1.05301e-20 0)
(1.10941e-05 1.10007e-06 -2.0212e-21 -4.00823e-06 -2.57465e-21 0)
(1.06995e-05 1.33986e-06 3.4682e-21 -3.98094e-06 3.13464e-21 0)
(1.64313e-05 -9.30952e-06 4.48043e-19 -3.89499e-06 9.78492e-19 -1.14408e-33)
(1.5715e-05 -5.66041e-06 3.60125e-25 -4.27609e-06 5.64543e-27 0)
(1.48529e-05 -3.16138e-06 -1.73808e-20 -4.08238e-06 -8.86337e-21 0)
(1.40171e-05 -1.50402e-06 1.62094e-21 -4.03318e-06 -1.31235e-22 0)
(1.32356e-05 -3.68823e-07 -2.27257e-21 -3.84054e-06 3.57402e-22 0)
(1.25186e-05 3.90965e-07 5.24915e-21 -3.70475e-06 5.1181e-21 0)
(1.18777e-05 9.15349e-07 -6.08136e-22 -3.54996e-06 2.28964e-22 0)
(1.1306e-05 1.26679e-06 5.59163e-21 -3.43897e-06 3.77157e-21 0)
(1.07874e-05 1.50636e-06 -1.17558e-21 -3.31059e-06 -2.81544e-21 0)
(1.03349e-05 1.7002e-06 -2.20707e-21 -3.27207e-06 -1.82051e-21 0)
(1.9503e-05 -8.60355e-06 3.47925e-19 -5.8635e-06 9.7449e-19 -1.27299e-33)
(1.75009e-05 -4.94034e-06 3.31706e-25 -5.01269e-06 5.84527e-26 0)
(1.58648e-05 -2.43605e-06 -1.78276e-25 -4.16226e-06 -1.93832e-26 0)
(1.45087e-05 -8.53329e-07 1.43934e-21 -3.74305e-06 9.42307e-23 0)
(1.33693e-05 1.92074e-07 -7.51999e-21 -3.30615e-06 -4.73378e-21 0)
(1.2414e-05 8.59569e-07 8.84332e-23 -3.03516e-06 -8.71238e-24 0)
(1.16123e-05 1.29801e-06 5.59542e-21 -2.80354e-06 3.89382e-21 0)
(1.09352e-05 1.57532e-06 1.18836e-20 -2.65763e-06 8.9768e-21 0)
(1.03489e-05 1.74617e-06 2.15368e-21 -2.52205e-06 1.62132e-21 0)
(9.85228e-06 1.88428e-06 -3.75557e-21 -2.48131e-06 -3.07071e-21 0)
(2.21319e-05 -7.26706e-06 2.39676e-19 -7.54764e-06 7.88237e-19 -2.49319e-33)
(1.91142e-05 -3.81301e-06 5.16672e-21 -5.6697e-06 1.9139e-21 0)
(1.66649e-05 -1.54416e-06 5.32313e-21 -4.10345e-06 2.50272e-21 0)
(1.47835e-05 -1.94456e-07 -1.18428e-21 -3.30163e-06 -2.63834e-22 0)
(1.33085e-05 6.65579e-07 5.36679e-21 -2.64685e-06 3.92421e-21 0)
(1.21439e-05 1.18067e-06 -4.94991e-21 -2.26837e-06 -3.68306e-21 0)
(1.12131e-05 1.50017e-06 1.47147e-21 -1.98974e-06 -1.45802e-22 0)
(1.04577e-05 1.68622e-06 -4.44686e-21 -1.83156e-06 -3.02435e-21 0)
(9.82793e-06 1.78372e-06 -3.2007e-22 -1.70857e-06 1.31519e-22 0)
(9.30322e-06 1.86338e-06 -2.25781e-21 -1.67608e-06 -1.47976e-21 0)
(2.46313e-05 -5.33836e-06 1.20803e-19 -8.97888e-06 4.73942e-19 -7.53439e-35)
(2.03948e-05 -2.32109e-06 -1.35059e-20 -5.95946e-06 -4.8293e-21 0)
(1.71856e-05 -5.10697e-07 1.04894e-22 -3.78209e-06 5.11343e-23 0)
(1.48354e-05 4.21651e-07 1.73527e-21 -2.67773e-06 7.03056e-22 0)
(1.30838e-05 9.9455e-07 1.23396e-20 -1.88494e-06 6.46577e-21 0)
(1.17683e-05 1.30623e-06 -7.63637e-22 -1.46233e-06 -1.08138e-22 0)
(1.07553e-05 1.48795e-06 1.90166e-26 -1.18494e-06 -3.84961e-28 0)
(9.95752e-06 1.58125e-06 -4.34967e-21 -1.04526e-06 -2.33508e-21 0)
(9.31061e-06 1.61494e-06 1.10872e-22 -9.54601e-07 -3.65539e-23 0)
(8.77462e-06 1.64501e-06 3.29151e-22 -9.39403e-07 1.30321e-22 0)
(2.64329e-05 -2.30684e-06 1.16943e-20 -1.0119e-05 -1.32201e-20 -3.24352e-35)
(2.09602e-05 -3.49535e-07 -1.47768e-20 -5.62589e-06 -5.91123e-21 0)
(1.71479e-05 5.37742e-07 1.51898e-21 -3.03521e-06 1.23391e-21 0)
(1.44875e-05 8.3467e-07 1.50137e-21 -1.80793e-06 9.87493e-22 0)
(1.26447e-05 1.0479e-06 -6.27383e-22 -1.06058e-06 -2.76393e-22 0)
(1.12997e-05 1.13462e-06 4.79791e-21 -7.02501e-07 1.90699e-21 0)
(1.0289e-05 1.19188e-06 2.78501e-22 -4.93533e-07 4.15694e-24 0)
(9.49801e-06 1.21416e-06 7.75841e-21 -4.05226e-07 3.16578e-21 0)
(8.86162e-06 1.21196e-06 1.7121e-21 -3.59537e-07 7.13716e-22 0)
(8.32734e-06 1.21436e-06 9.46068e-22 -3.63572e-07 5.07064e-22 0)
(2.74078e-05 2.20726e-06 -4.70708e-21 -9.30171e-06 -3.30204e-19 -1.43882e-33)
(2.0352e-05 2.46992e-06 -1.06728e-21 -3.62864e-06 -1.8487e-21 0)
(1.64831e-05 1.54857e-06 5.15295e-21 -1.6308e-06 2.1372e-21 0)
(1.39367e-05 1.04354e-06 2.7214e-22 -7.15968e-07 3.29431e-22 0)
(1.22437e-05 8.63254e-07 9.40173e-27 -3.28151e-07 6.99845e-27 0)
(1.09861e-05 7.85886e-07 4.9026e-21 -1.54169e-07 9.76283e-22 0)
(1.00354e-05 7.74862e-07 8.15122e-23 -7.58159e-08 -3.51628e-24 0)
(9.2732e-06 7.76839e-07 3.75145e-21 -5.04303e-08 8.1706e-22 0)
(8.65194e-06 7.77034e-07 -4.53391e-23 -4.36006e-08 1.88916e-23 0)
(8.11544e-06 7.79179e-07 -6.46753e-23 -5.27051e-08 -4.99991e-24 0)
(-2.94273e-08 -2.33112e-09 2.58647e-20 1.95279e-08 2.99773e-20 1.65198e-34)
(7.75447e-09 -8.37257e-08 -3.01047e-22 2.59806e-08 2.51952e-20 1.52925e-36)
(2.70414e-07 -2.30276e-07 -3.65585e-21 -1.05842e-07 1.36878e-20 1.90113e-35)
(7.08347e-07 -3.51198e-07 -2.09342e-24 -3.09953e-07 1.73569e-20 0)
(1.22225e-06 -4.27551e-07 -4.2777e-22 -5.39698e-07 1.11499e-20 -1.48809e-36)
(1.76616e-06 -4.71015e-07 -5.02273e-21 -7.76667e-07 1.60908e-20 3.05707e-35)
(2.30092e-06 -4.88467e-07 1.05106e-21 -1.00655e-06 2.16332e-20 1.43382e-36)
(2.81397e-06 -4.88341e-07 -3.35855e-21 -1.22595e-06 1.78147e-20 2.67434e-35)
(3.29138e-06 -4.70616e-07 2.64117e-21 -1.42971e-06 1.77572e-20 -1.08114e-35)
(3.74388e-06 -4.52885e-07 5.10683e-21 -1.61549e-06 8.44091e-21 -1.56527e-35)
(5.16276e-08 -8.16112e-08 2.70362e-20 -1.18365e-08 7.60434e-21 4.56654e-35)
(3.11132e-07 -3.86562e-07 4.0265e-21 3.17958e-08 4.43661e-21 0)
(8.15372e-07 -7.48975e-07 -3.76324e-21 -1.805e-07 -3.80823e-21 0)
(1.39004e-06 -1.03441e-06 6.05375e-23 -4.77226e-07 -3.16617e-21 0)
(1.97157e-06 -1.21488e-06 0 -7.7583e-07 0 0)
(2.52458e-06 -1.31788e-06 -5.73409e-21 -1.05744e-06 -8.30832e-22 0)
(3.03724e-06 -1.35451e-06 9.03233e-22 -1.31219e-06 4.9492e-21 0)
(3.52101e-06 -1.34839e-06 6.88509e-23 -1.54274e-06 2.6558e-22 0)
(3.95049e-06 -1.30475e-06 -2.98646e-21 -1.7453e-06 -8.95218e-21 0)
(4.34613e-06 -1.26768e-06 2.24271e-21 -1.91562e-06 3.43946e-22 0)
(7.85803e-08 -3.48405e-07 3.25288e-20 1.05117e-07 6.34969e-21 -2.03024e-36)
(5.93305e-07 -9.68705e-07 4.09904e-21 7.07913e-08 4.38669e-21 0)
(1.32019e-06 -1.42386e-06 4.30415e-21 -2.63545e-07 8.97156e-22 0)
(2.04655e-06 -1.73745e-06 2.45704e-22 -6.92822e-07 -3.05489e-21 0)
(2.71945e-06 -1.91363e-06 0 -1.09472e-06 0 0)
(3.32166e-06 -1.99349e-06 -6.38407e-21 -1.45122e-06 -1.66693e-21 0)
(3.85277e-06 -1.99841e-06 -8.68737e-21 -1.75335e-06 -2.44312e-21 0)
(4.31874e-06 -1.95982e-06 5.72424e-21 -2.00687e-06 3.53584e-21 0)
(4.7036e-06 -1.88384e-06 3.45282e-23 -2.21145e-06 1.12747e-22 0)
(5.05891e-06 -1.81818e-06 -5.13397e-21 -2.37413e-06 -3.28004e-21 0)
(1.1352e-07 -7.73565e-07 6.09276e-20 4.1356e-07 1.29123e-20 -4.55727e-35)
(9.82955e-07 -1.67853e-06 1.03082e-21 1.11161e-07 -3.69771e-21 0)
(1.91697e-06 -2.16402e-06 4.71957e-21 -3.79706e-07 9.21329e-22 0)
(2.78252e-06 -2.44089e-06 0 -9.40208e-07 0 0)
(3.54715e-06 -2.55168e-06 -8.06808e-21 -1.43868e-06 3.04858e-21 0)
(4.19585e-06 -2.56445e-06 6.42845e-23 -1.86414e-06 7.48954e-21 0)
(4.73025e-06 -2.51317e-06 -3.9342e-22 -2.20722e-06 -4.01358e-21 0)
(5.17728e-06 -2.42531e-06 -1.15426e-21 -2.48154e-06 -6.18157e-21 0)
(5.5241e-06 -2.30687e-06 2.60156e-21 -2.69095e-06 8.59713e-22 0)
(5.84596e-06 -2.20596e-06 4.84988e-21 -2.8522e-06 1.85233e-21 0)
(2.15862e-07 -1.38097e-06 6.9044e-20 8.56409e-07 3.47746e-20 1.61519e-34)
(1.53684e-06 -2.45687e-06 -8.31219e-21 1.01327e-07 5.63678e-21 0)
(2.68283e-06 -2.8997e-06 -5.01284e-21 -6.04037e-07 -1.4862e-21 0)
(3.67785e-06 -3.07847e-06 -1.3918e-21 -1.31016e-06 5.50845e-21 0)
(4.5031e-06 -3.07979e-06 -5.41327e-23 -1.89429e-06 3.39036e-22 0)
(5.16312e-06 -3.00099e-06 7.6877e-21 -2.36876e-06 -2.09512e-21 0)
(5.68037e-06 -2.87364e-06 3.34309e-21 -2.73492e-06 8.96148e-22 0)
(6.09767e-06 -2.72119e-06 0 -3.01896e-06 0 0)
(6.40006e-06 -2.55216e-06 -3.59736e-21 -3.22542e-06 -4.76445e-21 0)
(6.68406e-06 -2.40834e-06 1.41635e-21 -3.37876e-06 3.53541e-22 0)
(4.54109e-07 -2.19019e-06 1.37481e-19 1.36763e-06 5.74906e-20 -3.12454e-34)
(2.27939e-06 -3.24641e-06 3.42345e-21 3.65742e-08 -6.68639e-21 0)
(3.63147e-06 -3.55333e-06 -4.10762e-21 -9.1677e-07 -4.53006e-21 0)
(4.7241e-06 -3.58551e-06 9.18094e-22 -1.7622e-06 -2.56287e-21 0)
(5.5686e-06 -3.46012e-06 8.70441e-21 -2.40854e-06 2.96861e-21 0)
(6.2069e-06 -3.27836e-06 -8.36614e-21 -2.90921e-06 9.42961e-22 0)
(6.68703e-06 -3.06679e-06 -7.60299e-24 -3.28258e-06 2.26262e-22 0)
(7.05742e-06 -2.84557e-06 -6.53996e-21 -3.56219e-06 -4.58067e-21 0)
(7.30544e-06 -2.62549e-06 1.4898e-23 -3.75662e-06 8.85767e-23 0)
(7.54275e-06 -2.43743e-06 -7.11201e-21 -3.89472e-06 -3.32051e-21 0)
(9.09604e-07 -3.19568e-06 2.60732e-19 1.83611e-06 1.38975e-19 -3.89389e-34)
(3.21603e-06 -4.00596e-06 1.88884e-22 -1.03797e-07 -2.88195e-22 0)
(4.74499e-06 -4.0793e-06 -1.37831e-25 -1.30578e-06 2.37409e-25 0)
(5.88474e-06 -3.92877e-06 -8.88341e-21 -2.27103e-06 -6.35694e-21 0)
(6.70692e-06 -3.66413e-06 -1.48951e-21 -2.9566e-06 4.11049e-21 0)
(7.29631e-06 -3.37196e-06 -8.12382e-21 -3.46447e-06 -3.38046e-21 0)
(7.71653e-06 -3.0765e-06 1.45982e-20 -3.82817e-06 6.65209e-21 0)
(8.02251e-06 -2.78862e-06 7.36994e-25 -4.08985e-06 1.77591e-22 0)
(8.20575e-06 -2.52172e-06 2.84835e-21 -4.26289e-06 -7.69767e-24 0)
(8.3852e-06 -2.29107e-06 -3.89092e-21 -4.37839e-06 -1.8907e-21 0)
(1.66478e-06 -4.35973e-06 4.15982e-19 2.16155e-06 2.59914e-19 -8.65552e-34)
(4.34015e-06 -4.70089e-06 4.84675e-21 -3.23787e-07 -5.87296e-21 0)
(5.97039e-06 -4.45702e-06 -1.85697e-21 -1.72992e-06 2.51697e-21 0)
(7.10626e-06 -4.09354e-06 1.12186e-21 -2.78182e-06 -1.795e-21 0)
(7.86762e-06 -3.67848e-06 9.88905e-26 -3.48053e-06 -2.01144e-25 0)
(8.3815e-06 -3.27717e-06 9.39023e-21 -3.97725e-06 8.1699e-22 0)
(8.7221e-06 -2.90334e-06 6.64069e-22 -4.31701e-06 -3.13168e-21 0)
(8.94821e-06 -2.55698e-06 -1.95838e-22 -4.54917e-06 2.57521e-21 0)
(9.05975e-06 -2.25198e-06 5.45669e-23 -4.69664e-06 1.28516e-21 0)
(9.16983e-06 -1.98437e-06 3.00091e-21 -4.78177e-06 2.83262e-21 0)
(2.77146e-06 -5.60411e-06 5.44613e-19 2.24094e-06 4.30726e-19 1.24712e-33)
(5.64377e-06 -5.3029e-06 -1.63688e-21 -6.36696e-07 1.08083e-20 0)
(7.26872e-06 -4.68041e-06 -1.78654e-25 -2.16448e-06 1.91979e-25 0)
(8.33584e-06 -4.08219e-06 1.2185e-20 -3.25588e-06 2.92912e-21 0)
(8.99981e-06 -3.51032e-06 9.3134e-21 -3.93746e-06 4.75598e-21 0)
(9.41157e-06 -3.0055e-06 8.40439e-21 -4.4039e-06 4.28569e-21 0)
(9.65474e-06 -2.56134e-06 -8.81344e-22 -4.70494e-06 2.69865e-21 0)
(9.78658e-06 -2.16878e-06 -1.01355e-20 -4.89977e-06 -5.76279e-21 0)
(9.82148e-06 -1.83521e-06 6.19491e-21 -5.01519e-06 1.49099e-21 0)
(9.85493e-06 -1.53731e-06 2.79523e-21 -5.07821e-06 1.6849e-21 0)
(4.2524e-06 -6.85731e-06 6.56315e-19 2.02059e-06 6.081e-19 1.8925e-34)
(7.08776e-06 -5.79735e-06 -3.12507e-21 -1.03261e-06 2.38436e-21 0)
(8.59927e-06 -4.75661e-06 -5.9798e-21 -2.57975e-06 -2.87275e-21 0)
(9.52603e-06 -3.91035e-06 2.59145e-20 -3.65311e-06 6.19809e-21 0)
(1.00534e-05 -3.1818e-06 1.57531e-22 -4.28447e-06 -1.8594e-22 0)
(1.03354e-05 -2.58074e-06 -8.27512e-21 -4.69921e-06 -4.79101e-21 0)
(1.04638e-05 -2.07632e-06 -8.83928e-21 -4.9489e-06 -1.39851e-21 0)
(1.04877e-05 -1.65066e-06 -3.34731e-21 -5.09305e-06 -2.03241e-21 0)
(1.04496e-05 -1.30607e-06 3.35789e-22 -5.18417e-06 -2.83633e-21 0)
(1.03796e-05 -1.0065e-06 1.70878e-21 -5.18831e-06 3.57456e-21 0)
(4.15241e-06 -4.13716e-07 3.90971e-21 -1.78783e-06 4.88788e-21 -7.98401e-38)
(4.50655e-06 -3.63054e-07 2.85989e-21 -1.93076e-06 -5.1673e-21 8.57896e-36)
(4.83182e-06 -3.18416e-07 -2.96969e-21 -2.06319e-06 -1.75571e-20 9.70505e-36)
(5.12318e-06 -2.77959e-07 -2.04476e-21 -2.18254e-06 -1.88853e-20 6.11179e-37)
(5.38539e-06 -2.40633e-07 -5.21968e-21 -2.28971e-06 -2.28743e-20 -4.62282e-35)
(5.61948e-06 -2.07216e-07 -8.40888e-22 -2.38589e-06 -2.54666e-20 0)
(5.82856e-06 -1.76745e-07 -9.07288e-22 -2.47168e-06 -2.91167e-20 0)
(6.01414e-06 -1.49349e-07 7.27557e-22 -2.54808e-06 -3.02905e-20 -9.11462e-37)
(6.17854e-06 -1.2442e-07 5.15975e-22 -2.61578e-06 -3.46818e-20 2.59617e-35)
(6.32314e-06 -1.01767e-07 2.56025e-21 -2.67547e-06 -3.35756e-20 -1.80659e-36)
(6.44955e-06 -8.09509e-08 3.53904e-21 -2.7277e-06 -3.82729e-20 8.9342e-35)
(6.5588e-06 -6.16928e-08 -2.40352e-21 -2.77295e-06 -4.24473e-20 -3.13773e-35)
(6.65184e-06 -4.3651e-08 3.68662e-21 -2.81157e-06 -4.17782e-20 9.83321e-35)
(6.72934e-06 -2.65818e-08 -6.40601e-21 -2.84384e-06 -5.13598e-20 2.03718e-36)
(6.79171e-06 -1.02788e-08 -3.56531e-22 -2.86993e-06 -4.43516e-20 -3.55982e-35)
(6.83951e-06 5.29224e-09 -6.28124e-22 -2.89004e-06 -4.67976e-20 8.58456e-45)
(6.87274e-06 1.99742e-08 -2.45039e-21 -2.90418e-06 -4.96146e-20 3.92311e-37)
(6.89281e-06 3.30312e-08 1.47819e-21 -2.91263e-06 -4.54931e-20 -2.83688e-37)
(6.89966e-06 4.30464e-08 5.49664e-22 -2.91518e-06 -5.06596e-20 1.1213e-34)
(6.89786e-06 4.57225e-08 -1.07635e-19 -2.91141e-06 -5.60395e-20 2.52697e-34)
(4.67109e-06 -1.17424e-06 5.44331e-21 -2.06629e-06 6.75843e-21 0)
(4.93017e-06 -1.05069e-06 3.53867e-21 -2.1725e-06 9.67338e-22 0)
(5.17747e-06 -9.40789e-07 2.66016e-22 -2.2695e-06 -1.54496e-21 0)
(5.39867e-06 -8.38246e-07 8.01797e-21 -2.35791e-06 7.2674e-21 0)
(5.602e-06 -7.42376e-07 -1.53664e-21 -2.43664e-06 -3.61565e-22 0)
(5.78509e-06 -6.55659e-07 -6.53997e-21 -2.50854e-06 -6.65919e-21 0)
(5.95135e-06 -5.7567e-07 3.31931e-21 -2.57287e-06 1.22965e-21 0)
(6.1006e-06 -5.03131e-07 0 -2.63106e-06 0 0)
(6.23482e-06 -4.3651e-07 1.57868e-21 -2.68316e-06 5.59292e-22 0)
(6.35446e-06 -3.75503e-07 3.24448e-21 -2.72986e-06 1.25167e-21 0)
(6.46076e-06 -3.19046e-07 9.73991e-21 -2.77139e-06 5.04914e-21 0)
(6.55431e-06 -2.66513e-07 4.42814e-23 -2.80809e-06 5.07624e-23 0)
(6.63587e-06 -2.17101e-07 1.24147e-21 -2.84016e-06 -1.00675e-21 0)
(6.70598e-06 -1.70253e-07 1.87202e-21 -2.8677e-06 2.14581e-21 0)
(6.76499e-06 -1.25519e-07 1.92003e-21 -2.89068e-06 2.20541e-21 0)
(6.81339e-06 -8.28647e-08 -1.9016e-21 -2.90889e-06 -2.19394e-21 0)
(6.85092e-06 -4.26635e-08 -1.91194e-21 -2.92177e-06 -2.21676e-21 0)
(6.87819e-06 -6.50481e-09 -3.8389e-21 -2.92825e-06 -4.47391e-21 0)
(6.89292e-06 2.35636e-08 -2.9011e-23 -2.92586e-06 -3.17426e-23 0)
(6.89616e-06 4.04262e-08 -9.94747e-20 -2.91067e-06 1.9265e-21 -2.18512e-34)
(5.30586e-06 -1.68347e-06 1.49616e-21 -2.49566e-06 2.06121e-21 0)
(5.46625e-06 -1.51976e-06 2.03179e-21 -2.55557e-06 7.33127e-22 0)
(5.63131e-06 -1.3716e-06 -4.74169e-21 -2.60392e-06 -5.99875e-21 0)
(5.77573e-06 -1.23376e-06 -4.12365e-22 -2.64903e-06 1.09441e-21 0)
(5.91402e-06 -1.1026e-06 8.6182e-21 -2.68712e-06 7.2217e-21 0)
(6.03926e-06 -9.83238e-07 -6.85205e-21 -2.72336e-06 -6.57577e-21 0)
(6.15644e-06 -8.71788e-07 -1.82808e-21 -2.75589e-06 -2.12352e-21 0)
(6.2632e-06 -7.69957e-07 3.49297e-21 -2.78652e-06 3.98486e-21 0)
(6.36163e-06 -6.75693e-07 -1.969e-23 -2.81482e-06 -2.5938e-21 0)
(6.4511e-06 -5.88913e-07 -3.69463e-21 -2.84134e-06 -4.16658e-21 0)
(6.53258e-06 -5.08327e-07 3.53944e-21 -2.86604e-06 3.97694e-21 0)
(6.60609e-06 -4.33275e-07 5.46801e-21 -2.88901e-06 6.14629e-21 0)
(6.67212e-06 -3.62806e-07 4.18143e-23 -2.9102e-06 4.6208e-23 0)
(6.73087e-06 -2.96254e-07 -1.87127e-21 -2.92942e-06 -2.1142e-21 0)
(6.78238e-06 -2.33022e-07 1.85193e-21 -2.94624e-06 2.10394e-21 0)
(6.82678e-06 -1.72876e-07 2.728e-28 -2.95989e-06 3.0418e-28 0)
(6.86303e-06 -1.15856e-07 -1.90683e-21 -2.96882e-06 -2.19077e-21 0)
(6.89089e-06 -6.27182e-08 2.77586e-22 -2.97066e-06 1.58792e-21 0)
(6.90539e-06 -1.4626e-08 -6.16985e-21 -2.96036e-06 -7.70362e-22 0)
(6.90714e-06 2.67955e-08 -9.85071e-20 -2.9327e-06 -1.39935e-21 -1.62634e-37)
(6.01886e-06 -2.03724e-06 0 -2.94853e-06 0 0)
(6.07964e-06 -1.85297e-06 2.16863e-21 -2.96751e-06 8.04177e-22 0)
(6.16343e-06 -1.68158e-06 1.71175e-21 -2.97152e-06 1.96414e-21 0)
(6.22944e-06 -1.52468e-06 1.8785e-21 -2.97754e-06 2.18172e-21 0)
(6.30065e-06 -1.37202e-06 0 -2.97719e-06 0 0)
(6.36463e-06 -1.23283e-06 2.33544e-22 -2.97901e-06 -1.09928e-21 0)
(6.42911e-06 -1.10111e-06 -5.57078e-21 -2.97995e-06 -3.4557e-21 0)
(6.48927e-06 -9.80001e-07 -3.57988e-21 -2.98253e-06 -3.90294e-21 0)
(6.54782e-06 -8.6697e-07 -1.9914e-21 -2.98602e-06 -9.29228e-22 0)
(6.60293e-06 -7.62364e-07 2.99798e-23 -2.99094e-06 2.50045e-21 0)
(6.65547e-06 -6.64827e-07 -1.72685e-21 -2.99707e-06 5.55597e-22 0)
(6.70481e-06 -5.7379e-07 3.65667e-21 -3.00433e-06 1.58158e-21 0)
(6.75112e-06 -4.88273e-07 3.44722e-21 -3.01243e-06 1.58761e-22 0)
(6.79416e-06 -4.07547e-07 1.06344e-22 -3.02092e-06 1.33685e-21 0)
(6.83355e-06 -3.30882e-07 1.72209e-22 -3.02903e-06 1.4162e-21 0)
(6.86895e-06 -2.57713e-07 -1.88653e-21 -3.03556e-06 -2.12571e-21 0)
(6.89864e-06 -1.87624e-07 -4.02707e-28 -3.03844e-06 -4.53729e-28 0)
(6.92199e-06 -1.20073e-07 4.04073e-21 -3.03481e-06 5.90306e-21 0)
(6.9327e-06 -5.53925e-08 -2.24814e-22 -3.01907e-06 -1.55558e-21 0)
(6.93233e-06 1.13221e-08 -1.07371e-19 -2.98607e-06 -9.76731e-21 3.13871e-34)
(6.78112e-06 -2.21346e-06 2.05775e-22 -3.44388e-06 2.74841e-21 0)
(6.74052e-06 -2.03069e-06 -2.35603e-21 -3.42206e-06 -1.0498e-21 0)
(6.74405e-06 -1.85104e-06 -5.95827e-21 -3.37925e-06 -4.9016e-21 0)
(6.731e-06 -1.69209e-06 3.91146e-21 -3.3457e-06 2.69423e-21 0)
(6.73508e-06 -1.53244e-06 1.01681e-20 -3.30555e-06 6.7587e-21 0)
(6.73636e-06 -1.38729e-06 -1.87959e-21 -3.27123e-06 -1.97247e-21 0)
(6.74656e-06 -1.24769e-06 0 -3.23862e-06 0 0)
(6.75786e-06 -1.11848e-06 1.82836e-21 -3.21076e-06 1.91053e-21 0)
(6.77398e-06 -9.96745e-07 -5.81578e-21 -3.18697e-06 -2.51943e-21 0)
(6.79191e-06 -8.83324e-07 -3.79227e-21 -3.1677e-06 -2.82013e-21 0)
(6.81247e-06 -7.76989e-07 1.69975e-22 -3.15272e-06 -2.18347e-21 0)
(6.83446e-06 -6.77341e-07 -1.94236e-21 -3.1418e-06 -3.26428e-21 0)
(6.85774e-06 -5.83481e-07 -1.30409e-22 -3.1345e-06 3.43649e-21 0)
(6.88164e-06 -4.94641e-07 3.7735e-21 -3.13017e-06 5.31172e-21 0)
(6.90544e-06 -4.09961e-07 1.80477e-21 -3.12784e-06 7.7444e-22 0)
(6.92841e-06 -3.28462e-07 -9.01946e-23 -3.12608e-06 -1.32729e-21 0)
(6.94846e-06 -2.4925e-07 3.49504e-21 -3.12263e-06 1.4425e-21 0)
(6.96477e-06 -1.70386e-07 1.71815e-21 -3.11464e-06 6.90906e-22 0)
(6.97095e-06 -9.18035e-08 7.09417e-21 -3.09686e-06 5.61535e-21 0)
(6.96913e-06 -3.15617e-09 -9.42242e-20 -3.06473e-06 3.80072e-21 -3.08832e-34)
(7.56254e-06 -2.22594e-06 1.41376e-21 -3.92649e-06 1.94271e-21 0)
(7.42071e-06 -2.06758e-06 3.45942e-23 -3.87079e-06 7.44093e-23 0)
(7.34756e-06 -1.89346e-06 -4.3014e-21 -3.78486e-06 -3.02026e-21 0)
(7.25662e-06 -1.74756e-06 -1.03359e-20 -3.71595e-06 -7.82198e-21 0)
(7.19567e-06 -1.59349e-06 4.0301e-21 -3.6399e-06 2.77971e-21 0)
(7.13503e-06 -1.45381e-06 3.81445e-21 -3.57214e-06 3.80624e-21 0)
(7.09133e-06 -1.31686e-06 -1.86769e-21 -3.50832e-06 -1.86646e-21 0)
(7.0535e-06 -1.18892e-06 -2.77826e-22 -3.45141e-06 8.35908e-22 0)
(7.02628e-06 -1.06711e-06 8.12123e-21 -3.4011e-06 4.89791e-21 0)
(7.00566e-06 -9.52591e-07 -5.46937e-21 -3.35774e-06 -5.60812e-21 0)
(6.99241e-06 -8.44469e-07 -1.94481e-21 -3.32122e-06 -2.01888e-21 0)
(6.98488e-06 -7.42496e-07 5.32726e-21 -3.29129e-06 7.87318e-21 0)
(6.9827e-06 -6.45956e-07 -7.61238e-21 -3.26754e-06 -2.28659e-21 0)
(6.98487e-06 -5.54084e-07 -5.49892e-21 -3.24929e-06 -5.8989e-21 0)
(6.99047e-06 -4.65966e-07 -7.48432e-24 -3.23558e-06 -1.1963e-21 0)
(6.99853e-06 -3.80275e-07 -7.36266e-21 -3.22505e-06 -5.66789e-21 0)
(7.00698e-06 -2.95764e-07 -5.37284e-23 -3.21567e-06 -5.06997e-23 0)
(7.01492e-06 -2.09318e-07 7.25208e-21 -3.20499e-06 6.94868e-21 0)
(7.01697e-06 -1.20764e-07 1.35357e-22 -3.18883e-06 1.44004e-21 0)
(7.01497e-06 -1.55396e-08 -9.46306e-20 -3.1634e-06 -1.16786e-21 2.21771e-36)
(8.32865e-06 -2.07537e-06 -1.48115e-21 -4.37439e-06 -1.90338e-21 0)
(8.09042e-06 -1.96622e-06 2.03165e-21 -4.29504e-06 1.87018e-21 0)
(7.94864e-06 -1.81196e-06 2.48605e-21 -4.1739e-06 1.32227e-21 0)
(7.78403e-06 -1.69331e-06 -1.98156e-21 -4.07469e-06 -1.87096e-21 0)
(7.66241e-06 -1.55805e-06 -4.64842e-21 -3.96839e-06 -2.36294e-21 0)
(7.54278e-06 -1.43459e-06 2.26811e-21 -3.86999e-06 1.14717e-21 0)
(7.44683e-06 -1.31044e-06 6.43525e-21 -3.77727e-06 4.19389e-21 0)
(7.36105e-06 -1.19219e-06 -1.03536e-20 -3.69253e-06 -7.03417e-21 0)
(7.29078e-06 -1.07795e-06 -6.38124e-21 -3.61648e-06 -4.25276e-21 0)
(7.23155e-06 -9.69043e-07 1.00138e-20 -3.54938e-06 6.85592e-21 0)
(7.1839e-06 -8.65209e-07 -4.067e-21 -3.49144e-06 -1.97015e-21 0)
(7.14598e-06 -7.66417e-07 5.43947e-21 -3.44244e-06 5.60207e-21 0)
(7.11713e-06 -6.72249e-07 5.81536e-21 -3.40206e-06 3.82573e-21 0)
(7.09622e-06 -5.82013e-07 -3.43602e-21 -3.36973e-06 -4.78407e-21 0)
(7.08218e-06 -4.94811e-07 -2.16938e-21 -3.34462e-06 1.17848e-21 0)
(7.07395e-06 -4.09085e-07 1.05286e-22 -3.32564e-06 9.76336e-23 0)
(7.06981e-06 -3.23369e-07 -8.98421e-21 -3.31123e-06 -7.51327e-21 0)
(7.06877e-06 -2.33706e-07 1.7913e-21 -3.29957e-06 2.01469e-21 0)
(7.06725e-06 -1.39995e-07 3.52997e-21 -3.28794e-06 2.76781e-21 0)
(7.06601e-06 -2.48797e-08 -9.60121e-20 -3.27351e-06 -1.88162e-21 9.00167e-37)
(9.04255e-06 -1.77196e-06 1.84964e-23 -4.74955e-06 6.07166e-23 0)
(8.71905e-06 -1.73653e-06 -2.10036e-21 -4.65955e-06 -1.86468e-21 0)
(8.52062e-06 -1.61766e-06 4.31922e-22 -4.51883e-06 -4.92545e-22 0)
(8.29048e-06 -1.53577e-06 0 -4.39554e-06 0 0)
(8.11452e-06 -1.43118e-06 0 -4.26899e-06 0 0)
(7.94282e-06 -1.33228e-06 -6.26616e-21 -4.14742e-06 -4.95535e-21 0)
(7.79882e-06 -1.23021e-06 5.58815e-21 -4.03254e-06 5.24648e-21 0)
(7.66889e-06 -1.12976e-06 1.17598e-20 -3.92509e-06 1.03381e-20 0)
(7.5576e-06 -1.03076e-06 -8.90386e-21 -3.8268e-06 -8.60733e-21 0)
(7.46107e-06 -9.34283e-07 -7.77921e-21 -3.73817e-06 -6.67996e-21 0)
(7.37942e-06 -8.4079e-07 3.59415e-21 -3.6599e-06 3.59691e-21 0)
(7.31098e-06 -7.50514e-07 -3.3375e-22 -3.59217e-06 7.15743e-22 0)
(7.25494e-06 -6.63428e-07 6.09318e-21 -3.53501e-06 3.04237e-21 0)
(7.21017e-06 -5.79061e-07 9.51736e-21 -3.48821e-06 6.64095e-21 0)
(7.17565e-06 -4.96679e-07 1.30297e-22 -3.45135e-06 1.1983e-22 0)
(7.15032e-06 -4.14696e-07 4.2632e-21 -3.42378e-06 -1.22989e-21 0)
(7.13306e-06 -3.31617e-07 0 -3.40467e-06 0 0)
(7.12278e-06 -2.43045e-07 -3.62565e-21 -3.39303e-06 -1.6036e-21 0)
(7.11825e-06 -1.49059e-07 1.74308e-21 -3.3878e-06 7.36797e-22 0)
(7.11857e-06 -3.08267e-08 -9.23275e-20 -3.3873e-06 -4.44309e-22 2.3672e-36)
(9.67569e-06 -1.34305e-06 -1.45107e-23 -5.02566e-06 -5.32344e-23 0)
(9.27819e-06 -1.39457e-06 2.59403e-21 -4.9343e-06 1.57191e-21 0)
(9.04086e-06 -1.33578e-06 -2.57999e-21 -4.80592e-06 -1.59269e-21 0)
(8.76018e-06 -1.29744e-06 -2.53827e-21 -4.66886e-06 -1.55065e-21 0)
(8.53528e-06 -1.23581e-06 6.97722e-21 -4.53027e-06 4.81632e-21 0)
(8.31915e-06 -1.16718e-06 4.9605e-21 -4.39028e-06 3.00085e-21 0)
(8.13121e-06 -1.092e-06 -6.59455e-21 -4.25636e-06 -4.4655e-21 0)
(7.96171e-06 -1.01303e-06 8.49638e-22 -4.12956e-06 -9.39755e-22 0)
(7.81298e-06 -9.32595e-07 1.50214e-21 -4.01222e-06 1.40341e-21 0)
(7.68222e-06 -8.51957e-07 -7.85709e-22 -3.90534e-06 1.10916e-21 0)
(7.56895e-06 -7.72271e-07 -6.67034e-21 -3.80976e-06 -3.69899e-21 0)
(7.47171e-06 -6.941e-07 6.00383e-23 -3.72598e-06 5.83345e-23 0)
(7.38964e-06 -6.17718e-07 -3.08433e-21 -3.65433e-06 -4.20948e-21 0)
(7.32164e-06 -5.42882e-07 -1.03488e-22 -3.59492e-06 -9.53593e-23 0)
(7.26695e-06 -4.69025e-07 3.88726e-21 -3.54781e-06 1.90549e-21 0)
(7.22457e-06 -3.9466e-07 -7.79092e-23 -3.5129e-06 -6.85221e-23 0)
(7.19419e-06 -3.18364e-07 4.78901e-21 -3.49024e-06 6.43732e-21 0)
(7.17462e-06 -2.35685e-07 -1.78667e-21 -3.47971e-06 -7.99567e-22 0)
(7.16732e-06 -1.46837e-07 -8.4254e-21 -3.48211e-06 -8.35169e-21 0)
(7.16933e-06 -3.28476e-08 -1.02169e-19 -3.49701e-06 -6.95399e-21 1.77118e-34)
(1.01812e-05 -7.93089e-07 -3.30974e-22 -5.19913e-06 -1.68408e-22 0)
(9.76801e-06 -9.02498e-07 -2.78495e-21 -5.08711e-06 -1.65957e-21 0)
(9.49729e-06 -9.29955e-07 2.26724e-21 -5.00006e-06 1.79766e-21 0)
(9.19744e-06 -9.41368e-07 -5.94501e-21 -4.87699e-06 -5.45754e-21 0)
(8.93288e-06 -9.3764e-07 -6.10661e-21 -4.74762e-06 -5.1218e-21 0)
(8.68251e-06 -9.15915e-07 3.62305e-21 -4.60816e-06 3.76447e-21 0)
(8.45516e-06 -8.8175e-07 3.15486e-21 -4.46673e-06 3.77688e-21 0)
(8.24843e-06 -8.3707e-07 5.47132e-21 -4.32774e-06 4.97057e-21 0)
(8.06337e-06 -7.85083e-07 -6.40199e-21 -4.19485e-06 -4.82558e-21 0)
(7.89876e-06 -7.28155e-07 1.72675e-23 -4.07087e-06 1.32822e-22 0)
(7.75404e-06 -6.68256e-07 -8.15981e-23 -3.95773e-06 -3.95918e-22 0)
(7.62806e-06 -6.06824e-07 -5.01278e-21 -3.85685e-06 -4.9376e-21 0)
(7.51994e-06 -5.44786e-07 0 -3.76922e-06 0 0)
(7.42865e-06 -4.82482e-07 -4.50569e-21 -3.69561e-06 -1.46747e-21 0)
(7.35361e-06 -4.19785e-07 -2.19227e-23 -3.63668e-06 -9.14426e-23 0)
(7.29392e-06 -3.55607e-07 -5.82342e-21 -3.59301e-06 -2.84542e-21 0)
(7.2501e-06 -2.88805e-07 1.60374e-21 -3.56562e-06 1.7012e-21 0)
(7.22091e-06 -2.15322e-07 3.66892e-21 -3.5554e-06 1.67642e-21 0)
(7.21071e-06 -1.35516e-07 4.53462e-23 -3.56512e-06 -4.24105e-24 0)
(7.21462e-06 -3.14442e-08 -1.00183e-19 -3.59572e-06 -3.08089e-21 7.4385e-37)
(1.04338e-05 -3.3742e-07 2.87831e-21 -5.20569e-06 2.55705e-21 0)
(1.00568e-05 -3.97111e-07 -2.65542e-21 -5.11056e-06 -1.68214e-21 0)
(9.76362e-06 -5.05624e-07 -1.54177e-21 -5.05186e-06 -1.29083e-21 0)
(9.46565e-06 -5.57636e-07 2.5494e-21 -4.95299e-06 1.57177e-21 0)
(9.18759e-06 -5.94365e-07 -5.02746e-21 -4.83575e-06 -2.30328e-21 0)
(8.92351e-06 -6.11214e-07 -3.39048e-21 -4.70609e-06 -1.61547e-21 0)
(8.67904e-06 -6.1243e-07 -4.23844e-21 -4.56942e-06 -3.10251e-21 0)
(8.45324e-06 -6.00696e-07 5.02673e-22 -4.43158e-06 -3.61807e-22 0)
(8.24797e-06 -5.78488e-07 8.55283e-21 -4.29673e-06 5.49975e-21 0)
(8.06265e-06 -5.48381e-07 -2.95248e-22 -4.16844e-06 -3.19759e-22 0)
(7.89742e-06 -5.12416e-07 4.56533e-21 -4.04934e-06 2.60608e-21 0)
(7.75156e-06 -4.72331e-07 -2.26191e-22 -3.94153e-06 -2.58175e-22 0)
(7.62464e-06 -4.29361e-07 1.67286e-35 -3.84667e-06 1.71235e-35 0)
(7.51594e-06 -3.8423e-07 -2.0043e-21 -3.76612e-06 -1.00315e-21 0)
(7.42531e-06 -3.37188e-07 1.95862e-21 -3.70123e-06 9.56549e-22 0)
(7.35209e-06 -2.87658e-07 -8.84901e-23 -3.65328e-06 -1.2865e-22 0)
(7.29763e-06 -2.34917e-07 3.04761e-22 -3.62423e-06 -8.44379e-22 0)
(7.26064e-06 -1.7588e-07 1.80687e-23 -3.61583e-06 5.98259e-23 0)
(7.24774e-06 -1.11076e-07 -1.78676e-23 -3.63259e-06 2.40929e-23 0)
(7.25242e-06 -2.51007e-08 -9.67379e-20 -3.67666e-06 -5.23981e-22 -8.60995e-37)
(1.02327e-05 1.09958e-07 2.67243e-21 -5.00559e-06 2.12907e-21 0)
(9.98306e-06 3.97853e-08 0 -5.037e-06 0 0)
(9.71792e-06 -9.25787e-08 -2.08622e-21 -4.99369e-06 -1.85168e-21 0)
(9.45271e-06 -1.7944e-07 2.72498e-35 -4.91981e-06 2.22114e-35 0)
(9.1984e-06 -2.47681e-07 6.23909e-36 -4.82035e-06 4.55525e-36 0)
(8.95244e-06 -2.96039e-07 2.95843e-35 -4.70557e-06 2.21492e-35 0)
(8.72087e-06 -3.27296e-07 4.53835e-35 -4.58095e-06 3.69317e-35 0)
(8.50328e-06 -3.44267e-07 -1.82547e-21 -4.45243e-06 -1.72346e-21 0)
(8.3023e-06 -3.49181e-07 0 -4.32444e-06 0 0)
(8.11807e-06 -3.4449e-07 1.74277e-21 -4.20084e-06 1.70202e-21 0)
(7.95145e-06 -3.32162e-07 -2.50126e-36 -4.08465e-06 -4.23374e-36 0)
(7.80238e-06 -3.13952e-07 -1.675e-21 -3.97838e-06 -1.69433e-21 0)
(7.67105e-06 -2.91178e-07 1.64681e-21 -3.88411e-06 1.69478e-21 0)
(7.55727e-06 -2.64767e-07 2.3622e-35 -3.80365e-06 1.73068e-35 0)
(7.46143e-06 -2.35179e-07 -1.6018e-21 -3.73883e-06 -1.70308e-21 0)
(7.38333e-06 -2.02358e-07 -1.41916e-35 -3.69147e-06 -1.32087e-35 0)
(7.32499e-06 -1.65861e-07 1.57252e-21 -3.66416e-06 1.72096e-21 0)
(7.2854e-06 -1.23875e-07 1.56402e-21 -3.65925e-06 1.7341e-21 0)
(7.27288e-06 -7.71823e-08 -1.68675e-35 -3.68258e-06 -1.4743e-35 0)