/*--------------------------------*- C++ -*----------------------------------*\
  =========                 |
  \\      /  F ield         | OpenFOAM: The Open Source CFD Toolbox
   \\    /   O peration     | Website:  https://openfoam.org
    \\  /    A nd           | Version:  9
     \\/     M anipulation  |
\*---------------------------------------------------------------------------*/
FoamFile
{
    format      ascii;
    class       volScalarField;
    location    "15";
    object      epsilonEq;
}
// * * * * * * * * * * * * * * * * * * * * * * * * * * * * * * * * * * * * * //

dimensions      [0 0 0 0 0 0 0];

internalField   nonuniform List<scalar> 
1000
(
9.92392e-06
9.53905e-06
9.50633e-06
9.66592e-06
9.73024e-06
9.74558e-06
9.70069e-06
9.61239e-06
9.50735e-06
9.36825e-06
1.16234e-05
1.06483e-05
1.02395e-05
1.01695e-05
1.0078e-05
9.98743e-06
9.86171e-06
9.71833e-06
9.54969e-06
9.39697e-06
1.33969e-05
1.1742e-05
1.09046e-05
1.05611e-05
1.02887e-05
1.00724e-05
9.85298e-06
9.64093e-06
9.4126e-06
9.22656e-06
1.49235e-05
1.28079e-05
1.15222e-05
1.08648e-05
1.03801e-05
1.00175e-05
9.69347e-06
9.4082e-06
9.12248e-06
8.90209e-06
1.64541e-05
1.38012e-05
1.20719e-05
1.10768e-05
1.03531e-05
9.82691e-06
9.38941e-06
9.02707e-06
8.68836e-06
8.43287e-06
1.82716e-05
1.47927e-05
1.25229e-05
1.11754e-05
1.01976e-05
9.50356e-06
8.95212e-06
8.51533e-06
8.12974e-06
7.8407e-06
1.96894e-05
1.56274e-05
1.28253e-05
1.11231e-05
9.90348e-06
9.05167e-06
8.39991e-06
7.8994e-06
7.47868e-06
7.16065e-06
2.10183e-05
1.61819e-05
1.29173e-05
1.09039e-05
9.48378e-06
8.51037e-06
7.78796e-06
7.24658e-06
6.80885e-06
6.47173e-06
2.19548e-05
1.61832e-05
1.25818e-05
1.03589e-05
8.88738e-06
7.88748e-06
7.16311e-06
6.62144e-06
6.1914e-06
5.84726e-06
2.21837e-05
1.51953e-05
1.17081e-05
9.61457e-06
8.33385e-06
7.43162e-06
6.77505e-06
6.26357e-06
5.85174e-06
5.50201e-06
2.85833e-08
9.78971e-08
3.47709e-07
7.26453e-07
1.15339e-06
1.59997e-06
2.03734e-06
2.45733e-06
2.8478e-06
3.21731e-06
1.01976e-07
4.88176e-07
1.05987e-06
1.63752e-06
2.15473e-06
2.61378e-06
3.01376e-06
3.37731e-06
3.6911e-06
3.98358e-06
4.07224e-07
1.17949e-06
1.91397e-06
2.59422e-06
3.16627e-06
3.6443e-06
4.03619e-06
4.36496e-06
4.62182e-06
4.86058e-06
9.26686e-07
2.03542e-06
2.87486e-06
3.59731e-06
4.1787e-06
4.64906e-06
5.01712e-06
5.31063e-06
5.52114e-06
5.7187e-06
1.6755e-06
3.00555e-06
3.91054e-06
4.64244e-06
5.2005e-06
5.63784e-06
5.96491e-06
6.21535e-06
6.3787e-06
6.53458e-06
2.65384e-06
4.04041e-06
4.95472e-06
5.66921e-06
6.18743e-06
6.57569e-06
6.85267e-06
7.05307e-06
7.16799e-06
7.28048e-06
3.83931e-06
5.11341e-06
5.97543e-06
6.64857e-06
7.11279e-06
7.44243e-06
7.66332e-06
7.80961e-06
7.87581e-06
7.94264e-06
5.20116e-06
6.20545e-06
6.94619e-06
7.55063e-06
7.94399e-06
8.20902e-06
8.37067e-06
8.46133e-06
8.48271e-06
8.5013e-06
6.6903e-06
7.30945e-06
7.85906e-06
8.35917e-06
8.66419e-06
8.85736e-06
8.95562e-06
8.99006e-06
8.96845e-06
8.94535e-06
8.29032e-06
8.41822e-06
8.70919e-06
9.06183e-06
9.25856e-06
9.36785e-06
9.3974e-06
9.36945e-06
9.31805e-06
9.22667e-06
3.55128e-06
3.83744e-06
4.10292e-06
4.34223e-06
4.55826e-06
4.75195e-06
4.92528e-06
5.07955e-06
5.21642e-06
5.33703e-06
5.44259e-06
5.53396e-06
5.61188e-06
5.67688e-06
5.7293e-06
5.76957e-06
5.79769e-06
5.81469e-06
5.82038e-06
5.81743e-06
4.20988e-06
4.37411e-06
4.53932e-06
4.69245e-06
4.83612e-06
4.96932e-06
5.09224e-06
5.20471e-06
5.30714e-06
5.39963e-06
5.4826e-06
5.55628e-06
5.62098e-06
5.67691e-06
5.72417e-06
5.76287e-06
5.79249e-06
5.81284e-06
5.82113e-06
5.81593e-06
4.99441e-06
5.04686e-06
5.11205e-06
5.17442e-06
5.23811e-06
5.30143e-06
5.36421e-06
5.42518e-06
5.48412e-06
5.54016e-06
5.59311e-06
5.6425e-06
5.68814e-06
5.72972e-06
5.76682e-06
5.79893e-06
5.82449e-06
5.84205e-06
5.84584e-06
5.83354e-06
5.77806e-06
5.73915e-06
5.71997e-06
5.70357e-06
5.69473e-06
5.69221e-06
5.69637e-06
5.70543e-06
5.71925e-06
5.73632e-06
5.75618e-06
5.7778e-06
5.80057e-06
5.82368e-06
5.84617e-06
5.86695e-06
5.88369e-06
5.89441e-06
5.89224e-06
5.87555e-06
6.52842e-06
6.41466e-06
6.32351e-06
6.24e-06
6.16789e-06
6.10608e-06
6.0562e-06
6.01585e-06
5.98563e-06
5.96359e-06
5.94936e-06
5.94155e-06
5.93934e-06
5.94156e-06
5.94686e-06
5.95381e-06
5.9597e-06
5.96243e-06
5.95532e-06
5.93745e-06
7.21628e-06
7.04268e-06
6.89208e-06
6.75257e-06
6.62775e-06
6.51484e-06
6.4179e-06
6.33331e-06
6.26274e-06
6.20391e-06
6.15673e-06
6.11971e-06
6.09199e-06
6.07228e-06
6.05916e-06
6.05107e-06
6.04549e-06
6.04043e-06
6.03052e-06
6.01512e-06
7.82748e-06
7.60845e-06
7.41257e-06
7.22691e-06
7.06008e-06
6.90362e-06
6.76604e-06
6.64211e-06
6.53494e-06
6.44215e-06
6.36401e-06
6.2991e-06
6.24664e-06
6.20537e-06
6.17398e-06
6.151e-06
6.13442e-06
6.12255e-06
6.11199e-06
6.10198e-06
8.34515e-06
8.09408e-06
7.87046e-06
7.64692e-06
7.44924e-06
7.25892e-06
7.08903e-06
6.93296e-06
6.79446e-06
6.6717e-06
6.56521e-06
6.47409e-06
6.39782e-06
6.33546e-06
6.28605e-06
6.24842e-06
6.2214e-06
6.20364e-06
6.19421e-06
6.19187e-06
8.76646e-06
8.48653e-06
8.26335e-06
8.01358e-06
7.79239e-06
7.57461e-06
7.37624e-06
7.19256e-06
7.02684e-06
6.87822e-06
6.74712e-06
6.63305e-06
6.5357e-06
6.45445e-06
6.38878e-06
6.33794e-06
6.30174e-06
6.27927e-06
6.27226e-06
6.27881e-06
9.08009e-06
8.77945e-06
8.57076e-06
8.32379e-06
8.09345e-06
7.86408e-06
7.64608e-06
7.44058e-06
7.25069e-06
7.0776e-06
6.92233e-06
6.78519e-06
6.66637e-06
6.56571e-06
6.48322e-06
6.41863e-06
6.37282e-06
6.34542e-06
6.34093e-06
6.35696e-06
9.20435e-06
8.92252e-06
8.7163e-06
8.48389e-06
8.25389e-06
8.02474e-06
7.80281e-06
7.59063e-06
7.39171e-06
7.2078e-06
7.04062e-06
6.89104e-06
6.75983e-06
6.64737e-06
6.55433e-06
6.48099e-06
6.42925e-06
6.39921e-06
6.39759e-06
6.42156e-06
8.9696e-06
8.82729e-06
8.63916e-06
8.43697e-06
8.22921e-06
8.0188e-06
7.81196e-06
7.61127e-06
7.42062e-06
7.24212e-06
7.07797e-06
6.92952e-06
6.79807e-06
6.6845e-06
6.59005e-06
6.51558e-06
6.46371e-06
6.43505e-06
6.43798e-06
6.46904e-06
8.77614e-06
8.66998e-06
8.52673e-06
8.35405e-06
8.17354e-06
7.98363e-06
7.79371e-06
7.60596e-06
7.42519e-06
7.25377e-06
7.09442e-06
6.94892e-06
6.81902e-06
6.70608e-06
6.61178e-06
6.5375e-06
6.48646e-06
6.45944e-06
6.46584e-06
6.5015e-06
8.54413e-06
8.48254e-06
8.37621e-06
8.2325e-06
8.07817e-06
7.90934e-06
7.73761e-06
7.56474e-06
7.39625e-06
7.23465e-06
7.08306e-06
6.94352e-06
6.81813e-06
6.70857e-06
6.61682e-06
6.54476e-06
6.49545e-06
6.47072e-06
6.48045e-06
6.51877e-06
8.27939e-06
8.253e-06
8.18118e-06
8.06769e-06
7.9412e-06
7.79603e-06
7.64508e-06
7.48982e-06
7.33635e-06
7.18733e-06
7.04621e-06
6.91529e-06
6.79689e-06
6.693e-06
6.60561e-06
6.53733e-06
6.48986e-06
6.46971e-06
6.4724e-06
6.51989e-06
7.99688e-06
8.00153e-06
7.96073e-06
7.87564e-06
7.7754e-06
7.65365e-06
7.52379e-06
7.38714e-06
7.25012e-06
7.11545e-06
6.98681e-06
6.8666e-06
6.75737e-06
6.66113e-06
6.58028e-06
6.51671e-06
6.4742e-06
6.4545e-06
6.46524e-06
6.50198e-06
7.70231e-06
7.73232e-06
7.71845e-06
7.65969e-06
7.58427e-06
7.48568e-06
7.37716e-06
7.25996e-06
7.14056e-06
7.0217e-06
6.90716e-06
6.79942e-06
6.70108e-06
6.61419e-06
6.54111e-06
6.48365e-06
6.44535e-06
6.42697e-06
6.43687e-06
6.47084e-06
7.40172e-06
7.45243e-06
7.46185e-06
7.42678e-06
7.37411e-06
7.29761e-06
7.20992e-06
7.11229e-06
7.01107e-06
6.90896e-06
6.80971e-06
6.71579e-06
6.62975e-06
6.55357e-06
6.48947e-06
6.43903e-06
6.40531e-06
6.38913e-06
6.39724e-06
6.42596e-06
7.09807e-06
7.16491e-06
7.19393e-06
7.17987e-06
7.14796e-06
7.09239e-06
7.02495e-06
6.94689e-06
6.86422e-06
6.77957e-06
6.69656e-06
6.61755e-06
6.545e-06
6.4807e-06
6.42665e-06
6.38414e-06
6.35563e-06
6.34151e-06
6.34738e-06
6.36977e-06
6.79276e-06
6.87199e-06
6.91741e-06
6.92188e-06
6.90889e-06
6.87305e-06
6.82519e-06
6.7665e-06
6.70257e-06
6.63588e-06
6.56983e-06
6.50663e-06
6.44851e-06
6.3971e-06
6.35405e-06
6.32034e-06
6.29766e-06
6.2861e-06
6.28941e-06
6.30448e-06
6.48544e-06
6.574e-06
6.63313e-06
6.65407e-06
6.65853e-06
6.64148e-06
6.61272e-06
6.57331e-06
6.52835e-06
6.48009e-06
6.43162e-06
6.38497e-06
6.34212e-06
6.30446e-06
6.27327e-06
6.24918e-06
6.23307e-06
6.22459e-06
6.22548e-06
6.23306e-06
6.1747e-06
6.27043e-06
6.34133e-06
6.37733e-06
6.39827e-06
6.39948e-06
6.38962e-06
6.3696e-06
6.34392e-06
6.31456e-06
6.28427e-06
6.25482e-06
6.22793e-06
6.20473e-06
6.18614e-06
6.17244e-06
6.1637e-06
6.15906e-06
6.15815e-06
6.15858e-06
5.85774e-06
5.95953e-06
6.04116e-06
6.09165e-06
6.12885e-06
6.14838e-06
6.15773e-06
6.15756e-06
6.15173e-06
6.14192e-06
6.13045e-06
6.11882e-06
6.10847e-06
6.10031e-06
6.0949e-06
6.09223e-06
6.09163e-06
6.09174e-06
6.09007e-06
6.08436e-06
5.53183e-06
5.63973e-06
5.7321e-06
5.79747e-06
5.85151e-06
5.8901e-06
5.91949e-06
5.94006e-06
5.95495e-06
5.96545e-06
5.97348e-06
5.98025e-06
5.9869e-06
5.99414e-06
6.00228e-06
6.01106e-06
6.01925e-06
6.02502e-06
6.02399e-06
6.01375e-06
5.19251e-06
5.30809e-06
5.41263e-06
5.49456e-06
5.56715e-06
5.62649e-06
5.67753e-06
5.72029e-06
5.75718e-06
5.78907e-06
5.81744e-06
5.84318e-06
5.86718e-06
5.88998e-06
5.91171e-06
5.93201e-06
5.94931e-06
5.9615e-06
5.96271e-06
5.9501e-06
4.83841e-06
4.96481e-06
5.08425e-06
5.18558e-06
5.27936e-06
5.36186e-06
5.43667e-06
5.50343e-06
5.56378e-06
5.61819e-06
5.66767e-06
5.7128e-06
5.75425e-06
5.79242e-06
5.82737e-06
5.85876e-06
5.885e-06
5.9039e-06
5.90888e-06
5.89641e-06
4.4641e-06
4.60692e-06
4.74624e-06
4.8717e-06
4.99082e-06
5.10009e-06
5.20171e-06
5.29493e-06
5.38066e-06
5.459e-06
5.53049e-06
5.59547e-06
5.65436e-06
5.70745e-06
5.7548e-06
5.79618e-06
5.83037e-06
5.85542e-06
5.86521e-06
5.85554e-06
4.07785e-06
4.24426e-06
4.40944e-06
4.56427e-06
4.71307e-06
4.85253e-06
4.98356e-06
5.10513e-06
5.21751e-06
5.32047e-06
5.41422e-06
5.49886e-06
5.5746e-06
5.64163e-06
5.70002e-06
5.74971e-06
5.78999e-06
5.81956e-06
5.83387e-06
5.82881e-06
3.6743e-06
3.87574e-06
4.07619e-06
4.26797e-06
4.45243e-06
4.62659e-06
4.79042e-06
4.94269e-06
5.08331e-06
5.21185e-06
5.3283e-06
5.4326e-06
5.52478e-06
5.60486e-06
5.67279e-06
5.72854e-06
5.77174e-06
5.80215e-06
5.8179e-06
5.81754e-06
3.30213e-06
3.54724e-06
3.78857e-06
4.02003e-06
4.2416e-06
4.45038e-06
4.6461e-06
4.82746e-06
4.99431e-06
5.14621e-06
5.28313e-06
5.40493e-06
5.51153e-06
5.60277e-06
5.67833e-06
5.738e-06
5.7812e-06
5.80847e-06
5.8196e-06
5.81858e-06
5.20616e-06
5.54368e-06
6.13885e-06
6.80513e-06
7.47692e-06
8.07481e-06
8.5621e-06
8.914e-06
9.13302e-06
9.17855e-06
4.93153e-06
5.25093e-06
5.8014e-06
6.42823e-06
7.08067e-06
7.68577e-06
8.20751e-06
8.61121e-06
8.89344e-06
9.00507e-06
4.68439e-06
4.9931e-06
5.50657e-06
6.09137e-06
6.709e-06
7.29412e-06
7.81745e-06
8.24971e-06
8.59003e-06
8.79915e-06
4.4568e-06
4.7593e-06
5.24296e-06
5.79163e-06
6.3779e-06
6.94245e-06
7.45814e-06
7.89731e-06
8.25338e-06
8.52163e-06
4.24172e-06
4.54072e-06
4.99951e-06
5.51486e-06
6.06884e-06
6.60927e-06
7.1126e-06
7.55679e-06
7.92242e-06
8.22448e-06
4.03803e-06
4.3359e-06
4.77488e-06
5.26146e-06
5.7851e-06
6.29949e-06
6.78306e-06
7.22103e-06
7.58479e-06
7.90794e-06
3.84199e-06
4.13999e-06
4.56277e-06
5.02425e-06
5.52e-06
6.00938e-06
6.47237e-06
6.90057e-06
7.2569e-06
7.58622e-06
3.65282e-06
3.95166e-06
4.36106e-06
4.80048e-06
5.27028e-06
5.73473e-06
6.17533e-06
6.58957e-06
6.93578e-06
7.26404e-06
3.46914e-06
3.76892e-06
4.16687e-06
4.58669e-06
5.03266e-06
5.4733e-06
5.8917e-06
6.28953e-06
6.62348e-06
6.94471e-06
3.29082e-06
3.59099e-06
3.97841e-06
4.38006e-06
4.8034e-06
5.22071e-06
5.61696e-06
5.99676e-06
6.31764e-06
6.62875e-06
3.11804e-06
3.41736e-06
3.79409e-06
4.17818e-06
4.57948e-06
4.97374e-06
5.34807e-06
5.70872e-06
6.01585e-06
6.31491e-06
2.95298e-06
3.24774e-06
3.61215e-06
3.97848e-06
4.35738e-06
4.72824e-06
5.08059e-06
5.42144e-06
5.71453e-06
6.00072e-06
2.79669e-06
3.08335e-06
3.4321e-06
3.77821e-06
4.13312e-06
4.47952e-06
4.80953e-06
5.13013e-06
5.40909e-06
5.6823e-06
2.65195e-06
2.9263e-06
3.25394e-06
3.575e-06
3.90307e-06
4.22305e-06
4.52994e-06
4.82998e-06
5.09505e-06
5.35573e-06
2.52498e-06
2.77974e-06
3.07508e-06
3.36267e-06
3.65952e-06
3.95065e-06
4.23376e-06
4.5135e-06
4.76556e-06
5.01509e-06
2.42401e-06
2.64476e-06
2.89394e-06
3.1387e-06
3.39809e-06
3.65764e-06
3.91613e-06
4.17637e-06
4.41712e-06
4.65758e-06
2.36595e-06
2.52278e-06
2.69996e-06
2.88571e-06
3.10002e-06
3.32681e-06
3.56225e-06
3.80583e-06
4.0391e-06
4.27502e-06
2.3572e-06
2.40067e-06
2.48239e-06
2.60069e-06
2.76479e-06
2.95882e-06
3.17473e-06
3.40626e-06
3.63762e-06
3.87447e-06
2.43992e-06
2.25081e-06
2.18048e-06
2.22017e-06
2.34373e-06
2.51558e-06
2.72151e-06
2.95259e-06
3.19439e-06
3.44447e-06
2.45909e-06
1.94221e-06
1.7806e-06
1.76158e-06
1.86746e-06
2.03629e-06
2.25231e-06
2.49699e-06
2.75901e-06
3.03523e-06
)
;

boundaryField
{
    left
    {
        type            calculated;
        value           nonuniform List<scalar> 
30
(
5.13878e-06
4.86589e-06
4.62064e-06
4.39467e-06
4.18152e-06
3.97997e-06
3.78658e-06
3.60072e-06
3.42121e-06
3.24816e-06
3.08193e-06
2.92571e-06
2.78043e-06
2.6493e-06
2.53849e-06
2.45904e-06
2.43293e-06
2.48438e-06
2.70079e-06
3.04308e-06
2.33503e-05
1.49324e-05
1.13445e-05
9.39039e-06
8.20065e-06
7.34224e-06
6.70544e-06
6.20019e-06
5.78987e-06
5.43641e-06
)
;
    }
    right
    {
        type            calculated;
        value           nonuniform List<scalar> 
30
(
5.8165e-06
5.81592e-06
5.83321e-06
5.87514e-06
5.93706e-06
6.01494e-06
6.10207e-06
6.19238e-06
6.27969e-06
6.35843e-06
6.42314e-06
6.47114e-06
6.50361e-06
6.52091e-06
6.52036e-06
6.50338e-06
6.4722e-06
6.42687e-06
6.37017e-06
6.30434e-06
6.2324e-06
6.15748e-06
6.08293e-06
6.01213e-06
5.9485e-06
5.89502e-06
5.85457e-06
5.82834e-06
5.81756e-06
5.81765e-06
)
;
    }
    down
    {
        type            calculated;
        value           nonuniform List<scalar> 
30
(
5.47383e-08
3.96871e-08
2.18759e-07
5.86885e-07
1.02092e-06
1.48064e-06
1.93275e-06
2.36654e-06
2.77021e-06
3.15264e-06
3.49793e-06
3.79727e-06
4.07221e-06
4.31849e-06
4.54014e-06
4.73803e-06
4.91477e-06
5.07164e-06
5.21062e-06
5.33286e-06
5.43971e-06
5.53207e-06
5.61072e-06
5.67624e-06
5.72897e-06
5.76937e-06
5.79746e-06
5.81443e-06
5.82022e-06
5.8187e-06
)
;
    }
    up
    {
        type            calculated;
        value           nonuniform List<scalar> 
30
(
2.42846e-06
1.91883e-06
1.76726e-06
1.74776e-06
1.85256e-06
2.02014e-06
2.23561e-06
2.48019e-06
2.74192e-06
3.01923e-06
3.28679e-06
3.53351e-06
3.77675e-06
4.00975e-06
4.23295e-06
4.44312e-06
4.64019e-06
4.82273e-06
4.99067e-06
5.14351e-06
5.28125e-06
5.40374e-06
5.51091e-06
5.60258e-06
5.67844e-06
5.73824e-06
5.7814e-06
5.80855e-06
5.81952e-06
5.81935e-06
)
;
    }
    hole
    {
        type            calculated;
        value           nonuniform List<scalar> 
20
(
1.00095e-05
1.17661e-05
1.36089e-05
1.51847e-05
1.68278e-05
1.88309e-05
2.03713e-05
2.19078e-05
2.32652e-05
2.40794e-05
3.83823e-08
3.54336e-08
1.96555e-07
6.67102e-07
1.40995e-06
2.41641e-06
3.64786e-06
5.07099e-06
6.63035e-06
8.30624e-06
)
;
    }
    frontAndBack
    {
        type            empty;
    }
}


// ************************************************************************* //
