/*--------------------------------*- C++ -*----------------------------------*\
  =========                 |
  \\      /  F ield         | OpenFOAM: The Open Source CFD Toolbox
   \\    /   O peration     | Website:  https://openfoam.org
    \\  /    A nd           | Version:  9
     \\/     M anipulation  |
\*---------------------------------------------------------------------------*/
FoamFile
{
    format      ascii;
    class       pointVectorField;
    location    "15";
    object      pointD;
}
// * * * * * * * * * * * * * * * * * * * * * * * * * * * * * * * * * * * * * //

dimensions      [0 1 0 0 0 0 0];

internalField   nonuniform List<vector> 
2142
(
(1.12731e-05 3.35708e-06 -1.0116e-19)
(1.04385e-05 3.90662e-06 0)
(9.85754e-06 4.29613e-06 0)
(9.43802e-06 4.60955e-06 0)
(9.1376e-06 4.86546e-06 0)
(8.92533e-06 5.08512e-06 0)
(8.77952e-06 5.27802e-06 0)
(8.68492e-06 5.45219e-06 0)
(8.62987e-06 5.61244e-06 0)
(8.60589e-06 5.76205e-06 0)
(8.61253e-06 5.9245e-06 0)
(1.03102e-05 3.06612e-06 -1.10969e-19)
(9.42532e-06 3.50747e-06 0)
(8.81411e-06 3.81604e-06 0)
(8.37531e-06 4.06582e-06 0)
(8.06105e-06 4.26899e-06 0)
(7.83819e-06 4.44399e-06 0)
(7.68327e-06 4.59765e-06 0)
(7.58021e-06 4.73684e-06 0)
(7.51636e-06 4.86493e-06 0)
(7.48298e-06 4.98575e-06 0)
(7.33342e-06 4.99403e-06 0)
(9.30749e-06 2.77711e-06 -1.08128e-19)
(8.39642e-06 3.09793e-06 0)
(7.77128e-06 3.31883e-06 0)
(7.32439e-06 3.5024e-06 0)
(7.00467e-06 3.65243e-06 0)
(6.77778e-06 3.78354e-06 0)
(6.61898e-06 3.89935e-06 0)
(6.51153e-06 4.00517e-06 0)
(6.44234e-06 4.10269e-06 0)
(6.40196e-06 4.1956e-06 0)
(6.26725e-06 4.18966e-06 0)
(8.26226e-06 2.50135e-06 -1.0468e-19)
(7.35644e-06 2.6901e-06 0)
(6.73691e-06 2.81769e-06 0)
(6.2941e-06 2.93352e-06 0)
(5.97833e-06 3.03119e-06 0)
(5.75479e-06 3.12043e-06 0)
(5.59813e-06 3.20122e-06 0)
(5.49125e-06 3.27681e-06 0)
(5.42098e-06 3.34713e-06 0)
(5.37765e-06 3.41506e-06 0)
(5.26086e-06 3.39999e-06 0)
(7.18198e-06 2.24058e-06 -1.06769e-19)
(6.31486e-06 2.28853e-06 0)
(5.71571e-06 2.32407e-06 0)
(5.29002e-06 2.37342e-06 0)
(4.98884e-06 2.42141e-06 0)
(4.77703e-06 2.47229e-06 0)
(4.6292e-06 2.52202e-06 0)
(4.5282e-06 2.57147e-06 0)
(4.46124e-06 2.61873e-06 0)
(4.41867e-06 2.66546e-06 0)
(4.32103e-06 2.64589e-06 0)
(6.0737e-06 1.99557e-06 -1.07944e-19)
(5.27222e-06 1.89787e-06 0)
(4.70901e-06 1.84616e-06 0)
(4.31577e-06 1.83474e-06 0)
(4.04111e-06 1.83881e-06 0)
(3.85022e-06 1.8572e-06 0)
(3.71813e-06 1.88152e-06 0)
(3.62824e-06 1.91013e-06 0)
(3.56855e-06 1.93932e-06 0)
(3.52986e-06 1.9694e-06 0)
(3.45149e-06 1.94963e-06 0)
(4.93942e-06 1.75804e-06 -9.42917e-20)
(4.21869e-06 1.52807e-06 0)
(3.71641e-06 1.39503e-06 0)
(3.3738e-06 1.33194e-06 0)
(3.13849e-06 1.30079e-06 0)
(2.97776e-06 1.29459e-06 0)
(2.86789e-06 1.30045e-06 0)
(2.79371e-06 1.31429e-06 0)
(2.74451e-06 1.33082e-06 0)
(2.71213e-06 1.34911e-06 0)
(2.65224e-06 1.33281e-06 0)
(3.79161e-06 1.51538e-06 -6.54139e-20)
(3.16007e-06 1.17791e-06 0)
(2.74167e-06 9.80502e-07 0)
(2.46767e-06 8.80337e-07 0)
(2.2838e-06 8.26357e-07 0)
(2.16122e-06 8.05424e-07 0)
(2.07865e-06 8.00677e-07 0)
(2.02341e-06 8.06016e-07 0)
(1.98678e-06 8.15155e-07 0)
(1.96221e-06 8.26251e-07 0)
(1.91938e-06 8.1587e-07 0)
(2.61541e-06 1.26409e-06 -2.34402e-20)
(2.09306e-06 8.39137e-07 0)
(1.78671e-06 6.07765e-07 0)
(1.59826e-06 4.93862e-07 0)
(1.47607e-06 4.34555e-07 0)
(1.3974e-06 4.10546e-07 0)
(1.34504e-06 4.03116e-07 0)
(1.31024e-06 4.05382e-07 0)
(1.28693e-06 4.11193e-07 0)
(1.27077e-06 4.18502e-07 0)
(1.24325e-06 4.14621e-07 0)
(1.507e-06 9.51649e-07 1.75538e-20)
(1.03375e-06 4.93803e-07 0)
(8.6625e-07 2.8996e-07 0)
(7.74899e-07 1.97496e-07 0)
(7.18434e-07 1.55228e-07 0)
(6.83091e-07 1.39306e-07 0)
(6.59457e-07 1.35155e-07 0)
(6.43617e-07 1.37128e-07 0)
(6.32689e-07 1.41108e-07 0)
(6.24719e-07 1.45701e-07 0)
(6.10997e-07 1.46052e-07 0)
(5.00822e-07 3.83943e-07 1.6862e-20)
(0 0 0)
(0 0 0)
(0 0 0)
(0 0 0)
(0 0 0)
(0 0 0)
(0 0 0)
(0 0 0)
(0 0 0)
(0 0 0)
(1.12731e-05 3.35708e-06 -1.0116e-19)
(1.04385e-05 3.90662e-06 0)
(9.85754e-06 4.29613e-06 0)
(9.43802e-06 4.60955e-06 0)
(9.1376e-06 4.86546e-06 0)
(8.92533e-06 5.08512e-06 0)
(8.77952e-06 5.27802e-06 0)
(8.68492e-06 5.45219e-06 0)
(8.62987e-06 5.61244e-06 0)
(8.60589e-06 5.76205e-06 0)
(8.61253e-06 5.9245e-06 0)
(1.03102e-05 3.06612e-06 -1.10969e-19)
(9.42532e-06 3.50747e-06 0)
(8.81411e-06 3.81604e-06 0)
(8.37531e-06 4.06582e-06 0)
(8.06105e-06 4.26899e-06 0)
(7.83819e-06 4.44399e-06 0)
(7.68327e-06 4.59765e-06 0)
(7.58021e-06 4.73684e-06 0)
(7.51636e-06 4.86493e-06 0)
(7.48298e-06 4.98575e-06 0)
(7.33342e-06 4.99403e-06 0)
(9.30749e-06 2.77711e-06 -1.08128e-19)
(8.39642e-06 3.09793e-06 0)
(7.77128e-06 3.31883e-06 0)
(7.32439e-06 3.5024e-06 0)
(7.00467e-06 3.65243e-06 0)
(6.77778e-06 3.78354e-06 0)
(6.61898e-06 3.89935e-06 0)
(6.51153e-06 4.00517e-06 0)
(6.44234e-06 4.10269e-06 0)
(6.40196e-06 4.1956e-06 0)
(6.26725e-06 4.18966e-06 0)
(8.26226e-06 2.50135e-06 -1.0468e-19)
(7.35644e-06 2.6901e-06 0)
(6.73691e-06 2.81769e-06 0)
(6.2941e-06 2.93352e-06 0)
(5.97833e-06 3.03119e-06 0)
(5.75479e-06 3.12043e-06 0)
(5.59813e-06 3.20122e-06 0)
(5.49125e-06 3.27681e-06 0)
(5.42098e-06 3.34713e-06 0)
(5.37765e-06 3.41506e-06 0)
(5.26086e-06 3.39999e-06 0)
(7.18198e-06 2.24058e-06 -1.06769e-19)
(6.31486e-06 2.28853e-06 0)
(5.71571e-06 2.32407e-06 0)
(5.29002e-06 2.37342e-06 0)
(4.98884e-06 2.42141e-06 0)
(4.77703e-06 2.47229e-06 0)
(4.6292e-06 2.52202e-06 0)
(4.5282e-06 2.57147e-06 0)
(4.46124e-06 2.61873e-06 0)
(4.41867e-06 2.66546e-06 0)
(4.32103e-06 2.64589e-06 0)
(6.0737e-06 1.99557e-06 -1.07944e-19)
(5.27222e-06 1.89787e-06 0)
(4.70901e-06 1.84616e-06 0)
(4.31577e-06 1.83474e-06 0)
(4.04111e-06 1.83881e-06 0)
(3.85022e-06 1.8572e-06 0)
(3.71813e-06 1.88152e-06 0)
(3.62824e-06 1.91013e-06 0)
(3.56855e-06 1.93932e-06 0)
(3.52986e-06 1.9694e-06 0)
(3.45149e-06 1.94963e-06 0)
(4.93942e-06 1.75804e-06 -9.42917e-20)
(4.21869e-06 1.52807e-06 0)
(3.71641e-06 1.39503e-06 0)
(3.3738e-06 1.33194e-06 0)
(3.13849e-06 1.30079e-06 0)
(2.97776e-06 1.29459e-06 0)
(2.86789e-06 1.30045e-06 0)
(2.79371e-06 1.31429e-06 0)
(2.74451e-06 1.33082e-06 0)
(2.71213e-06 1.34911e-06 0)
(2.65224e-06 1.33281e-06 0)
(3.79161e-06 1.51538e-06 -6.54139e-20)
(3.16007e-06 1.17791e-06 0)
(2.74167e-06 9.80502e-07 0)
(2.46767e-06 8.80337e-07 0)
(2.2838e-06 8.26357e-07 0)
(2.16122e-06 8.05424e-07 0)
(2.07865e-06 8.00677e-07 0)
(2.02341e-06 8.06016e-07 0)
(1.98678e-06 8.15155e-07 0)
(1.96221e-06 8.26251e-07 0)
(1.91938e-06 8.1587e-07 0)
(2.61541e-06 1.26409e-06 -2.34402e-20)
(2.09306e-06 8.39137e-07 0)
(1.78671e-06 6.07765e-07 0)
(1.59826e-06 4.93862e-07 0)
(1.47607e-06 4.34555e-07 0)
(1.3974e-06 4.10546e-07 0)
(1.34504e-06 4.03116e-07 0)
(1.31024e-06 4.05382e-07 0)
(1.28693e-06 4.11193e-07 0)
(1.27077e-06 4.18502e-07 0)
(1.24325e-06 4.14621e-07 0)
(1.507e-06 9.51649e-07 1.75538e-20)
(1.03375e-06 4.93803e-07 0)
(8.6625e-07 2.8996e-07 0)
(7.74899e-07 1.97496e-07 0)
(7.18434e-07 1.55228e-07 0)
(6.83091e-07 1.39306e-07 0)
(6.59457e-07 1.35155e-07 0)
(6.43617e-07 1.37128e-07 0)
(6.32689e-07 1.41108e-07 0)
(6.24719e-07 1.45701e-07 0)
(6.10997e-07 1.46052e-07 0)
(5.00822e-07 3.83943e-07 1.6862e-20)
(0 0 0)
(0 0 0)
(0 0 0)
(0 0 0)
(0 0 0)
(0 0 0)
(0 0 0)
(0 0 0)
(0 0 0)
(0 0 0)
(1.83113e-05 5.54965e-06 -2.54574e-21)
(1.84448e-05 6.08178e-06 -1.51346e-21)
(1.84282e-05 6.76812e-06 -1.65073e-21)
(1.84148e-05 7.40643e-06 -1.77704e-21)
(1.84214e-05 7.99416e-06 -1.89e-21)
(1.84548e-05 8.53648e-06 -1.99215e-21)
(1.85178e-05 9.04013e-06 -2.08581e-21)
(1.86103e-05 9.51225e-06 -2.17321e-21)
(1.87313e-05 9.9588e-06 -2.19787e-21)
(1.88784e-05 1.03854e-05 -1.64128e-21)
(1.90505e-05 1.07946e-05 -5.60838e-22)
(1.78976e-05 5.3451e-06 -3.72963e-21)
(1.78409e-05 6.05914e-06 0)
(1.7792e-05 6.74168e-06 0)
(1.77637e-05 7.37123e-06 0)
(1.77625e-05 7.94648e-06 0)
(1.7791e-05 8.47367e-06 0)
(1.7849e-05 8.96028e-06 0)
(1.79354e-05 9.41397e-06 0)
(1.80486e-05 9.8411e-06 0)
(1.81863e-05 1.02477e-05 0)
(1.83572e-05 1.0639e-05 0)
(1.73363e-05 5.25943e-06 -3.85858e-21)
(1.72185e-05 5.9885e-06 0)
(1.71207e-05 6.66528e-06 0)
(1.70559e-05 7.28205e-06 0)
(1.70271e-05 7.84083e-06 0)
(1.70338e-05 8.34962e-06 0)
(1.70739e-05 8.81662e-06 0)
(1.71444e-05 9.24986e-06 0)
(1.72428e-05 9.65598e-06 0)
(1.73653e-05 1.00415e-05 0)
(1.75338e-05 1.04159e-05 0)
(1.6744e-05 5.11804e-06 -4.52502e-21)
(1.65524e-05 5.8716e-06 0)
(1.63965e-05 6.54037e-06 0)
(1.62856e-05 7.13943e-06 0)
(1.62201e-05 7.67608e-06 0)
(1.61975e-05 8.16126e-06 0)
(1.62133e-05 8.60417e-06 0)
(1.62628e-05 9.01339e-06 0)
(1.63418e-05 9.39583e-06 0)
(1.64452e-05 9.75825e-06 0)
(1.66106e-05 1.01162e-05 0)
(1.61099e-05 4.93355e-06 -7.12543e-21)
(1.58318e-05 5.71006e-06 0)
(1.56115e-05 6.36709e-06 0)
(1.54496e-05 6.94386e-06 0)
(1.53437e-05 7.4534e-06 0)
(1.52885e-05 7.91019e-06 0)
(1.52771e-05 8.32481e-06 0)
(1.53025e-05 8.7065e-06 0)
(1.53593e-05 9.06238e-06 0)
(1.54412e-05 9.39915e-06 0)
(1.56036e-05 9.7407e-06 0)
(1.54278e-05 4.71484e-06 -1.31212e-20)
(1.50529e-05 5.50443e-06 0)
(1.47644e-05 6.14322e-06 0)
(1.45502e-05 6.69209e-06 0)
(1.4404e-05 7.16946e-06 0)
(1.43161e-05 7.59352e-06 0)
(1.42767e-05 7.97618e-06 0)
(1.42772e-05 8.32722e-06 0)
(1.43111e-05 8.6538e-06 0)
(1.43711e-05 8.96248e-06 0)
(1.45311e-05 9.28789e-06 0)
(1.46953e-05 4.47014e-06 -2.35576e-20)
(1.42173e-05 5.25635e-06 0)
(1.38598e-05 5.86786e-06 0)
(1.35949e-05 6.38264e-06 0)
(1.34101e-05 6.82327e-06 0)
(1.32908e-05 7.2111e-06 0)
(1.32243e-05 7.55893e-06 0)
(1.32006e-05 7.87677e-06 0)
(1.32122e-05 8.17184e-06 0)
(1.32509e-05 8.45036e-06 0)
(1.34099e-05 8.75999e-06 0)
(1.39118e-05 4.20615e-06 -3.87255e-20)
(1.33302e-05 4.96808e-06 0)
(1.2906e-05 5.54141e-06 0)
(1.25939e-05 6.01543e-06 0)
(1.23734e-05 6.41511e-06 0)
(1.22249e-05 6.76377e-06 0)
(1.21334e-05 7.07451e-06 0)
(1.20874e-05 7.35729e-06 0)
(1.20784e-05 7.6192e-06 0)
(1.20974e-05 7.86598e-06 0)
(1.22567e-05 8.16042e-06 0)
(1.30783e-05 3.92917e-06 -5.79372e-20)
(1.23989e-05 4.64342e-06 0)
(1.19136e-05 5.16686e-06 0)
(1.1559e-05 5.59342e-06 0)
(1.13066e-05 5.94831e-06 0)
(1.11324e-05 6.25547e-06 0)
(1.10189e-05 6.52753e-06 0)
(1.09532e-05 6.77411e-06 0)
(1.09258e-05 7.00186e-06 0)
(1.09275e-05 7.21592e-06 0)
(1.10883e-05 7.49553e-06 0)
(1.21976e-05 3.64451e-06 -7.96918e-20)
(1.14322e-05 4.28724e-06 0)
(1.08938e-05 4.74921e-06 0)
(1.05029e-05 5.12205e-06 0)
(1.02235e-05 5.42881e-06 0)
(1.00277e-05 5.69274e-06 0)
(9.89587e-06 5.92525e-06 0)
(9.81372e-06 6.13526e-06 0)
(9.77078e-06 6.3287e-06 0)
(9.758e-06 6.50938e-06 0)
(9.92102e-06 6.77412e-06 0)
(1.83113e-05 5.54965e-06 -2.54574e-21)
(1.84448e-05 6.08178e-06 -1.51346e-21)
(1.84282e-05 6.76812e-06 -1.65073e-21)
(1.84148e-05 7.40643e-06 -1.77704e-21)
(1.84214e-05 7.99416e-06 -1.89e-21)
(1.84548e-05 8.53648e-06 -1.99215e-21)
(1.85178e-05 9.04013e-06 -2.08581e-21)
(1.86103e-05 9.51225e-06 -2.17321e-21)
(1.87313e-05 9.9588e-06 -2.19787e-21)
(1.88784e-05 1.03854e-05 -1.64128e-21)
(1.90505e-05 1.07946e-05 -5.60838e-22)
(1.78976e-05 5.3451e-06 -3.72963e-21)
(1.78409e-05 6.05914e-06 0)
(1.7792e-05 6.74168e-06 0)
(1.77637e-05 7.37123e-06 0)
(1.77625e-05 7.94648e-06 0)
(1.7791e-05 8.47367e-06 0)
(1.7849e-05 8.96028e-06 0)
(1.79354e-05 9.41397e-06 0)
(1.80486e-05 9.8411e-06 0)
(1.81863e-05 1.02477e-05 0)
(1.83572e-05 1.0639e-05 0)
(1.73363e-05 5.25943e-06 -3.85858e-21)
(1.72185e-05 5.9885e-06 0)
(1.71207e-05 6.66528e-06 0)
(1.70559e-05 7.28205e-06 0)
(1.70271e-05 7.84083e-06 0)
(1.70338e-05 8.34962e-06 0)
(1.70739e-05 8.81662e-06 0)
(1.71444e-05 9.24986e-06 0)
(1.72428e-05 9.65598e-06 0)
(1.73653e-05 1.00415e-05 0)
(1.75338e-05 1.04159e-05 0)
(1.6744e-05 5.11804e-06 -4.52502e-21)
(1.65524e-05 5.8716e-06 0)
(1.63965e-05 6.54037e-06 0)
(1.62856e-05 7.13943e-06 0)
(1.62201e-05 7.67608e-06 0)
(1.61975e-05 8.16126e-06 0)
(1.62133e-05 8.60417e-06 0)
(1.62628e-05 9.01339e-06 0)
(1.63418e-05 9.39583e-06 0)
(1.64452e-05 9.75825e-06 0)
(1.66106e-05 1.01162e-05 0)
(1.61099e-05 4.93355e-06 -7.12543e-21)
(1.58318e-05 5.71006e-06 0)
(1.56115e-05 6.36709e-06 0)
(1.54496e-05 6.94386e-06 0)
(1.53437e-05 7.4534e-06 0)
(1.52885e-05 7.91019e-06 0)
(1.52771e-05 8.32481e-06 0)
(1.53025e-05 8.7065e-06 0)
(1.53593e-05 9.06238e-06 0)
(1.54412e-05 9.39915e-06 0)
(1.56036e-05 9.7407e-06 0)
(1.54278e-05 4.71484e-06 -1.31212e-20)
(1.50529e-05 5.50443e-06 0)
(1.47644e-05 6.14322e-06 0)
(1.45502e-05 6.69209e-06 0)
(1.4404e-05 7.16946e-06 0)
(1.43161e-05 7.59352e-06 0)
(1.42767e-05 7.97618e-06 0)
(1.42772e-05 8.32722e-06 0)
(1.43111e-05 8.6538e-06 0)
(1.43711e-05 8.96248e-06 0)
(1.45311e-05 9.28789e-06 0)
(1.46953e-05 4.47014e-06 -2.35576e-20)
(1.42173e-05 5.25635e-06 0)
(1.38598e-05 5.86786e-06 0)
(1.35949e-05 6.38264e-06 0)
(1.34101e-05 6.82327e-06 0)
(1.32908e-05 7.2111e-06 0)
(1.32243e-05 7.55893e-06 0)
(1.32006e-05 7.87677e-06 0)
(1.32122e-05 8.17184e-06 0)
(1.32509e-05 8.45036e-06 0)
(1.34099e-05 8.75999e-06 0)
(1.39118e-05 4.20615e-06 -3.87255e-20)
(1.33302e-05 4.96808e-06 0)
(1.2906e-05 5.54141e-06 0)
(1.25939e-05 6.01543e-06 0)
(1.23734e-05 6.41511e-06 0)
(1.22249e-05 6.76377e-06 0)
(1.21334e-05 7.07451e-06 0)
(1.20874e-05 7.35729e-06 0)
(1.20784e-05 7.6192e-06 0)
(1.20974e-05 7.86598e-06 0)
(1.22567e-05 8.16042e-06 0)
(1.30783e-05 3.92917e-06 -5.79372e-20)
(1.23989e-05 4.64342e-06 0)
(1.19136e-05 5.16686e-06 0)
(1.1559e-05 5.59342e-06 0)
(1.13066e-05 5.94831e-06 0)
(1.11324e-05 6.25547e-06 0)
(1.10189e-05 6.52753e-06 0)
(1.09532e-05 6.77411e-06 0)
(1.09258e-05 7.00186e-06 0)
(1.09275e-05 7.21592e-06 0)
(1.10883e-05 7.49553e-06 0)
(1.21976e-05 3.64451e-06 -7.96918e-20)
(1.14322e-05 4.28724e-06 0)
(1.08938e-05 4.74921e-06 0)
(1.05029e-05 5.12205e-06 0)
(1.02235e-05 5.42881e-06 0)
(1.00277e-05 5.69274e-06 0)
(9.89587e-06 5.92525e-06 0)
(9.81372e-06 6.13526e-06 0)
(9.77078e-06 6.3287e-06 0)
(9.758e-06 6.50938e-06 0)
(9.92102e-06 6.77412e-06 0)
(1.92478e-05 1.11915e-05 4.59974e-22)
(1.94667e-05 1.15815e-05 1.37518e-21)
(1.97036e-05 1.19652e-05 2.19759e-21)
(1.99567e-05 1.23447e-05 2.92805e-21)
(2.02242e-05 1.27214e-05 3.57534e-21)
(2.05044e-05 1.30968e-05 4.1461e-21)
(2.07961e-05 1.3472e-05 4.64745e-21)
(2.10977e-05 1.38479e-05 5.08512e-21)
(2.14082e-05 1.42252e-05 5.46476e-21)
(2.17264e-05 1.46045e-05 5.79097e-21)
(2.20513e-05 1.49865e-05 6.06789e-21)
(2.23821e-05 1.53714e-05 6.29874e-21)
(2.27177e-05 1.57597e-05 6.48621e-21)
(2.30574e-05 1.61516e-05 6.63233e-21)
(2.34002e-05 1.65472e-05 6.73883e-21)
(2.37454e-05 1.69465e-05 6.80705e-21)
(2.4092e-05 1.73492e-05 6.83914e-21)
(2.44392e-05 1.77549e-05 6.83771e-21)
(2.47857e-05 1.81628e-05 6.80576e-21)
(2.49021e-05 1.84175e-05 -1.5286e-21)
(1.85701e-05 1.10239e-05 0)
(1.88096e-05 1.14055e-05 0)
(1.90634e-05 1.17817e-05 0)
(1.93303e-05 1.21545e-05 0)
(1.96088e-05 1.25256e-05 0)
(1.98979e-05 1.28961e-05 0)
(2.01964e-05 1.32672e-05 0)
(2.05034e-05 1.36397e-05 0)
(2.0818e-05 1.40143e-05 0)
(2.11392e-05 1.43915e-05 0)
(2.14663e-05 1.4772e-05 0)
(2.17986e-05 1.5156e-05 0)
(2.21353e-05 1.55438e-05 0)
(2.24757e-05 1.59358e-05 0)
(2.28192e-05 1.63319e-05 0)
(2.31651e-05 1.67322e-05 0)
(2.35128e-05 1.71364e-05 0)
(2.38618e-05 1.75441e-05 0)
(2.42112e-05 1.79544e-05 0)
(2.45594e-05 1.83654e-05 -9.90992e-21)
(1.77692e-05 1.07931e-05 0)
(1.80394e-05 1.11723e-05 0)
(1.83199e-05 1.15462e-05 0)
(1.86095e-05 1.19173e-05 0)
(1.89077e-05 1.2287e-05 0)
(1.92136e-05 1.26566e-05 0)
(1.95266e-05 1.30271e-05 0)
(1.98461e-05 1.33996e-05 0)
(2.01714e-05 1.37745e-05 0)
(2.0502e-05 1.41526e-05 0)
(2.08373e-05 1.45343e-05 0)
(2.11769e-05 1.492e-05 0)
(2.15202e-05 1.53099e-05 0)
(2.18668e-05 1.57044e-05 0)
(2.22161e-05 1.61034e-05 0)
(2.25679e-05 1.65071e-05 0)
(2.29215e-05 1.69152e-05 0)
(2.32765e-05 1.73274e-05 0)
(2.36323e-05 1.77431e-05 0)
(2.39852e-05 1.81604e-05 -9.99534e-21)
(1.68731e-05 1.04908e-05 0)
(1.71809e-05 1.0874e-05 0)
(1.74947e-05 1.12519e-05 0)
(1.78136e-05 1.16267e-05 0)
(1.81377e-05 1.20002e-05 0)
(1.84664e-05 1.23735e-05 0)
(1.87996e-05 1.27478e-05 0)
(1.91369e-05 1.3124e-05 0)
(1.94782e-05 1.35029e-05 0)
(1.9823e-05 1.38851e-05 0)
(2.01713e-05 1.42711e-05 0)
(2.05226e-05 1.46613e-05 0)
(2.08768e-05 1.5056e-05 0)
(2.12335e-05 1.54555e-05 0)
(2.15926e-05 1.58599e-05 0)
(2.19536e-05 1.62694e-05 0)
(2.23164e-05 1.6684e-05 0)
(2.26805e-05 1.71034e-05 0)
(2.30451e-05 1.75275e-05 0)
(2.34056e-05 1.79547e-05 -1.01337e-20)
(1.58971e-05 1.01171e-05 0)
(1.62479e-05 1.05105e-05 0)
(1.66005e-05 1.08982e-05 0)
(1.6954e-05 1.1282e-05 0)
(1.73091e-05 1.16641e-05 0)
(1.76655e-05 1.20456e-05 0)
(1.80236e-05 1.24278e-05 0)
(1.83834e-05 1.28117e-05 0)
(1.87449e-05 1.31981e-05 0)
(1.91081e-05 1.35876e-05 0)
(1.94731e-05 1.3981e-05 0)
(1.98398e-05 1.43785e-05 0)
(2.02083e-05 1.47807e-05 0)
(2.05784e-05 1.51878e-05 0)
(2.09502e-05 1.56002e-05 0)
(2.13234e-05 1.6018e-05 0)
(2.16978e-05 1.64414e-05 0)
(2.20733e-05 1.68706e-05 0)
(2.24492e-05 1.73057e-05 0)
(2.28196e-05 1.77455e-05 -1.03231e-20)
(1.48587e-05 9.67068e-06 0)
(1.52566e-05 1.00804e-05 0)
(1.56519e-05 1.04837e-05 0)
(1.60439e-05 1.0882e-05 0)
(1.64339e-05 1.12776e-05 0)
(1.68218e-05 1.16719e-05 0)
(1.72085e-05 1.20663e-05 0)
(1.75941e-05 1.24617e-05 0)
(1.79792e-05 1.28592e-05 0)
(1.8364e-05 1.32596e-05 0)
(1.87487e-05 1.36634e-05 0)
(1.91337e-05 1.40713e-05 0)
(1.95191e-05 1.44837e-05 0)
(1.99051e-05 1.4901e-05 0)
(2.02918e-05 1.53238e-05 0)
(2.06792e-05 1.57522e-05 0)
(2.10674e-05 1.61868e-05 0)
(2.14561e-05 1.6628e-05 0)
(2.1845e-05 1.70761e-05 0)
(2.22277e-05 1.75306e-05 -1.05629e-20)
(1.37735e-05 9.15358e-06 0)
(1.42211e-05 9.58543e-06 0)
(1.4662e-05 1.00099e-05 0)
(1.50953e-05 1.04278e-05 0)
(1.5523e-05 1.08418e-05 0)
(1.59452e-05 1.12533e-05 0)
(1.63632e-05 1.16639e-05 0)
(1.67775e-05 1.20748e-05 0)
(1.71887e-05 1.24869e-05 0)
(1.75974e-05 1.29013e-05 0)
(1.80043e-05 1.33188e-05 0)
(1.84096e-05 1.37399e-05 0)
(1.8814e-05 1.41652e-05 0)
(1.92177e-05 1.45954e-05 0)
(1.9621e-05 1.50309e-05 0)
(2.00243e-05 1.54722e-05 0)
(2.04276e-05 1.592e-05 0)
(2.0831e-05 1.63749e-05 0)
(2.12343e-05 1.68378e-05 0)
(2.16313e-05 1.73082e-05 -1.08528e-20)
(1.26572e-05 8.56911e-06 0)
(1.31557e-05 9.02849e-06 0)
(1.36437e-05 9.47931e-06 0)
(1.412e-05 9.92159e-06 0)
(1.45872e-05 1.03586e-05 0)
(1.50457e-05 1.07915e-05 0)
(1.54969e-05 1.12223e-05 0)
(1.59416e-05 1.16522e-05 0)
(1.63808e-05 1.20825e-05 0)
(1.68153e-05 1.25142e-05 0)
(1.72459e-05 1.29483e-05 0)
(1.76732e-05 1.33854e-05 0)
(1.8098e-05 1.38263e-05 0)
(1.85207e-05 1.42717e-05 0)
(1.89419e-05 1.47222e-05 0)
(1.93621e-05 1.51784e-05 0)
(1.97815e-05 1.56412e-05 0)
(2.02006e-05 1.61115e-05 0)
(2.06194e-05 1.65903e-05 0)
(2.10323e-05 1.70776e-05 -1.11924e-20)
(1.15256e-05 7.92301e-06 0)
(1.20744e-05 8.41471e-06 0)
(1.26098e-05 8.89624e-06 0)
(1.31296e-05 9.36725e-06 0)
(1.36371e-05 9.83103e-06 0)
(1.41327e-05 1.02892e-05 0)
(1.46182e-05 1.07438e-05 0)
(1.50946e-05 1.11961e-05 0)
(1.55629e-05 1.16478e-05 0)
(1.60243e-05 1.20998e-05 0)
(1.64797e-05 1.25533e-05 0)
(1.693e-05 1.30092e-05 0)
(1.73761e-05 1.34682e-05 0)
(1.78187e-05 1.39312e-05 0)
(1.82585e-05 1.43988e-05 0)
(1.86963e-05 1.48718e-05 0)
(1.91325e-05 1.53512e-05 0)
(1.95679e-05 1.58381e-05 0)
(2.00028e-05 1.63336e-05 0)
(2.04329e-05 1.68383e-05 -1.1581e-20)
(1.03929e-05 7.22326e-06 0)
(1.09897e-05 7.75068e-06 0)
(1.15707e-05 8.26599e-06 0)
(1.21336e-05 8.76949e-06 0)
(1.26814e-05 9.26365e-06 0)
(1.32147e-05 9.75051e-06 0)
(1.37351e-05 1.0232e-05 0)
(1.42437e-05 1.07099e-05 0)
(1.47419e-05 1.11858e-05 0)
(1.52308e-05 1.16609e-05 0)
(1.57117e-05 1.21365e-05 0)
(1.61856e-05 1.26135e-05 0)
(1.66535e-05 1.30929e-05 0)
(1.71164e-05 1.35755e-05 0)
(1.75752e-05 1.40622e-05 0)
(1.80308e-05 1.45538e-05 0)
(1.84841e-05 1.50511e-05 0)
(1.89359e-05 1.55556e-05 0)
(1.93871e-05 1.60683e-05 0)
(1.98355e-05 1.65907e-05 -1.20177e-20)
(9.3858e-06 6.58737e-06 0)
(1.00184e-05 7.1454e-06 0)
(1.06336e-05 7.68819e-06 0)
(1.12302e-05 8.21907e-06 0)
(1.18098e-05 8.73953e-06 0)
(1.23734e-05 9.25167e-06 0)
(1.29221e-05 9.75733e-06 0)
(1.34572e-05 1.02583e-05 0)
(1.39799e-05 1.07561e-05 0)
(1.44916e-05 1.12521e-05 0)
(1.49935e-05 1.17475e-05 0)
(1.54867e-05 1.22435e-05 0)
(1.59725e-05 1.2741e-05 0)
(1.64519e-05 1.32408e-05 0)
(1.6926e-05 1.37438e-05 0)
(1.7396e-05 1.42508e-05 0)
(1.78627e-05 1.47628e-05 0)
(1.83274e-05 1.52809e-05 0)
(1.87914e-05 1.58063e-05 0)
(1.92547e-05 1.63411e-05 -1.23744e-20)
(1.92478e-05 1.11915e-05 4.59974e-22)
(1.94667e-05 1.15815e-05 1.37518e-21)
(1.97036e-05 1.19652e-05 2.19759e-21)
(1.99567e-05 1.23447e-05 2.92805e-21)
(2.02242e-05 1.27214e-05 3.57534e-21)
(2.05044e-05 1.30968e-05 4.1461e-21)
(2.07961e-05 1.3472e-05 4.64745e-21)
(2.10977e-05 1.38479e-05 5.08512e-21)
(2.14082e-05 1.42252e-05 5.46476e-21)
(2.17264e-05 1.46045e-05 5.79097e-21)
(2.20513e-05 1.49865e-05 6.06789e-21)
(2.23821e-05 1.53714e-05 6.29874e-21)
(2.27177e-05 1.57597e-05 6.48621e-21)
(2.30574e-05 1.61516e-05 6.63233e-21)
(2.34002e-05 1.65472e-05 6.73883e-21)
(2.37454e-05 1.69465e-05 6.80705e-21)
(2.4092e-05 1.73492e-05 6.83914e-21)
(2.44392e-05 1.77549e-05 6.83771e-21)
(2.47857e-05 1.81628e-05 6.80576e-21)
(2.49021e-05 1.84175e-05 -1.5286e-21)
(1.85701e-05 1.10239e-05 0)
(1.88096e-05 1.14055e-05 0)
(1.90634e-05 1.17817e-05 0)
(1.93303e-05 1.21545e-05 0)
(1.96088e-05 1.25256e-05 0)
(1.98979e-05 1.28961e-05 0)
(2.01964e-05 1.32672e-05 0)
(2.05034e-05 1.36397e-05 0)
(2.0818e-05 1.40143e-05 0)
(2.11392e-05 1.43915e-05 0)
(2.14663e-05 1.4772e-05 0)
(2.17986e-05 1.5156e-05 0)
(2.21353e-05 1.55438e-05 0)
(2.24757e-05 1.59358e-05 0)
(2.28192e-05 1.63319e-05 0)
(2.31651e-05 1.67322e-05 0)
(2.35128e-05 1.71364e-05 0)
(2.38618e-05 1.75441e-05 0)
(2.42112e-05 1.79544e-05 0)
(2.45594e-05 1.83654e-05 -9.90992e-21)
(1.77692e-05 1.07931e-05 0)
(1.80394e-05 1.11723e-05 0)
(1.83199e-05 1.15462e-05 0)
(1.86095e-05 1.19173e-05 0)
(1.89077e-05 1.2287e-05 0)
(1.92136e-05 1.26566e-05 0)
(1.95266e-05 1.30271e-05 0)
(1.98461e-05 1.33996e-05 0)
(2.01714e-05 1.37745e-05 0)
(2.0502e-05 1.41526e-05 0)
(2.08373e-05 1.45343e-05 0)
(2.11769e-05 1.492e-05 0)
(2.15202e-05 1.53099e-05 0)
(2.18668e-05 1.57044e-05 0)
(2.22161e-05 1.61034e-05 0)
(2.25679e-05 1.65071e-05 0)
(2.29215e-05 1.69152e-05 0)
(2.32765e-05 1.73274e-05 0)
(2.36323e-05 1.77431e-05 0)
(2.39852e-05 1.81604e-05 -9.99534e-21)
(1.68731e-05 1.04908e-05 0)
(1.71809e-05 1.0874e-05 0)
(1.74947e-05 1.12519e-05 0)
(1.78136e-05 1.16267e-05 0)
(1.81377e-05 1.20002e-05 0)
(1.84664e-05 1.23735e-05 0)
(1.87996e-05 1.27478e-05 0)
(1.91369e-05 1.3124e-05 0)
(1.94782e-05 1.35029e-05 0)
(1.9823e-05 1.38851e-05 0)
(2.01713e-05 1.42711e-05 0)
(2.05226e-05 1.46613e-05 0)
(2.08768e-05 1.5056e-05 0)
(2.12335e-05 1.54555e-05 0)
(2.15926e-05 1.58599e-05 0)
(2.19536e-05 1.62694e-05 0)
(2.23164e-05 1.6684e-05 0)
(2.26805e-05 1.71034e-05 0)
(2.30451e-05 1.75275e-05 0)
(2.34056e-05 1.79547e-05 -1.01337e-20)
(1.58971e-05 1.01171e-05 0)
(1.62479e-05 1.05105e-05 0)
(1.66005e-05 1.08982e-05 0)
(1.6954e-05 1.1282e-05 0)
(1.73091e-05 1.16641e-05 0)
(1.76655e-05 1.20456e-05 0)
(1.80236e-05 1.24278e-05 0)
(1.83834e-05 1.28117e-05 0)
(1.87449e-05 1.31981e-05 0)
(1.91081e-05 1.35876e-05 0)
(1.94731e-05 1.3981e-05 0)
(1.98398e-05 1.43785e-05 0)
(2.02083e-05 1.47807e-05 0)
(2.05784e-05 1.51878e-05 0)
(2.09502e-05 1.56002e-05 0)
(2.13234e-05 1.6018e-05 0)
(2.16978e-05 1.64414e-05 0)
(2.20733e-05 1.68706e-05 0)
(2.24492e-05 1.73057e-05 0)
(2.28196e-05 1.77455e-05 -1.03231e-20)
(1.48587e-05 9.67068e-06 0)
(1.52566e-05 1.00804e-05 0)
(1.56519e-05 1.04837e-05 0)
(1.60439e-05 1.0882e-05 0)
(1.64339e-05 1.12776e-05 0)
(1.68218e-05 1.16719e-05 0)
(1.72085e-05 1.20663e-05 0)
(1.75941e-05 1.24617e-05 0)
(1.79792e-05 1.28592e-05 0)
(1.8364e-05 1.32596e-05 0)
(1.87487e-05 1.36634e-05 0)
(1.91337e-05 1.40713e-05 0)
(1.95191e-05 1.44837e-05 0)
(1.99051e-05 1.4901e-05 0)
(2.02918e-05 1.53238e-05 0)
(2.06792e-05 1.57522e-05 0)
(2.10674e-05 1.61868e-05 0)
(2.14561e-05 1.6628e-05 0)
(2.1845e-05 1.70761e-05 0)
(2.22277e-05 1.75306e-05 -1.05629e-20)
(1.37735e-05 9.15358e-06 0)
(1.42211e-05 9.58543e-06 0)
(1.4662e-05 1.00099e-05 0)
(1.50953e-05 1.04278e-05 0)
(1.5523e-05 1.08418e-05 0)
(1.59452e-05 1.12533e-05 0)
(1.63632e-05 1.16639e-05 0)
(1.67775e-05 1.20748e-05 0)
(1.71887e-05 1.24869e-05 0)
(1.75974e-05 1.29013e-05 0)
(1.80043e-05 1.33188e-05 0)
(1.84096e-05 1.37399e-05 0)
(1.8814e-05 1.41652e-05 0)
(1.92177e-05 1.45954e-05 0)
(1.9621e-05 1.50309e-05 0)
(2.00243e-05 1.54722e-05 0)
(2.04276e-05 1.592e-05 0)
(2.0831e-05 1.63749e-05 0)
(2.12343e-05 1.68378e-05 0)
(2.16313e-05 1.73082e-05 -1.08528e-20)
(1.26572e-05 8.56911e-06 0)
(1.31557e-05 9.02849e-06 0)
(1.36437e-05 9.47931e-06 0)
(1.412e-05 9.92159e-06 0)
(1.45872e-05 1.03586e-05 0)
(1.50457e-05 1.07915e-05 0)
(1.54969e-05 1.12223e-05 0)
(1.59416e-05 1.16522e-05 0)
(1.63808e-05 1.20825e-05 0)
(1.68153e-05 1.25142e-05 0)
(1.72459e-05 1.29483e-05 0)
(1.76732e-05 1.33854e-05 0)
(1.8098e-05 1.38263e-05 0)
(1.85207e-05 1.42717e-05 0)
(1.89419e-05 1.47222e-05 0)
(1.93621e-05 1.51784e-05 0)
(1.97815e-05 1.56412e-05 0)
(2.02006e-05 1.61115e-05 0)
(2.06194e-05 1.65903e-05 0)
(2.10323e-05 1.70776e-05 -1.11924e-20)
(1.15256e-05 7.92301e-06 0)
(1.20744e-05 8.41471e-06 0)
(1.26098e-05 8.89624e-06 0)
(1.31296e-05 9.36725e-06 0)
(1.36371e-05 9.83103e-06 0)
(1.41327e-05 1.02892e-05 0)
(1.46182e-05 1.07438e-05 0)
(1.50946e-05 1.11961e-05 0)
(1.55629e-05 1.16478e-05 0)
(1.60243e-05 1.20998e-05 0)
(1.64797e-05 1.25533e-05 0)
(1.693e-05 1.30092e-05 0)
(1.73761e-05 1.34682e-05 0)
(1.78187e-05 1.39312e-05 0)
(1.82585e-05 1.43988e-05 0)
(1.86963e-05 1.48718e-05 0)
(1.91325e-05 1.53512e-05 0)
(1.95679e-05 1.58381e-05 0)
(2.00028e-05 1.63336e-05 0)
(2.04329e-05 1.68383e-05 -1.1581e-20)
(1.03929e-05 7.22326e-06 0)
(1.09897e-05 7.75068e-06 0)
(1.15707e-05 8.26599e-06 0)
(1.21336e-05 8.76949e-06 0)
(1.26814e-05 9.26365e-06 0)
(1.32147e-05 9.75051e-06 0)
(1.37351e-05 1.0232e-05 0)
(1.42437e-05 1.07099e-05 0)
(1.47419e-05 1.11858e-05 0)
(1.52308e-05 1.16609e-05 0)
(1.57117e-05 1.21365e-05 0)
(1.61856e-05 1.26135e-05 0)
(1.66535e-05 1.30929e-05 0)
(1.71164e-05 1.35755e-05 0)
(1.75752e-05 1.40622e-05 0)
(1.80308e-05 1.45538e-05 0)
(1.84841e-05 1.50511e-05 0)
(1.89359e-05 1.55556e-05 0)
(1.93871e-05 1.60683e-05 0)
(1.98355e-05 1.65907e-05 -1.20177e-20)
(9.3858e-06 6.58737e-06 0)
(1.00184e-05 7.1454e-06 0)
(1.06336e-05 7.68819e-06 0)
(1.12302e-05 8.21907e-06 0)
(1.18098e-05 8.73953e-06 0)
(1.23734e-05 9.25167e-06 0)
(1.29221e-05 9.75733e-06 0)
(1.34572e-05 1.02583e-05 0)
(1.39799e-05 1.07561e-05 0)
(1.44916e-05 1.12521e-05 0)
(1.49935e-05 1.17475e-05 0)
(1.54867e-05 1.22435e-05 0)
(1.59725e-05 1.2741e-05 0)
(1.64519e-05 1.32408e-05 0)
(1.6926e-05 1.37438e-05 0)
(1.7396e-05 1.42508e-05 0)
(1.78627e-05 1.47628e-05 0)
(1.83274e-05 1.52809e-05 0)
(1.87914e-05 1.58063e-05 0)
(1.92547e-05 1.63411e-05 -1.23744e-20)
(7.89021e-06 5.52581e-06 0)
(8.65173e-06 6.15245e-06 0)
(9.2969e-06 6.72323e-06 0)
(9.92442e-06 7.27826e-06 0)
(1.05341e-05 7.82243e-06 0)
(1.11269e-05 8.35672e-06 0)
(1.17035e-05 8.8829e-06 0)
(1.22649e-05 9.40254e-06 0)
(1.28122e-05 9.91713e-06 0)
(1.33466e-05 1.04281e-05 0)
(1.38691e-05 1.09366e-05 0)
(1.4381e-05 1.14438e-05 0)
(1.48834e-05 1.19507e-05 0)
(1.53776e-05 1.24582e-05 0)
(1.58646e-05 1.29671e-05 0)
(1.63456e-05 1.34781e-05 0)
(1.68218e-05 1.3992e-05 0)
(1.72944e-05 1.45097e-05 0)
(1.77645e-05 1.50321e-05 0)
(1.82338e-05 1.55601e-05 0)
(1.87035e-05 1.60959e-05 -1.24922e-20)
(7.35122e-06 5.20917e-06 0)
(8.08797e-06 5.82742e-06 0)
(8.7288e-06 6.39902e-06 0)
(9.35427e-06 6.95783e-06 0)
(9.96361e-06 7.50761e-06 0)
(1.05574e-05 8.04882e-06 0)
(1.1136e-05 8.58274e-06 0)
(1.17e-05 9.11056e-06 0)
(1.22503e-05 9.63344e-06 0)
(1.27879e-05 1.01525e-05 0)
(1.33136e-05 1.06688e-05 0)
(1.38286e-05 1.11832e-05 0)
(1.4334e-05 1.16966e-05 0)
(1.48308e-05 1.22097e-05 0)
(1.53202e-05 1.27233e-05 0)
(1.58034e-05 1.32379e-05 0)
(1.62813e-05 1.37543e-05 0)
(1.67555e-05 1.4273e-05 0)
(1.7227e-05 1.47948e-05 0)
(1.76977e-05 1.53203e-05 0)
(1.81689e-05 1.5851e-05 -1.24788e-20)
(6.87213e-06 4.90508e-06 0)
(7.58171e-06 5.51446e-06 0)
(8.21135e-06 6.0844e-06 0)
(8.82896e-06 6.64471e-06 0)
(9.43262e-06 7.19819e-06 0)
(1.00227e-05 7.74472e-06 0)
(1.05989e-05 8.28508e-06 0)
(1.11618e-05 8.82003e-06 0)
(1.17117e-05 9.35038e-06 0)
(1.22495e-05 9.87694e-06 0)
(1.27759e-05 1.04005e-05 0)
(1.32919e-05 1.09218e-05 0)
(1.37983e-05 1.14414e-05 0)
(1.42962e-05 1.19601e-05 0)
(1.47867e-05 1.24782e-05 0)
(1.52708e-05 1.29964e-05 0)
(1.57497e-05 1.3515e-05 0)
(1.62247e-05 1.40345e-05 0)
(1.66971e-05 1.45555e-05 0)
(1.71687e-05 1.50781e-05 0)
(1.76409e-05 1.56032e-05 -1.24714e-20)
(6.44443e-06 4.61593e-06 0)
(7.12502e-06 5.21446e-06 0)
(7.73939e-06 5.78057e-06 0)
(8.34482e-06 6.34048e-06 0)
(8.93868e-06 6.896e-06 0)
(9.5211e-06 7.4464e-06 0)
(1.00914e-05 7.99195e-06 0)
(1.06497e-05 8.53297e-06 0)
(1.11963e-05 9.0699e-06 0)
(1.17317e-05 9.60323e-06 0)
(1.22564e-05 1.01335e-05 0)
(1.27712e-05 1.06611e-05 0)
(1.32769e-05 1.11867e-05 0)
(1.37744e-05 1.17105e-05 0)
(1.42647e-05 1.22329e-05 0)
(1.47487e-05 1.27544e-05 0)
(1.52277e-05 1.32751e-05 0)
(1.57028e-05 1.37954e-05 0)
(1.61755e-05 1.43152e-05 0)
(1.66476e-05 1.48346e-05 0)
(1.71201e-05 1.53538e-05 -1.24704e-20)
(6.06097e-06 4.34259e-06 0)
(6.71176e-06 4.92921e-06 0)
(7.3078e-06 5.48978e-06 0)
(7.89776e-06 6.04759e-06 0)
(8.47856e-06 6.60348e-06 0)
(9.05013e-06 7.15623e-06 0)
(9.61142e-06 7.70562e-06 0)
(1.01624e-05 8.25152e-06 0)
(1.07031e-05 8.79399e-06 0)
(1.12336e-05 9.3332e-06 0)
(1.17545e-05 9.86938e-06 0)
(1.22663e-05 1.04028e-05 0)
(1.27696e-05 1.09337e-05 0)
(1.32653e-05 1.14622e-05 0)
(1.37542e-05 1.19887e-05 0)
(1.42373e-05 1.25132e-05 0)
(1.47155e-05 1.30358e-05 0)
(1.51901e-05 1.35565e-05 0)
(1.56624e-05 1.4075e-05 0)
(1.61342e-05 1.45912e-05 0)
(1.66064e-05 1.51046e-05 -1.24759e-20)
(5.71424e-06 4.08503e-06 0)
(6.3353e-06 4.65891e-06 0)
(6.91106e-06 5.21263e-06 0)
(7.48324e-06 5.76693e-06 0)
(8.04856e-06 6.3218e-06 0)
(8.60679e-06 6.87557e-06 0)
(9.15666e-06 7.42754e-06 0)
(9.69798e-06 7.97716e-06 0)
(1.02304e-05 8.52412e-06 0)
(1.07541e-05 9.06828e-06 0)
(1.12693e-05 9.60958e-06 0)
(1.17764e-05 1.0148e-05 0)
(1.2276e-05 1.06836e-05 0)