/*--------------------------------*- C++ -*----------------------------------*\
  =========                 |
  \\      /  F ield         | OpenFOAM: The Open Source CFD Toolbox
   \\    /   O peration     | Website:  https://openfoam.org
    \\  /    A nd           | Version:  9
     \\/     M anipulation  |
\*---------------------------------------------------------------------------*/
FoamFile
{
    format      ascii;
    class       volSymmTensorField;
    location    "15";
    object      sigma;
}
// * * * * * * * * * * * * * * * * * * * * * * * * * * * * * * * * * * * * * //

dimensions      [1 -1 -2 0 0 0 0];

internalField   nonuniform List<symmTensor> 
1000
(
(1.86797e+06 -1.28128e+06 -6.19183e-10 1.07772e+06 -8.90374e-10 251018)
(2.1709e+06 -988860 -3.97248e-10 585234 -6.14532e-10 206251)
(2.32271e+06 -757010 -2.3311e-10 348098 -4.21086e-10 186301)
(2.38482e+06 -582718 -1.17793e-10 166993 -2.79784e-10 168341)
(2.40632e+06 -443366 -2.94838e-11 60827.8 -1.73677e-10 157605)
(2.39496e+06 -334164 3.54211e-11 -17376.2 -9.3515e-11 148435)
(2.3703e+06 -245556 8.58537e-11 -67728.1 -3.13043e-11 141929)
(2.3332e+06 -174902 1.23421e-10 -103818 1.63408e-11 136400)
(2.2954e+06 -116253 1.536e-10 -127430 5.45596e-11 132288)
(2.2447e+06 -67052.9 1.75952e-10 -149749 8.52871e-11 127564)
(2.35699e+06 -1.43008e+06 -6.23526e-10 1.10803e+06 -9.49321e-10 276532)
(2.54747e+06 -1.02523e+06 -3.6114e-10 620952 -6.1047e-10 229143)
(2.6294e+06 -730430 -1.68639e-10 400508 -3.83361e-10 208786)
(2.63241e+06 -521540 -4.09656e-11 225599 -2.24983e-10 189185)
(2.61002e+06 -362321 5.29481e-11 126999 -1.10385e-10 177530)
(2.56211e+06 -243035 1.1848e-10 51688.2 -2.70244e-11 167060)
(2.50776e+06 -149789 1.67223e-10 3683.64 3.54388e-11 159446)
(2.44585e+06 -78596.5 2.01278e-10 -33606 8.14578e-11 152533)
(2.38484e+06 -20923.7 2.27275e-10 -56283.8 1.16938e-10 147371)
(2.31645e+06 25663.9 2.45182e-10 -86480.9 1.45338e-10 140703)
(2.86246e+06 -1.50595e+06 -5.04351e-10 1.06148e+06 -9.43454e-10 289614)
(2.93902e+06 -1.03057e+06 -3.03628e-10 646722 -5.83486e-10 251933)
(2.92919e+06 -684414 -9.31016e-11 461534 -3.34387e-10 232327)
(2.86262e+06 -447250 4.15192e-11 303297 -1.65216e-10 211834)
(2.79015e+06 -273276 1.36978e-10 217376 -4.66205e-11 199545)
(2.70192e+06 -147808 2.00179e-10 148282 3.66564e-11 187962)
(2.61584e+06 -53339.1 2.44828e-10 104582 9.67168e-11 179345)
(2.52765e+06 16018.4 2.73689e-10 67698.2 1.39229e-10 171148)
(2.44507e+06 69892.5 2.94015e-10 45928.9 1.70253e-10 164975)
(2.35799e+06 114178 3.07553e-10 11041.5 1.96076e-10 156733)
(3.40342e+06 -1.53903e+06 -4.74082e-10 984706 -9.12831e-10 307902)
(3.32571e+06 -998885 -2.24226e-10 649671 -5.29841e-10 272045)
(3.21527e+06 -621719 -9.34617e-12 523625 -2.75696e-10 255564)
(3.0731e+06 -364953 1.26077e-10 394922 -1.03456e-10 235426)
(2.94506e+06 -182661 2.18321e-10 327769 1.37127e-11 222928)
(2.81337e+06 -55505.1 2.75959e-10 267835 9.33302e-11 210396)
(2.69378e+06 36548.5 3.13992e-10 228995 1.48369e-10 200706)
(2.57936e+06 101660 3.36178e-10 192635 1.85775e-10 191209)
(2.47558e+06 149590 3.49538e-10 169989 2.11162e-10 183779)
(2.37286e+06 189079 3.57658e-10 132340 2.328e-10 174330)
(3.91716e+06 -1.49043e+06 -5.5066e-10 870829 -8.34221e-10 325353)
(3.70241e+06 -930644 -1.23751e-10 651595 -4.52791e-10 292050)
(3.4859e+06 -536848 8.57963e-11 589761 -2.0415e-10 278875)
(3.26214e+06 -273585 2.13093e-10 499806 -3.90708e-11 259805)
(3.07307e+06 -93280.5 2.94956e-10 455996 6.8872e-11 247274)
(2.89579e+06 28446.2 3.42323e-10 407338 1.39704e-10 233858)
(2.74218e+06 112826 3.70408e-10 373438 1.86197e-10 223005)
(2.60229e+06 170128 3.83824e-10 337102 2.16265e-10 212129)
(2.47919e+06 209524 3.88884e-10 311756 2.34678e-10 203263)
(2.3627e+06 242080 3.90546e-10 271004 2.50917e-10 192624)
(4.3992e+06 -1.34541e+06 -6.40498e-10 738250 -6.92503e-10 338832)
(4.0801e+06 -821683 -5.00974e-12 654059 -3.49131e-10 312890)
(3.74199e+06 -428685 1.9333e-10 674398 -1.20604e-10 304204)
(3.42626e+06 -176925 2.99753e-10 622754 2.45933e-11 285368)
(3.17284e+06 -10460.5 3.63389e-10 602954 1.15122e-10 272554)
(2.94942e+06 97180.1 3.95018e-10 563503 1.71645e-10 257834)
(2.763e+06 168467 4.0996e-10 532316 2.06373e-10 245510)
(2.59975e+06 214524 4.12783e-10 493942 2.27255e-10 233044)
(2.45986e+06 243515 4.08745e-10 463552 2.37943e-10 222535)
(2.33214e+06 267598 4.03384e-10 418954 2.48073e-10 210714)
(4.82508e+06 -1.11403e+06 -6.00843e-10 612106 -4.95773e-10 350042)
(4.41612e+06 -647065 1.36682e-10 657014 -2.06209e-10 332867)
(3.95829e+06 -294350 3.11046e-10 770217 -2.44711e-11 329379)
(3.55155e+06 -78898.4 3.81434e-10 760662 8.41107e-11 310961)
(3.23686e+06 58867.8 4.18081e-10 761240 1.48099e-10 297333)
(2.97182e+06 143078 4.28844e-10 727500 1.84933e-10 280944)
(2.75744e+06 196162 4.28185e-10 695092 2.05393e-10 266806)
(2.57527e+06 228316 4.19421e-10 651960 2.16025e-10 252579)
(2.42258e+06 246190 4.06436e-10 614146 2.19135e-10 240306)
(2.28662e+06 261366 3.9423e-10 564795 2.23227e-10 227328)
(5.27306e+06 -803231 -4.2759e-10 519355 -2.45194e-10 366365)
(4.72282e+06 -422853 3.48911e-10 707915 -3.67503e-11 357531)
(4.13234e+06 -138298 4.36101e-10 901624 7.82805e-11 357392)
(3.64048e+06 12333.9 4.53559e-10 921169 1.33423e-10 337585)
(3.27069e+06 105774 4.54341e-10 928874 1.6261e-10 321500)
(2.97191e+06 158732 4.40502e-10 891396 1.76355e-10 302495)
(2.73611e+06 190770 4.23407e-10 850692 1.82044e-10 285908)
(2.54078e+06 208816 4.03774e-10 798880 1.83238e-10 269692)
(2.37977e+06 217066 3.83432e-10 751398 1.80399e-10 255609)
(2.23887e+06 224688 3.65725e-10 696755 1.79692e-10 241588)
(5.56017e+06 -344283 3.85971e-11 432398 1.08769e-10 373814)
(4.90607e+06 -120611 5.6589e-10 840743 1.63151e-10 388288)
(4.21084e+06 20046.7 5.48376e-10 1.08074e+06 1.68866e-10 386880)
(3.65463e+06 72252.5 4.94994e-10 1.10234e+06 1.5328e-10 362720)
(3.25648e+06 110371 4.56925e-10 1.09103e+06 1.45708e-10 341953)
(2.94282e+06 128844 4.19225e-10 1.03547e+06 1.375e-10 319357)
(2.69965e+06 141944 3.89074e-10 978424 1.3194e-10 300006)
(2.50003e+06 149246 3.61987e-10 914741 1.27045e-10 281877)
(2.33637e+06 152169 3.37818e-10 857180 1.21624e-10 266274)
(2.19365e+06 155606 3.17185e-10 798010 1.18521e-10 251513)
(6.09746e+06 291242 8.61944e-10 612774 5.58198e-10 426522)
(4.98085e+06 308169 8.47897e-10 1.26441e+06 4.0375e-10 453292)
(4.20467e+06 171108 6.44251e-10 1.35964e+06 2.35882e-10 425026)
(3.64341e+06 99754.5 5.12873e-10 1.31954e+06 1.45404e-10 390811)
(3.24202e+06 78269.5 4.36545e-10 1.23556e+06 1.0659e-10 359572)
(2.92937e+06 72005.8 3.83257e-10 1.14367e+06 8.63275e-11 331947)
(2.68617e+06 75086.4 3.46586e-10 1.06032e+06 7.71885e-11 309026)
(2.48645e+06 79528.7 3.17561e-10 983854 7.18711e-11 289189)
(2.32195e+06 83032.8 2.93523e-10 918009 6.77198e-11 272476)
(2.17801e+06 86480.9 2.7269e-10 857306 6.46962e-11 257454)
(-10293.3 4863.97 -3.1682e-11 -5324.42 -1.73275e-11 137.595)
(1065.04 -8064.27 -3.86885e-11 939.397 -2.61394e-11 1640.03)
(58145 -30982.5 -5.26083e-11 -3052.35 -4.1272e-11 6771.22)
(154466 -50072.5 -6.30469e-11 -6574.58 -5.36889e-11 15801.4)
(268277 -62331.6 -6.84608e-11 -8673.88 -6.14715e-11 26695)
(389251 -69533.6 -7.02721e-11 -9578.99 -6.58477e-11 38412.9)
(508416 -72697.1 -6.94412e-11 -9853.59 -6.75246e-11 50027.9)
(622780 -73109.3 -6.69371e-11 -9945.6 -6.73705e-11 61205.1)
(727764 -70968.6 -5.92243e-11 -10067.2 -6.31406e-11 70076.4)
(824927 -69362.9 -4.3195e-11 -8361.58 -5.39687e-11 75163.9)
(8601.13 -7604.29 -3.8986e-11 -3942.27 -2.5688e-11 2009.58)
(86252.1 -56763.3 -6.19747e-11 37574.8 -5.9475e-11 12437.3)
(201057 -113768 -9.51565e-11 40876 -9.75232e-11 23546.7)
(324773 -158344 -1.22452e-10 29775.8 -1.26831e-10 34515.4)
(449557 -186558 -1.39318e-10 18208 -1.45101e-10 45659.6)
(568119 -202699 -1.48497e-10 7327.83 -1.55278e-10 56325.9)
(678440 -208536 -1.50963e-10 -1563.58 -1.58589e-10 66404.3)
(778715 -208531 -1.36469e-10 -7790.55 -1.49877e-10 70934.8)
(867542 -202622 -1.19147e-10 -13048.3 -1.37772e-10 74762.9)
(951417 -197790 -1.03203e-10 -13716.6 -1.27332e-10 78925.6)
(31140.6 -50384.1 -6.03264e-11 30685.1 -5.52252e-11 6564.8)
(171087 -149239 -1.12011e-10 82318.3 -1.22491e-10 23530.6)
(332893 -220668 -1.54275e-10 79388.3 -1.69935e-10 38670.7)
(482652 -269173 -1.86167e-10 51199.6 -2.01396e-10 50863.8)
(620257 -296229 -2.04591e-10 23208.1 -2.18458e-10 62022.8)
(739981 -308862 -2.04482e-10 -1621.03 -2.20148e-10 68365)
(843644 -310362 -1.89621e-10 -20887 -2.1005e-10 71003.7)
(935846 -305062 -1.72262e-10 -35139.6 -1.97021e-10 73821)
(1.0124e+06 -293832 -1.53611e-10 -45995.9 -1.81806e-10 76385.3)
(1.08636e+06 -284361 -1.36358e-10 -49303.2 -1.68846e-10 79777.5)
(79171.2 -119592 -8.9893e-11 116124 -1.03647e-10 17299.2)
(286134 -262144 -1.72336e-10 140009 -1.99456e-10 38429.1)
(486320 -337886 -2.19153e-10 119926 -2.49264e-10 55993.1)
(658502 -380149 -2.49454e-10 73170.3 -2.76007e-10 69010.6)
(804071 -397429 -2.4902e-10 30010.6 -2.76799e-10 74401.3)
(923671 -399891 -2.32513e-10 -7871.41 -2.63824e-10 75398.6)
(1.02285e+06 -392320 -2.12856e-10 -37619.2 -2.4691e-10 76580.4)
(1.10719e+06 -379061 -1.91878e-10 -59586.2 -2.28407e-10 78116.7)
(1.17282e+06 -360944 -1.70719e-10 -76106.1 -2.08925e-10 79499.2)
(1.2379e+06 -345790 -1.51363e-10 -82934.3 -1.92566e-10 82072.4)
(162359 -218725 -1.30949e-10 244453 -1.73089e-10 34534.1)
(440517 -386054 -2.37866e-10 203258 -2.83816e-10 57525.9)
(673212 -454231 -2.84121e-10 151256 -3.27667e-10 75895.7)
(857270 -481430 -2.92188e-10 80697.8 -3.33566e-10 82439.2)
(1.004e+06 -481905 -2.70513e-10 21461.4 -3.14494e-10 82039.3)
(1.12008e+06 -469758 -2.45649e-10 -28329.9 -2.90798e-10 81522.2)
(1.21147e+06 -450033 -2.19772e-10 -66364.1 -2.65569e-10 81412.5)
(1.2864e+06 -426441 -1.93926e-10 -94493.1 -2.40336e-10 81826.5)
(1.34035e+06 -400193 -1.69593e-10 -115451 -2.15972e-10 82166.1)
(1.39615e+06 -378181 -1.47455e-10 -124679 -1.95601e-10 84063)
(291780 -350575 -1.86481e-10 406427 -2.65177e-10 58632.9)
(640037 -512097 -3.02612e-10 273123 -3.69596e-10 81526.2)
(896168 -558316 -3.32589e-10 179330 -3.92394e-10 96103.9)
(1.08158e+06 -563156 -3.08084e-10 82737 -3.68582e-10 92709.6)
(1.2251e+06 -543476 -2.74606e-10 8840.6 -3.34784e-10 90532.2)
(1.33167e+06 -514923 -2.41174e-10 -50719.9 -2.99942e-10 88505.8)
(1.4119e+06 -481778 -2.08792e-10 -95219 -2.66059e-10 87191.8)
(1.47458e+06 -447212 -1.78099e-10 -127804 -2.34114e-10 86573.7)
(1.51534e+06 -412773 -1.50772e-10 -151962 -2.051e-10 85957)
(1.56041e+06 -383699 -1.25939e-10 -162689 -1.8081e-10 87225.9)
(476596 -513672 -2.58427e-10 582533 -3.78435e-10 89019.8)
(883521 -633689 -3.63179e-10 344626 -4.5225e-10 109980)
(1.14634e+06 -643855 -3.46569e-10 204901 -4.30433e-10 110669)
(1.32852e+06 -619516 -3.04823e-10 81588.7 -3.84548e-10 104057)
(1.46057e+06 -577664 -2.59552e-10 -5718.06 -3.35541e-10 99882.6)
(1.55273e+06 -531532 -2.17562e-10 -73204.9 -2.89409e-10 96359.4)
(1.61784e+06 -485015 -1.79294e-10 -122342 -2.47455e-10 93880.9)
(1.66532e+06 -439805 -1.44397e-10 -157824 -2.09447e-10 92281)
(1.69129e+06 -397846 -1.14724e-10 -183902 -1.7651e-10 90785.9)
(1.7236e+06 -361963 -8.76585e-11 -195457 -1.48721e-10 91408.7)
(727349 -701633 -3.45124e-10 755899 -5.08132e-10 125487)
(1.16397e+06 -746074 -4.04599e-10 415726 -5.20759e-10 137505)
(1.42124e+06 -706606 -3.42597e-10 232646 -4.51563e-10 127078)
(1.59061e+06 -648327 -2.82108e-10 85317 -3.8159e-10 117191)
(1.70416e+06 -582533 -2.2501e-10 -13007.8 -3.17085e-10 111005)
(1.77713e+06 -519008 -1.75294e-10 -86629.1 -2.60402e-10 105977)
(1.82368e+06 -459980 -1.32186e-10 -138869 -2.11414e-10 102349)
(1.85332e+06 -405404 -9.42669e-11 -175918 -1.68567e-10 99791.6)
(1.86323e+06 -357279 -6.3278e-11 -203538 -1.32755e-10 97383.9)
(1.8807e+06 -315458 -3.48311e-11 -215150 -1.02306e-10 97344.9)
(1.04569e+06 -901586 -4.41655e-10 905354 -6.451e-10 166671)
(1.47459e+06 -845146 -4.17131e-10 481924 -5.67256e-10 160174)
(1.71356e+06 -745586 -3.2117e-10 264586 -4.55991e-10 145241)
(1.85864e+06 -649949 -2.4154e-10 98061.6 -3.61212e-10 132184)
(1.94771e+06 -559237 -1.7289e-10 -7583.59 -2.81503e-10 124183)
(1.9968e+06 -479192 -1.16686e-10 -85314.8 -2.15479e-10 117668)
(2.02195e+06 -408918 -6.99408e-11 -138765 -1.60757e-10 112978)
(2.03095e+06 -346872 -3.05997e-11 -176868 -1.1462e-10 109362)
(2.02433e+06 -294093 7.11833e-13 -204849 -7.71063e-11 106151)
(2.02403e+06 -247273 2.94717e-11 -219369 -4.45412e-11 104920)
(1.43115e+06 -1.102e+06 -5.42511e-10 1.01918e+06 -7.81305e-10 211713)
(1.81171e+06 -927585 -4.15349e-10 541465 -5.99735e-10 183537)
(2.01619e+06 -761902 -2.84032e-10 303926 -4.45427e-10 165208)
(2.12506e+06 -626859 -1.85756e-10 125000 -3.26294e-10 149298)
(2.18333e+06 -511276 -1.06508e-10 16210.8 -2.32434e-10 139711)
(2.20392e+06 -415853 -4.52102e-11 -63116.3 -1.58509e-10 131789)
(2.20465e+06 -335901 3.75491e-12 -116376 -9.95065e-11 126046)
(2.19111e+06 -268457 4.29638e-11 -153522 -5.18441e-11 121508)
(2.16803e+06 -213724 7.29197e-11 -183326 -1.42371e-11 117267)
(2.14753e+06 -166500 9.88539e-11 -194093 1.64343e-11 115524)
(911970 -64260.5 -2.65833e-11 -8158.12 -4.31801e-11 79601.9)
(988158 -57276.3 -1.04666e-11 -6448.8 -3.22509e-11 83721.7)
(1.058e+06 -51148.5 4.13425e-12 -5160.57 -2.23815e-11 87458.1)
(1.12046e+06 -45580.5 1.72455e-11 -4195.42 -1.34748e-11 90776.9)
(1.17671e+06 -40428.4 2.91374e-11 -3269.19 -5.37013e-12 93774.7)
(1.22686e+06 -35809.7 3.9754e-11 -2574.39 1.88747e-12 96430.8)
(1.27166e+06 -31588.4 4.92974e-11 -1928.13 8.43099e-12 98808.3)
(1.31139e+06 -27784.6 5.77981e-11 -1422.77 1.4282e-11 100909)
(1.34658e+06 -24311.9 6.53914e-11 -982.834 1.95336e-11 102770)
(1.37752e+06 -21142.9 7.21374e-11 -637.189 2.42313e-11 104402)
(1.40455e+06 -18213.9 7.81307e-11 -357.275 2.84443e-11 105828)
(1.42789e+06 -15483.7 8.34305e-11 -149.782 3.22193e-11 107058)
(1.44775e+06 -12901.8 8.80992e-11 -6.63963 3.56059e-11 108103)
(1.46427e+06 -10431.4 9.21827e-11 73.0021 3.86408e-11 108973)
(1.47754e+06 -8041.68 9.57132e-11 87.5499 4.13519e-11 109670)
(1.48768e+06 -5728.55 9.87107e-11 49.4281 4.37506e-11 110204)
(1.4947e+06 -3516.98 1.01163e-10 -44.5491 4.58215e-11 110573)
(1.49893e+06 -1527.25 1.03047e-10 -109.324 4.75045e-11 110804)
(1.50038e+06 17.6024 1.04229e-10 -84.2637 4.86462e-11 110902)
(1.50036e+06 417.313 1.04482e-10 663.094 4.88221e-11 111004)
(1.01868e+06 -183899 -8.42556e-11 -17455.6 -1.11977e-10 81991.1)
(1.07382e+06 -165267 -6.41994e-11 -17229.5 -9.49858e-11 85036.6)
(1.12704e+06 -148771 -4.57477e-11 -15840.7 -7.97028e-11 88106.6)
(1.17441e+06 -133340 -2.8866e-11 -15048.2 -6.55544e-11 90792.7)
(1.21827e+06 -118923 -1.31487e-11 -13685 -5.24422e-11 93363.1)
(1.25764e+06 -105873 1.02354e-12 -12714.4 -4.05713e-11 95638.9)
(1.2935e+06 -93835.5 1.40293e-11 -11597 -2.96855e-11 97744.6)
(1.32563e+06 -82911.8 2.57673e-11 -10712.3 -1.9827e-11 99618.2)
(1.35455e+06 -72872.9 3.64594e-11 -9869.68 -1.0823e-11 101313)
(1.38029e+06 -63669.4 4.61419e-11 -9193.52 -2.62311e-12 102816)
(1.40315e+06 -55139.9 5.49602e-11 -8618.45 4.89689e-12 104153)
(1.42323e+06 -47187.2 6.29908e-11 -8172.88 1.18135e-11 105326)
(1.44071e+06 -39689.1 7.03381e-11 -7824.32 1.82191e-11 106350)
(1.45572e+06 -32561.1 7.70733e-11 -7550.67 2.4178e-11 107237)
(1.46836e+06 -25734.5 8.3254e-11 -7306.01 2.97377e-11 107996)
(1.47878e+06 -19208.4 8.8907e-11 -6986.01 3.49005e-11 108651)
(1.48698e+06 -13044.5 9.39955e-11 -6468.61 3.96119e-11 109215)
(1.49326e+06 -7502.05 9.84107e-11 -5408.89 4.36868e-11 109746)
(1.49734e+06 -2906.79 1.01909e-10 -3406.7 4.6839e-11 110276)
(1.50003e+06 -405.895 1.03921e-10 703.021 4.82453e-11 110981)
(1.13631e+06 -263803 -1.15974e-10 -54381.1 -1.50414e-10 81902)
(1.17079e+06 -238687 -9.50896e-11 -53362.5 -1.31e-10 84113.5)
(1.20802e+06 -216114 -7.53095e-11 -48776.4 -1.13442e-10 86890.1)
(1.2402e+06 -195062 -5.72666e-11 -45535.4 -9.71629e-11 89218.5)
(1.27167e+06 -175072 -3.99786e-11 -41125.8 -8.17822e-11 91647.5)
(1.29994e+06 -156862 -2.42959e-11 -37578.8 -6.77507e-11 93779.8)
(1.32657e+06 -139872 -9.62126e-12 -33908 -5.46792e-11 95828.6)
(1.3507e+06 -124340 3.75873e-12 -30819.6 -4.27164e-11 97656.4)
(1.37294e+06 -109960 1.61301e-11 -27991.1 -3.16461e-11 99339.6)
(1.39305e+06 -96711.3 2.74667e-11 -25630.7 -2.14509e-11 100839)
(1.4113e+06 -84399 3.79305e-11 -23628.3 -1.19927e-11 102186)
(1.42766e+06 -72919 4.75835e-11 -22018 -3.19954e-12 103376)
(1.44227e+06 -62125.8 5.65375e-11 -20731.3 5.02815e-12 104427)
(1.45521e+06 -51918.1 6.48672e-11 -19709.1 1.27564e-11 105351)
(1.46653e+06 -42206.3 7.26392e-11 -18838.3 2.00371e-11 106168)
(1.47638e+06 -32959.6 7.98947e-11 -17909.7 2.68768e-11 106913)
(1.48465e+06 -24191 8.66162e-11 -16643.9 3.32283e-11 107616)
(1.4916e+06 -16034.7 9.27647e-11 -14453.6 3.89551e-11 108364)
(1.49653e+06 -8682.48 9.81229e-11 -10584.9 4.37843e-11 109219)
(1.50026e+06 -2430.91 1.02652e-10 -3627.68 4.7428e-11 110400)
(1.27114e+06 -319688 -1.30153e-10 -89877.6 -1.71687e-10 83200.8)
(1.28412e+06 -291105 -1.10451e-10 -89396.8 -1.5176e-10 84320.9)
(1.30515e+06 -264779 -9.08231e-11 -82501.5 -1.33375e-10 86644.4)
(1.32126e+06 -240597 -7.33116e-11 -77954 -1.16555e-10 88386.6)
(1.33957e+06 -217158 -5.58931e-11 -71183.6 -1.00294e-10 90516.8)
(1.35575e+06 -195765 -4.00866e-11 -65659 -8.54238e-11 92349.1)
(1.3722e+06 -175548 -2.49607e-11 -59806.2 -7.13435e-11 94221.1)
(1.38735e+06 -156952 -1.10494e-11 -54764 -5.83518e-11 95899.2)
(1.40199e+06 -139602 2.00773e-12 -50075.7 -4.61851e-11 97488)
(1.41557e+06 -123537 1.40982e-11 -46065.6 -3.48791e-11 98917.6)
(1.42835e+06 -108553 2.53893e-11 -42594.7 -2.42931e-11 100221)
(1.44017e+06 -94557.4 3.59123e-11 -39716.1 -1.4374e-11 101386)
(1.4511e+06 -81400.6 4.57732e-11 -37341.8 -5.02612e-12 102429)
(1.46113e+06 -68970.7 5.504e-11 -35390.3 3.81357e-12 103361)
(1.47026e+06 -57157.3 6.37831e-11 -33708.9 1.22002e-11 104205)
(1.47853e+06 -45879.4 7.20629e-11 -32035 2.01614e-11 104997)
(1.48576e+06 -35077.8 7.98896e-11 -30028.6 2.76801e-11 105774)
(1.49213e+06 -24685.7 8.73411e-11 -27036.3 3.47404e-11 106629)
(1.49665e+06 -14761.9 9.42393e-11 -22305.8 4.1134e-11 107613)
(1.50038e+06 -4587.82 1.01206e-10 -14393 4.72565e-11 108974)
(1.41297e+06 -347798 -1.26137e-10 -132095 -1.73245e-10 84373.6)
(1.40407e+06 -319182 -1.09803e-10 -132220 -1.55097e-10 84324.9)
(1.40955e+06 -291463 -9.16796e-11 -122172 -1.37486e-10 86303.3)
(1.40955e+06 -266813 -7.63498e-11 -116141 -1.21907e-10 87442.3)
(1.41493e+06 -242202 -6.01714e-11 -106571 -1.06301e-10 89309)
(1.4189e+06 -219795 -4.55944e-11 -98691.9 -9.20761e-11 90854.1)
(1.42506e+06 -198293 -3.1233e-11 -90237.3 -7.83282e-11 92569.8)
(1.43096e+06 -178384 -1.79092e-11 -82803.4 -6.55359e-11 94117.3)
(1.43768e+06 -159639 -5.18567e-12 -75830.5 -5.33895e-11 95628.4)
(1.44434e+06 -142169 6.73011e-12 -69757.1 -4.19856e-11 97001.9)
(1.45121e+06 -125788 1.79935e-11 -64440.1 -3.11964e-11 98271.2)
(1.45798e+06 -110430 2.85991e-11 -59958.3 -2.09944e-11 99412.3)
(1.46466e+06 -95955.5 3.86358e-11 -56219.4 -1.1297e-11 100440)
(1.47117e+06 -82246.4 4.81627e-11 -53136.7 -2.04483e-12 101362)
(1.47741e+06 -69171.4 5.72515e-11 -50543.5 6.82275e-12 102199)
(1.48338e+06 -56584.5 6.5993e-11 -48164.8 1.53695e-11 102986)
(1.48879e+06 -44350.9 7.44314e-11 -45656.6 2.36204e-11 103758)
(1.49377e+06 -32184.7 8.27707e-11 -42395.6 3.17031e-11 104606)
(1.49729e+06 -20078.8 9.08621e-11 -37735.9 3.94588e-11 105561)
(1.50041e+06 -6463.96 9.98607e-11 -30356.4 4.7864e-11 106872)
(1.56076e+06 -350534 -1.05446e-10 -170122 -1.58024e-10 86753)
(1.52926e+06 -325414 -9.47942e-11 -172446 -1.43863e-10 85241.5)
(1.51973e+06 -298449 -7.94242e-11 -159699 -1.28345e-10 86812.6)
(1.50347e+06 -275663 -6.7753e-11 -153030 -1.15459e-10 87197.4)
(1.49605e+06 -251825 -5.40059e-11 -141337 -1.01704e-10 88691.2)
(1.48774e+06 -230175 -4.17736e-11 -131624 -8.9241e-11 89851.8)
(1.48347e+06 -209016 -2.9212e-11 -121051 -7.68566e-11 91318.2)
(1.47993e+06 -189246 -1.74086e-11 -111541 -6.52032e-11 92663)
(1.47841e+06 -170443 -5.89655e-12 -102520 -5.39589e-11 94031.5)
(1.47783e+06 -152766 5.05004e-12 -94500.1 -4.32632e-11 95299.5)
(1.47837e+06 -136077 1.55489e-11 -87381.2 -3.30189e-11 96492.6)
(1.47965e+06 -120332 2.55642e-11 -81277.6 -2.32182e-11 97576.4)
(1.48159e+06 -105418 3.51574e-11 -76129.9 -1.37987e-11 98557.6)
(1.48404e+06 -91217.6 4.43757e-11 -71879.4 -4.70396e-12 99436.4)
(1.48684e+06 -77588.2 5.32867e-11 -68388.4 4.13212e-12 100226)
(1.48992e+06 -64327.9 6.20046e-11 -65425 1.28083e-11 100955)
(1.49296e+06 -51245.8 7.06043e-11 -62702.5 2.13921e-11 101649)
(1.49602e+06 -37867.9 7.93928e-11 -59718.9 3.01423e-11 102382)
(1.49818e+06 -24168.8 8.8251e-11 -55992 3.89425e-11 103172)
(1.50035e+06 -7912.86 9.87145e-11 -50456.8 4.92227e-11 104234)
(1.70808e+06 -327979 -6.91013e-11 -202095 -1.26842e-10 90260)
(1.65409e+06 -310176 -6.65021e-11 -208531 -1.18961e-10 86987.8)
(1.63078e+06 -286190 -5.50862e-11 -194127 -1.06779e-10 88044.7)
(1.59882e+06 -267471 -4.83601e-11 -187556 -9.79112e-11 87575.6)
(1.57911e+06 -246456 -3.82444e-11 -174612 -8.72155e-11 88579.3)
(1.559e+06 -227235 -2.93211e-11 -163386 -7.75395e-11 89313.6)
(1.54448e+06 -207998 -1.95104e-11 -151036 -6.75051e-11 90472.9)
(1.5317e+06 -189680 -1.00113e-11 -139575 -5.78261e-11 91590.1)
(1.52197e+06 -172011 -4.46515e-13 -128616 -4.82566e-11 92785.1)
(1.5141e+06 -155170 8.87849e-12 -118702 -3.89544e-11 93924.2)
(1.50818e+06 -139117 1.80057e-11 -109829 -2.98855e-11 95014.3)
(1.50376e+06 -123840 2.68698e-11 -102145 -2.10638e-11 96013.3)
(1.5007e+06 -109272 3.5492e-11 -95639.5 -1.24571e-11 96916.5)
(1.49876e+06 -95302.3 4.39033e-11 -90296.7 -4.01546e-12 97715.8)
(1.49777e+06 -81790.7 5.2164e-11 -86029.1 4.32837e-12 98415.6)
(1.49757e+06 -68496.3 6.04006e-11 -82680.4 1.27022e-11 99032)
(1.49788e+06 -55192.4 6.8715e-11 -80052.1 2.121e-11 99580.7)
(1.49865e+06 -41268.4 7.74798e-11 -77819.1 3.02122e-11 100110)
(1.49928e+06 -26709.4 8.66134e-11 -75671.5 3.96307e-11 100630)
(1.50023e+06 -8829.61 9.78605e-11 -72928.8 5.12015e-11 101291)
(1.84989e+06 -281800 -1.88441e-11 -222259 -8.18964e-11 95368.4)
(1.77487e+06 -275110 -2.64463e-11 -234740 -8.24537e-11 90101.7)
(1.73908e+06 -256478 -2.02823e-11 -221257 -7.47676e-11 90340.1)
(1.69285e+06 -243313 -1.92087e-11 -215414 -7.07028e-11 88985.2)
(1.66135e+06 -226932 -1.37894e-11 -203000 -6.40137e-11 89265.5)
(1.63038e+06 -211428 -8.83945e-12 -191357 -5.7769e-11 89459.7)
(1.60594e+06 -195534 -2.62516e-12 -178427 -5.08575e-11 90152)
(1.58432e+06 -179917 3.85e-12 -165852 -4.38468e-11 90934.7)
(1.56652e+06 -164565 1.07487e-11 -153574 -3.66489e-11 91865.7)
(1.55146e+06 -149616 1.78104e-11 -142141 -2.93863e-11 92817.1)
(1.53908e+06 -135140 2.4982e-11 -131708 -2.20909e-11 93765.3)
(1.52891e+06 -121161 3.21726e-11 -122505 -1.47933e-11 94656.7)
(1.52074e+06 -107672 3.93533e-11 -114628 -7.49446e-12 95468.2)
(1.51429e+06 -94592.5 4.65286e-11 -108149 -1.58262e-13 96177.1)
(1.50933e+06 -81806.3 5.37378e-11 -103076 7.27478e-12 96774)
(1.50567e+06 -69064.8 6.11015e-11 -99369.7 1.49464e-11 97256.4)
(1.50308e+06 -56133.6 6.87355e-11 -96953.8 2.2985e-11 97627.9)
(1.5014e+06 -42327.6 7.70352e-11 -95721.9 3.18146e-11 97902.8)
(1.50043e+06 -27660.1 8.59653e-11 -95536.2 4.13945e-11 98089.1)
(1.50004e+06 -9197.12 9.73263e-11 -96198.8 5.36293e-11 98249.2)
(1.98201e+06 -216307 4.20559e-11 -226819 -2.68279e-11 102301)
(1.88785e+06 -222790 2.32584e-11 -246394 -3.69008e-11 94968.5)
(1.84044e+06 -213230 2.1928e-11 -239873 -3.53948e-11 93591.7)
(1.78268e+06 -206683 1.71026e-11 -235709 -3.64928e-11 91348.3)
(1.73984e+06 -196828 1.67085e-11 -225250 -3.48556e-11 90715.7)
(1.69948e+06 -185938 1.73518e-11 -213529 -3.24694e-11 90385.6)
(1.66584e+06 -174139 1.96133e-11 -200334 -2.90793e-11 90595)
(1.6362e+06 -161801 2.28293e-11 -186978 -2.5009e-11 91032.7)
(1.6109e+06 -149279 2.68281e-11 -173785 -2.04272e-11 91668)
(1.58908e+06 -136748 3.13605e-11 -161305 -1.54601e-11 92384.1)
(1.57051e+06 -124380 3.62827e-11 -149799 -1.02104e-11 93132.8)
(1.55474e+06 -112250 4.1475e-11 -139551 -4.73337e-12 93854.2)
(1.54149e+06 -100394 4.68721e-11 -130733 9.44591e-13 94511.7)
(1.53047e+06 -88767.4 5.24526e-11 -123498 6.84415e-12 95070.9)
(1.52147e+06 -77275.9 5.82392e-11 -117946 1.30204e-11 95509.4)
(1.51421e+06 -65683.1 6.43388e-11 -114169 1.96186e-11 95805.7)
(1.50861e+06 -53763.7 7.08743e-11 -112225 2.67855e-11 95950.9)
(1.50435e+06 -40817.1 7.82281e-11 -112246 3.49714e-11 95921.5)
(1.50171e+06 -26879 8.64232e-11 -114273 4.41828e-11 95726.7)
(1.49987e+06 -8971.8 9.71702e-11 -118654 5.63551e-11 95322.4)
(2.09243e+06 -131957 1.11411e-10 -219923 3.75126e-11 109914)
(1.99693e+06 -147550 8.68155e-11 -235531 2.08528e-11 102900)
(1.93587e+06 -150960 7.51843e-11 -242582 1.41934e-11 98890)
(1.87147e+06 -151971 6.45936e-11 -243725 8.15127e-12 95517.5)
(1.81719e+06 -150865 5.69405e-11 -239529 3.75544e-12 93374)
(1.76787e+06 -147104 5.1743e-11 -231339 1.07515e-12 92035.1)
(1.72486e+06 -141546 4.86696e-11 -220230 -2.14998e-13 91416.4)
(1.68699e+06 -134444 4.73638e-11 -207573 -2.25345e-13 91277.6)
(1.65409e+06 -126277 4.74948e-11 -194165 8.05775e-13 91499.5)
(1.62549e+06 -117387 4.8738e-11 -180843 2.69281e-12 91935.4)
(1.60083e+06 -108064 5.08488e-11 -168140 5.27323e-12 92492.8)
(1.57962e+06 -98515.3 5.3619e-11 -156538 8.4246e-12 93082)
(1.5615e+06 -88873.1 5.6909e-11 -146380 1.20692e-11 93639.1)
(1.54611e+06 -79178.9 6.06314e-11 -137966 1.61831e-11 94106)
(1.53322e+06 -69404.6 6.47655e-11 -131533 2.07913e-11 94440.6)
(1.52249e+06 -59370.7 6.93684e-11 -127335 2.60146e-11 94596.5)
(1.51395e+06 -48894.2 7.45537e-11 -125580 3.19991e-11 94549.5)
(1.50713e+06 -37327.3 8.0646e-11 -126663 3.9178e-11 94234.8)
(1.50284e+06 -24729.6 8.77313e-11 -130810 4.76082e-11 93662.8)
(1.49959e+06 -8263.79 9.73246e-11 -138917 5.91386e-11 92683)
(2.15679e+06 -62162.4 1.64827e-10 -197301 8.64892e-11 117068)
(2.06859e+06 -70066 1.4611e-10 -213631 7.56133e-11 110433)
(1.99838e+06 -85796.6 1.2533e-10 -229788 6.10882e-11 104606)
(1.93165e+06 -92977.5 1.10493e-10 -236618 5.14291e-11 100289)
(1.87244e+06 -98022.7 9.82195e-11 -236699 4.30444e-11 97255)
(1.81842e+06 -100136 8.86161e-11 -232234 3.65139e-11 95113)
(1.77042e+06 -99970.9 8.13986e-11 -223955 3.15621e-11 93800)
(1.72747e+06 -97898.3 7.6171e-11 -213436 2.80441e-11 93057.9)
(1.68957e+06 -94283.1 7.26937e-11 -201520 2.58146e-11 92771)
(1.65613e+06 -89498.1 7.06348e-11 -189159 2.46872e-11 92781.1)
(1.62686e+06 -83842.6 6.97571e-11 -177002 2.45149e-11 92985.1)
(1.60131e+06 -77567.6 6.98288e-11 -165647 2.51627e-11 93279.3)
(1.57918e+06 -70851.8 7.06861e-11 -155553 2.65394e-11 93585.9)
(1.5601e+06 -63793.8 7.22068e-11 -147144 2.85973e-11 93830.4)
(1.54387e+06 -56421.6 7.43374e-11 -140779 3.13422e-11 93955.5)
(1.53015e+06 -48631.7 7.70847e-11 -136857 3.48594e-11 93893.5)
(1.51904e+06 -40303.6 8.05369e-11 -135739 3.92796e-11 93605.1)
(1.50998e+06 -30935 8.49077e-11 -138033 4.49552e-11 92989.7)
(1.50416e+06 -20612.3 9.03252e-11 -144163 5.19817e-11 92050.9)
(1.49952e+06 -6875.96 9.79744e-11 -155499 6.19632e-11 90542.1)
(2.12624e+06 7350.3 2.03442e-10 -171254 1.26768e-10 119932)
(2.05619e+06 -1957.16 1.86442e-10 -205936 1.18636e-10 111795)
(1.99162e+06 -21456.1 1.64193e-10 -222806 1.02187e-10 106103)
(1.93065e+06 -34077.8 1.46847e-10 -232202 8.97242e-11 101660)
(1.87568e+06 -44046.1 1.32161e-10 -234019 7.86519e-11 98541)
(1.82476e+06 -51071.3 1.19978e-10 -231155 6.93285e-11 96274.9)
(1.77883e+06 -55581.4 1.1017e-10 -224336 6.16353e-11 94807.8)
(1.73704e+06 -57968.6 1.02344e-10 -215102 5.54191e-11 93891.8)
(1.69954e+06 -58562.7 9.63114e-11 -204279 5.05714e-11 93422.5)
(1.66592e+06 -57718.4 9.17739e-11 -192822 4.69306e-11 93249.1)
(1.63602e+06 -55724.9 8.85238e-11 -181393 4.43708e-11 93274.5)
(1.60953e+06 -52837.7 8.63457e-11 -170626 4.27688e-11 93396.3)
(1.58624e+06 -49247.1 8.50839e-11 -161021 4.20393e-11 93536.9)
(1.56588e+06 -45083.8 8.46099e-11 -153057 4.21281e-11 93618.1)
(1.54833e+06 -40407.9 8.48624e-11 -147155 4.30332e-11 93578.4)
(1.53331e+06 -35195.7 8.58069e-11 -143799 4.48028e-11 93341.2)
(1.52103e+06 -29369.9 8.75195e-11 -143433 4.75569e-11 92860.5)
(1.51092e+06 -22623.8 9.00923e-11 -146779 5.15328e-11 92018.1)
(1.50446e+06 -15082.7 9.3671e-11 -154419 5.68423e-11 90810.9)
(1.49926e+06 -4974.57 9.89639e-11 -167894 6.46276e-11 88944.1)
(2.10283e+06 77055.8 2.43334e-10 -140696 1.67264e-10 123743)
(2.03815e+06 61888.4 2.23469e-10 -181071 1.56379e-10 115049)
(1.98334e+06 38630.3 2.00354e-10 -201912 1.38741e-10 109271)
(1.92698e+06 21629.2 1.80958e-10 -215674 1.24285e-10 104428)
(1.87625e+06 7481.27 1.64295e-10 -221221 1.11246e-10 100975)
(1.82785e+06 -3744.3 1.49861e-10 -221711 9.97512e-11 98337.3)
(1.78373e+06 -12326.8 1.37779e-10 -217722 8.9851e-11 96534)
(1.74293e+06 -18686.9 1.2762e-10 -210882 8.13736e-11 95299.3)
(1.70593e+06 -23090.5 1.19281e-10 -202014 7.42777e-11 94545.3)
(1.67234e+06 -25873.2 1.12485e-10 -192132 6.84269e-11 94116.6)
(1.64215e+06 -27299 1.0706e-10 -181947 6.37285e-11 93916.7)
(1.61513e+06 -27618.4 1.02803e-10 -172157 6.00763e-11 93838.9)
(1.59114e+06 -27029.2 9.95658e-11 -163327 5.73946e-11 93800.3)
(1.56997e+06 -25686.3 9.72132e-11 -156007 5.56263e-11 93717)
(1.55156e+06 -23687.4 9.56679e-11 -150696 5.47582e-11 93518.9)
(1.53569e+06 -21084.3 9.48599e-11 -147944 5.48023e-11 93123.4)
(1.52261e+06 -17849.4 9.48368e-11 -148314 5.58626e-11 92470)
(1.51181e+06 -13916.8 9.55512e-11 -152513 5.80202e-11 91441.8)
(1.50494e+06 -9353.87 9.72099e-11 -161237 6.14529e-11 90030.1)
(1.49921e+06 -3042.43 1.00051e-10 -176244 6.68626e-11 87882.8)
(2.06056e+06 131477 2.70798e-10 -114528 1.96561e-10 125822)
(2.00433e+06 115795 2.51866e-10 -159469 1.86586e-10 116948)
(1.95862e+06 91288.8 2.29354e-10 -182914 1.69203e-10 111268)
(1.9084e+06 72161 2.09554e-10 -199673 1.54214e-10 106310)
(1.86316e+06 55232 1.91987e-10 -207839 1.4011e-10 102749)
(1.81879e+06 40950.1 1.76256e-10 -210771 1.27225e-10 99951.5)
(1.77793e+06 29119.5 1.6264e-10 -208971 1.15711e-10 97978.8)
(1.73953e+06 19457.7 1.50785e-10 -204088 1.05484e-10 96561.7)
(1.70431e+06 11763.2 1.40664e-10 -196931 9.65653e-11 95626.5)
(1.67194e+06 5763.62 1.32049e-10 -188527 8.8866e-11 95020.4)
(1.64256e+06 1230.9 1.2481e-10 -179598 8.23299e-11 94652.7)
(1.616e+06 -2063.27 1.1877e-10 -170867 7.6875e-11 94417.1)