/*--------------------------------*- C++ -*----------------------------------*\
  =========                 |
  \\      /  F ield         | OpenFOAM: The Open Source CFD Toolbox
   \\    /   O peration     | Website:  https://openfoam.org
    \\  /    A nd           | Version:  9
     \\/     M anipulation  |
\*---------------------------------------------------------------------------*/
FoamFile
{
    format      ascii;
    class       volSymmTensorField;
    location    "15";
    object      sigma;
}
// * * * * * * * * * * * * * * * * * * * * * * * * * * * * * * * * * * * * * //

dimensions      [1 -1 -2 0 0 0 0];

internalField   nonuniform List<symmTensor> 
1000
(
(1.84445e+06 -1.26229e+06 -1.17166e-09 1.07195e+06 8.41075e-10 874919)
(2.16427e+06 -973728 -2.00624e-09 585235 1.12362e-09 824852)
(2.3252e+06 -745796 2.33873e-09 355613 -4.48488e-10 804243)
(2.3931e+06 -573881 6.00783e-10 175982 -4.29112e-10 770724)
(2.41783e+06 -435642 -2.53898e-09 70574.5 1.86288e-10 746523)
(2.40772e+06 -327536 -2.74846e-10 -7740.38 3.01364e-10 719994)
(2.38324e+06 -239753 -2.30562e-09 -58335.8 -1.23764e-09 697470)
(2.34576e+06 -169898 1.58243e-09 -94800.3 7.39767e-10 675289)
(2.3069e+06 -111959 -8.15869e-10 -118856 -9.28421e-10 656414)
(2.25592e+06 -63524.1 0 -141839 0 634225)
(2.33924e+06 -1.40374e+06 -1.91815e-09 1.08169e+06 7.1069e-11 1.02628e+06)
(2.55018e+06 -1.00507e+06 0 616913 0 950129)
(2.63661e+06 -717066 1.87107e-09 407777 8.91596e-10 913317)
(2.64472e+06 -510185 -3.2105e-09 237421 -1.71245e-09 864642)
(2.62331e+06 -352481 -1.36452e-09 140145 -8.22917e-10 829036)
(2.57537e+06 -234492 9.49564e-10 65154.6 9.68617e-10 792158)
(2.52007e+06 -142445 1.0634e-09 16832.8 7.12767e-10 761071)
(2.45707e+06 -72402.7 2.50021e-09 -21124 1.45948e-09 730783)
(2.39456e+06 -15768 0 -44404.4 0 705047)
(2.32571e+06 29762.1 0 -75617 0 675029)
(2.87225e+06 -1.49322e+06 0 1.04199e+06 0 1.17427e+06)
(2.94331e+06 -1.00382e+06 0 634319 0 1.07329e+06)
(2.93839e+06 -667343 1.78335e-09 464723 9.2152e-10 1.02093e+06)
(2.87641e+06 -433083 -5.35519e-10 314887 1.8939e-10 957389)
(2.80275e+06 -261621 -2.62205e-11 232442 1.16899e-11 910558)
(2.71338e+06 -138048 -8.85349e-10 164767 -9.16407e-10 863444)
(2.62554e+06 -45300.9 1.20906e-09 121280 5.5914e-10 824046)
(2.53588e+06 22501.9 -8.9764e-10 83756.6 -6.62983e-10 785891)
(2.45169e+06 75106.3 -7.23787e-11 61350.3 1.24968e-10 753911)
(2.3643e+06 118009 -1.89527e-10 25176.8 -8.16264e-11 716843)
(3.42613e+06 -1.51787e+06 -1.03812e-09 960581 1.4845e-11 1.31601e+06)
(3.33479e+06 -966029 1.02276e-09 639351 -1.05766e-10 1.19224e+06)
(3.22584e+06 -597426 -8.15039e-10 525799 -4.59962e-10 1.12549e+06)
(3.08543e+06 -346333 -5.16841e-10 406197 1.00295e-10 1.04749e+06)
(2.95454e+06 -168636 9.24396e-10 343987 8.938e-10 989557)
(2.8212e+06 -44755 -1.11291e-09 286330 -7.35978e-10 932261)
(2.69968e+06 44747.5 -9.61478e-10 248426 -6.84251e-10 884432)
(2.58394e+06 107802 -2.14289e-09 211763 -1.56778e-09 838710)
(2.47887e+06 154233 -3.0724e-10 188729 -3.75156e-10 800280)
(2.37613e+06 192115 5.24891e-10 149862 4.64225e-10 757799)
(3.97614e+06 -1.46638e+06 -5.32176e-10 847502 -8.97818e-11 1.44709e+06)
(3.71317e+06 -886576 5.34878e-14 634577 2.54067e-15 1.30432e+06)
(3.49239e+06 -506291 -2.63877e-09 590748 -1.29289e-09 1.22494e+06)
(3.26809e+06 -251854 2.39984e-10 509531 -9.11078e-12 1.13329e+06)
(3.07686e+06 -77685.3 -3.36247e-10 472004 3.55827e-11 1.06466e+06)
(2.89851e+06 39620.5 8.01311e-10 426374 7.40267e-10 997467)
(2.74374e+06 120903 -8.98483e-11 394413 2.65624e-11 941446)
(2.60315e+06 175803 8.45739e-10 358461 5.65177e-10 888484)
(2.47938e+06 213597 -1.83008e-10 333315 -3.91534e-10 843808)
(2.36327e+06 244423 -3.34517e-10 291750 -2.7016e-10 796506)
(4.50954e+06 -1.33575e+06 -1.75881e-09 720401 -2.49299e-11 1.56898e+06)
(4.07299e+06 -762074 4.87794e-14 628664 1.02909e-14 1.4105e+06)
(3.73622e+06 -392657 -2.63757e-14 664748 -4.08155e-15 1.32029e+06)
(3.42396e+06 -151462 2.12085e-10 626356 2.60139e-11 1.21509e+06)
(3.17063e+06 7263.69 -1.14184e-09 615065 -6.94258e-10 1.13571e+06)
(2.94756e+06 109791 1.30251e-11 581015 -1.17575e-13 1.05857e+06)
(2.76102e+06 177422 8.49852e-10 553563 5.75449e-10 994374)
(2.59782e+06 220706 1.80707e-09 517010 1.32144e-09 934448)
(2.4578e+06 247841 3.27349e-10 487881 2.40159e-10 883705)
(2.33074e+06 269981 -5.71581e-10 443263 -4.50053e-10 832199)
(4.99335e+06 -1.11783e+06 2.7011e-09 593398 1.52163e-10 1.67602e+06)
(4.39735e+06 -583285 7.65245e-10 631201 3.06736e-10 1.50857e+06)
(3.94204e+06 -253113 8.07795e-10 754709 3.66874e-10 1.40902e+06)
(3.54173e+06 -46221.5 -1.7434e-10 758894 -5.19955e-11 1.29019e+06)
(3.22898e+06 82284 8.25423e-10 770648 5.52194e-10 1.19989e+06)
(2.96551e+06 160448 -7.59668e-10 744232 -5.23191e-10 1.11292e+06)
(2.75192e+06 208760 2.16288e-10 717494 1.33179e-11 1.04082e+06)
(2.57043e+06 237266 -6.78338e-10 677599 -4.44461e-10 974410)
(2.41806e+06 252500 -4.69639e-11 642130 5.86061e-12 918057)
(2.28292e+06 265130 -3.43748e-10 593567 -2.24297e-10 862946)
(5.45929e+06 -811948 4.00813e-09 504601 2.22413e-10 1.78917e+06)
(4.68952e+06 -341208 -2.03768e-09 677135 -7.33232e-10 1.61e+06)
(4.1095e+06 -85800.3 1.57937e-11 887714 8.67137e-12 1.49916e+06)
(3.62387e+06 57741.6 2.54955e-10 920967 1.2921e-10 1.36345e+06)
(3.25728e+06 139220 1.88756e-09 942161 9.38522e-10 1.25983e+06)
(2.96076e+06 184101 -1.11685e-10 912647 -3.50002e-11 1.16202e+06)
(2.72662e+06 209418 2.78066e-15 878596 5.54482e-16 1.08157e+06)
(2.53247e+06 222189 -6.63776e-10 830517 -3.50017e-10 1.0089e+06)
(2.37217e+06 226400 1.61264e-11 785741 7.08358e-13 947374)
(2.2322e+06 230418 4.96929e-11 732151 2.44598e-11 889304)
(5.84739e+06 -379598 1.89766e-09 501199 -1.58455e-11 1.90458e+06)
(4.88725e+06 -34468.3 -2.24533e-09 827419 -9.4228e-10 1.7144e+06)
(4.17795e+06 87193.8 2.34658e-10 1.09512e+06 1.99986e-10 1.58192e+06)
(3.6266e+06 132765 2.20566e-10 1.1195e+06 1.74284e-10 1.42383e+06)
(3.23141e+06 155585 -9.22787e-11 1.11961e+06 -5.63394e-11 1.30531e+06)
(2.92157e+06 163523 7.35251e-10 1.06884e+06 2.67059e-10 1.19712e+06)
(2.68135e+06 167425 4.02212e-11 1.0167e+06 1.23828e-11 1.10941e+06)
(2.4841e+06 167476 1.18595e-09 955388 4.53599e-10 1.03185e+06)
(2.32209e+06 164637 2.61829e-10 899511 1.01189e-10 966480)
(2.18094e+06 163185 1.467e-10 840753 5.87639e-11 906508)
(6.35652e+06 339246 1.16309e-09 874288 1.50693e-10 2.16924e+06)
(4.97591e+06 379261 -1.72329e-10 1.29971e+06 -2.97898e-10 1.88269e+06)
(4.17027e+06 250336 7.79725e-10 1.4389e+06 3.30818e-10 1.68275e+06)
(3.60229e+06 162447 4.01521e-11 1.37214e+06 5.62688e-11 1.49233e+06)
(3.20565e+06 128124 1.37196e-15 1.29311e+06 1.27625e-15 1.34963e+06)
(2.89741e+06 109164 7.457e-10 1.19755e+06 1.338e-10 1.22849e+06)
(2.6588e+06 102362 1.15827e-11 1.11466e+06 3.42113e-12 1.13204e+06)
(2.46254e+06 98452.3 5.71448e-10 1.03707e+06 1.08107e-10 1.04988e+06)
(2.30074e+06 95373.2 -6.3319e-12 970567 -4.69201e-13 981391)
(2.15903e+06 93272.6 -9.60492e-12 908713 -2.01891e-12 920323)
(-8557.81 2909.77 -7.77952e-10 -4883.86 8.50799e-10 -4032.5)
(6422.39 -10553.7 -4.27199e-11 939.043 5.67556e-10 2208.43)
(67252.6 -33135.2 -5.45274e-10 -3450.32 -2.86322e-10 19140.7)
(164885 -51236.1 0 -7056.32 0 47348.7)
(278492 -62440.7 -7.21919e-11 -8953.81 -4.42277e-10 80861.6)
(397794 -68810.9 -7.47957e-10 -9869.35 -5.52203e-11 116378)
(514739 -71329.9 1.68312e-10 -10030.1 3.84186e-10 151413)
(626494 -71530.9 -4.96281e-10 -9622.26 1.21644e-10 185062)
(728999 -69664.8 4.01937e-10 -9403.07 2.04549e-10 215879)
(824570 -68188.1 7.56376e-10 -7814.75 9.4281e-11 245027)
(11102.2 -11285.3 -8.03538e-10 -933.399 5.63004e-10 3050.65)
(89892.5 -61329.8 6.03805e-10 38059.9 6.62624e-10 38385.7)
(204200 -116649 -5.6509e-10 39606.6 -5.67882e-10 73141.9)
(325708 -158964 5.72112e-12 27709.9 -4.70283e-10 106026)
(447839 -185084 0 16177 0 139205)
(563981 -199715 -8.57813e-10 5782.95 -1.27228e-10 170929)
(671708 -205051 1.44109e-10 -2226.29 7.38276e-10 200845)
(771381 -204720 1.07691e-11 -7961.86 3.97152e-11 229026)
(859340 -199140 -4.61405e-10 -12866.6 -1.34217e-09 253942)
(942710 -194607 3.38806e-10 -13363.1 5.2626e-11 278804)
(34338.9 -55577 -3.84801e-10 37488.5 -9.41177e-11 21548.2)
(172345 -153243 6.17426e-10 81871.5 6.54546e-10 76264.8)
(330350 -221884 6.46165e-10 75773.9 1.35237e-10 121837)
(475778 -267887 3.34842e-11 46597.3 -4.53543e-10 156713)
(609501 -293343 0 19389.7 0 188667)
(727346 -305321 -9.60004e-10 -4233.63 -2.50508e-10 216934)
(830822 -306864 -1.30947e-09 -22208 -3.66611e-10 242584)
(922982 -301998 8.66087e-10 -35178.5 5.29522e-10 266341)
(1.00014e+06 -291403 5.24733e-12 -44958.2 1.6906e-11 286555)
(1.07469e+06 -282391 -7.78964e-10 -47849.1 -4.92398e-10 308051)
(82425 -125189 1.00511e-09 126159 -3.60195e-10 62575.3)
(283945 -263577 1.52552e-10 138569 -5.4988e-10 126754)
(478109 -335827 7.10097e-10 114949 1.38689e-10 177918)
(644165 -376311 0 67501.3 0 213500)
(787656 -393180 -1.21083e-09 25524.3 4.50838e-10 243954)
(907184 -396340 1.37403e-11 -10764.4 1.1157e-09 268926)
(1.00699e+06 -389665 -5.97686e-11 -38714.4 -5.9929e-10 290482)
(1.0925e+06 -377185 -1.72698e-10 -59380.8 -9.24962e-10 309935)
(1.15956e+06 -359879 3.95329e-10 -74996.8 1.28275e-10 325367)
(1.22612e+06 -345138 7.37883e-10 -81309.1 2.76764e-10 343443)
(164599 -223632 -1.35745e-09 256154 8.96843e-10 126226)
(433746 -383736 -1.24718e-09 200936 8.35692e-10 190405)
(658098 -448754 -7.56045e-10 145499 -2.22294e-10 241079)
(838375 -475746 -2.04627e-10 74769.3 8.17976e-10 273943)
(985937 -477632 -8.04245e-12 17365.6 5.04499e-11 300991)
(1.10308e+06 -467111 1.16639e-09 -30678.8 -3.12819e-10 321720)
(1.19649e+06 -448700 5.07912e-10 -67156.4 1.33282e-10 338801)
(1.27352e+06 -426095 0 -94052.1 0 353841)
(1.32959e+06 -400736 -5.42022e-10 -114127 -7.13082e-10 364638)
(1.38746e+06 -379076 2.16298e-10 -122810 5.2512e-11 379395)
(291733 -353113 -1.02266e-09 417366 -1.31964e-09 212730)
(626685 -505629 5.09411e-10 270652 -9.91437e-10 269201)
(875051 -550381 -6.24122e-10 174492 -6.73361e-10 314863)
(1.06243e+06 -556960 1.37562e-10 78057 -3.80857e-10 342145)
(1.20771e+06 -539825 1.321e-09 5976.43 4.41814e-10 364106)
(1.31731e+06 -513180 -1.27479e-09 -52199.4 1.41846e-10 379534)
(1.40047e+06 -481549 -1.47054e-12 -95488.4 3.38074e-11 391494)
(1.46597e+06 -447944 -9.92497e-10 -127099 -6.83465e-10 401663)
(1.50913e+06 -414291 2.08123e-12 -150636 1.3265e-11 407548)
(1.55645e+06 -385371 -1.08382e-09 -160870 -4.95388e-10 418673)
(472786 -512236 4.81482e-10 590994 -7.73123e-10 319134)
(862103 -624366 2.8197e-11 342896 -4.26468e-11 361500)
(1.12528e+06 -634619 -2.06605e-14 202118 3.52062e-14 398220)
(1.31112e+06 -613892 -1.34919e-09 78918.6 -9.45304e-10 417013)
(1.44713e+06 -574560 -2.29556e-10 -6823.19 6.12367e-10 432092)
(1.54344e+06 -530501 -1.2366e-09 -73571.9 -5.03079e-10 440959)
(1.61208e+06 -485299 2.22287e-09 -121858 9.90704e-10 447066)
(1.66252e+06 -440888 -2.90306e-13 -156701 2.65467e-11 451747)
(1.6908e+06 -399504 4.3756e-10 -182376 -1.7551e-12 452528)
(1.72505e+06 -363593 -5.92826e-10 -193508 -2.82258e-10 459463)
(715886 -695095 2.72832e-09 759177 -9.06018e-10 442519)
(1.13813e+06 -735293 7.26224e-10 414873 -8.66399e-10 465900)
(1.40312e+06 -697449 -2.80291e-10 232764 3.72843e-10 490765)
(1.57738e+06 -643294 1.71402e-10 85024.6 -2.66621e-10 498721)
(1.69683e+06 -579611 1.52857e-14 -12129.4 -2.99401e-14 505410)
(1.77422e+06 -517926 1.43542e-09 -85547.3 1.21494e-10 506603)
(1.82432e+06 -459864 1.07974e-10 -137321 -4.67011e-10 506101)
(1.85651e+06 -405872 -3.61854e-11 -174028 3.84285e-10 504743)
(1.86823e+06 -358108 4.95657e-12 -201519 1.91879e-10 500015)
(1.88693e+06 -316151 4.53004e-10 -212806 4.232e-10 502236)
(1.02584e+06 -890986 1.21779e-09 903974 1.06996e-09 578945)
(1.45089e+06 -833806 -2.35269e-10 481669 1.58846e-09 579767)
(1.70098e+06 -737017 -2.70888e-14 267797 2.83582e-14 590632)
(1.8522e+06 -644840 1.85716e-09 100745 4.35815e-10 585883)
(1.94759e+06 -555668 1.41816e-09 -4230.47 7.07802e-10 583009)
(2.00058e+06 -477017 1.27943e-09 -82143.1 6.38773e-10 575530)
(2.02856e+06 -407412 -1.40021e-10 -135455 4.01379e-10 567930)
(2.03921e+06 -345851 -1.54058e-09 -173549 -8.60725e-10 559699)
(2.03363e+06 -293345 9.45989e-10 -201597 2.24197e-10 549611)
(2.03368e+06 -246541 4.24237e-10 -216036 2.52088e-10 545294)
(1.4035e+06 -1.08568e+06 -1.14928e-10 1.01148e+06 1.01552e-10 724494)
(1.79513e+06 -915044 -4.70835e-10 539595 3.47196e-10 700417)
(2.01079e+06 -752994 -9.11819e-10 308756 -4.24981e-10 695864)
(2.12647e+06 -620560 3.95052e-09 130448 9.25189e-10 677075)
(2.18995e+06 -506055 2.41949e-11 22372.3 -2.74726e-11 663697)
(2.21332e+06 -411668 -1.2582e-09 -57136.7 -7.14238e-10 646856)
(2.21567e+06 -332314 -1.34829e-09 -110481 -2.12473e-10 631558)
(2.20275e+06 -265418 -5.07973e-10 -147785 -3.03783e-10 616490)
(2.17981e+06 -211097 5.64448e-11 -178037 -4.20334e-10 600533)
(2.15867e+06 -164180 2.54024e-10 -188880 5.31456e-10 590936)
(909981 -63268.5 5.85344e-10 -7788.17 3.58328e-10 270658)
(985192 -56470.4 4.66986e-10 -6076.38 6.80683e-11 293735)
(1.05411e+06 -50546.4 -3.704e-10 -4839.92 -4.37912e-10 314782)
(1.11602e+06 -45169.8 -2.12352e-10 -3921.04 -1.56424e-10 333629)
(1.17189e+06 -40188.5 -6.76952e-10 -3020.96 -1.14435e-10 350662)
(1.22191e+06 -35724.4 0 -2355.28 0 365868)
(1.26677e+06 -31634.3 0 -1725.92 0 379513)
(1.30673e+06 -27942.9 2.50271e-10 -1236.45 1.56096e-10 391648)
(1.34229e+06 -24560.5 2.25105e-10 -806.403 4.20472e-11 402446)
(1.37371e+06 -21460.8 5.27513e-10 -469.028 3.1602e-10 411973)
(1.40131e+06 -18578 6.82401e-10 -195.213 1.30105e-10 420335)
(1.42528e+06 -15869.6 -2.29086e-10 5.9416 -4.38794e-11 427586)
(1.44579e+06 -13282.8 6.92775e-10 142.45 1.32874e-10 433780)
(1.46295e+06 -10778.8 -8.46561e-10 212.563 -4.92486e-10 438947)
(1.47679e+06 -8325.9 5.01733e-11 214.474 1.21154e-10 443101)
(1.4874e+06 -5920.38 -4.99251e-18 158.478 -2.9126e-18 446267)
(1.49474e+06 -3596.54 -2.89352e-10 42.7981 -1.69503e-10 448435)
(1.49912e+06 -1486.16 2.9056e-10 -46.259 1.71017e-10 449723)
(1.50055e+06 131.83 1.44676e-10 -36.6474 -2.10489e-10 450154)
(1.50042e+06 518.916 -6.79973e-10 779.401 -6.03617e-10 450359)
(1.00981e+06 -181233 8.28327e-10 -17197.9 1.01846e-09 297783)
(1.06521e+06 -163165 5.37297e-10 -16786.8 1.47199e-10 314527)
(1.11856e+06 -147220 4.04546e-11 -15378 -2.32653e-10 330955)
(1.16623e+06 -132346 1.22009e-09 -14637.8 1.09958e-09 345477)
(1.21039e+06 -118418 -2.34523e-10 -13296 -5.53989e-11 359130)
(1.25015e+06 -105819 -9.94929e-10 -12390.4 -1.00795e-09 371328)
(1.28645e+06 -94167.2 5.07431e-10 -11321.1 1.87708e-10 382539)
(1.31909e+06 -83577.7 0 -10499.7 0 392577)
(1.34856e+06 -73812.2 2.41793e-10 -9716.52 8.56202e-11 401653)
(1.3749e+06 -64823.5 4.97125e-10 -9106.99 1.91549e-10 409737)
(1.39838e+06 -56445.3 1.49099e-09 -8601.52 7.70024e-10 416935)
(1.41912e+06 -48577 6.72908e-12 -8232.42 7.68939e-12 423266)
(1.43727e+06 -41090.5 1.93498e-10 -7965.51 -1.50201e-10 428792)
(1.45294e+06 -33894.8 2.84611e-10 -7777.89 3.25424e-10 433550)
(1.46622e+06 -26919.3 2.91992e-10 -7616.38 3.3473e-10 437581)
(1.47723e+06 -20160.4 -2.89262e-10 -7368.19 -3.33288e-10 440959)
(1.48597e+06 -13698.8 -2.9091e-10 -6885.03 -3.37079e-10 443725)
(1.4927e+06 -7814.52 -5.84235e-10 -5787.3 -6.80931e-10 446073)
(1.49713e+06 -2935.72 -4.42066e-12 -3581.45 -4.8367e-12 448066)
(1.49999e+06 -328.738 -7.36901e-11 1041.37 4.23746e-10 450310)
(1.12546e+06 -262350 2.26661e-10 -52916.7 3.10076e-10 321762)
(1.1608e+06 -237712 3.09351e-10 -51663.6 1.1035e-10 332741)
(1.19871e+06 -215581 -7.18575e-10 -47052.1 -9.04806e-10 345496)
(1.23158e+06 -195030 -6.44857e-11 -43978 1.65137e-10 356279)
(1.26362e+06 -175472 1.31112e-09 -39669.7 1.09114e-09 367185)
(1.29246e+06 -157695 -1.0415e-09 -36308.2 -9.93928e-10 376846)
(1.31963e+06 -141081 -2.77261e-10 -32790.1 -3.20972e-10 386051)
(1.34429e+06 -125889 5.29937e-10 -29877.4 6.02469e-10 394325)
(1.36707e+06 -111793 2.37205e-12 -27216.6 -3.90962e-10 401956)
(1.38773e+06 -98773.3 -5.60781e-10 -25035.5 -6.3025e-10 408807)
(1.40652e+06 -86624.2 5.37374e-10 -23219.8 6.01762e-10 414991)
(1.42345e+06 -75235.7 8.30393e-10 -21811.4 9.30397e-10 420491)
(1.43864e+06 -64453.9 6.35392e-12 -20742.6 6.99923e-12 425369)
(1.45216e+06 -54168.3 -2.84343e-10 -19954.1 -3.20426e-10 429662)
(1.46408e+06 -44283.2 2.81489e-10 -19322.8 3.19129e-10 433427)
(1.4745e+06 -34761.7 4.14958e-17 -18621.1 4.61894e-17 436763)
(1.48335e+06 -25626.4 -2.90029e-10 -17520.7 -3.32966e-10 439748)
(1.49081e+06 -17021 3.93504e-11 -15355.6 2.40439e-10 442635)
(1.49622e+06 -9209.75 -9.53347e-10 -11191.5 -1.23012e-10 445508)
(1.5002e+06 -2536.77 2.70705e-13 -3364.19 5.53885e-13 449052)
(1.26059e+06 -319479 0 -88136.7 0 351735)
(1.27456e+06 -291247 3.30736e-10 -87353.5 1.20471e-10 356162)
(1.29645e+06 -265195 2.58842e-10 -80294.5 2.95771e-10 364847)
(1.31337e+06 -241416 2.84092e-10 -75926.2 3.28831e-10 371232)
(1.33236e+06 -218308 0 -69219.7 0 378941)
(1.34915e+06 -197297 3.84213e-11 -63910 -1.65898e-10 385571)
(1.36614e+06 -177421 -8.50298e-10 -58239 -5.21969e-10 392371)
(1.3818e+06 -159157 -5.42657e-10 -53428.1 -5.89425e-10 398510)
(1.39691e+06 -142096 -3.05064e-10 -48972.9 -1.40786e-10 404381)
(1.41095e+06 -126278 -1.71213e-12 -45222 3.76762e-10 409719)
(1.42418e+06 -111481 -2.68309e-10 -42028.8 8.26485e-11 414646)
(1.43645e+06 -97603.3 5.61332e-10 -39456.7 2.40763e-10 419099)
(1.44785e+06 -84483.5 5.32846e-10 -37417 2.66811e-11 423129)
(1.45835e+06 -71997.6 1.30157e-11 -35829.4 2.01462e-10 426757)
(1.46797e+06 -60024.3 2.30444e-11 -34528.6 2.13588e-10 430033)
(1.47675e+06 -48471.7 -2.86747e-10 -33228.2 -3.22489e-10 433056)
(1.48449e+06 -37279.1 -6.12433e-17 -31528.7 -6.89173e-17 435888)
(1.49133e+06 -26374.5 6.11564e-10 -28677.7 8.9655e-10 438795)
(1.49633e+06 -15845.9 -3.11536e-11 -23712.6 -2.35745e-10 441785)
(1.5003e+06 -4930.97 -6.85964e-10 -14861.3 -1.19546e-09 445631)
(1.40558e+06 -349040 2.51219e-11 -129979 4.13036e-10 382680)
(1.39733e+06 -320680 -3.59376e-10 -129825 -1.57012e-10 380251)
(1.40349e+06 -293031 -9.03702e-10 -119427 -7.36228e-10 385220)
(1.4041e+06 -268643 5.94979e-10 -113583 4.04872e-10 387156)
(1.41e+06 -244205 1.54832e-09 -104010 1.01668e-09 391796)
(1.41442e+06 -222067 -2.84422e-10 -96345.3 -2.97188e-10 395423)
(1.42097e+06 -200813 0 -88075.6 0 399867)
(1.42721e+06 -181174 2.76993e-10 -80902.7 2.88137e-10 403893)
(1.43423e+06 -162679 -8.91412e-10 -74209.2 -3.80876e-10 408007)
(1.44118e+06 -145437 -5.78289e-10 -68460.3 -4.26051e-10 411817)
(1.44832e+06 -129242 3.23174e-11 -63505.8 -3.28621e-10 415445)
(1.45536e+06 -114015 -2.91473e-10 -59434.2 -4.92463e-10 418778)
(1.46233e+06 -99600.3 -2.9543e-11 -56154.9 5.17069e-10 421852)
(1.46913e+06 -85864.5 5.69739e-10 -53583 8.0258e-10 424663)
(1.47569e+06 -72660.3 2.77352e-10 -51539.5 1.18253e-10 427246)
(1.482e+06 -59823.3 -1.05006e-11 -49724.5 -2.00074e-10 429683)
(1.48779e+06 -47203.6 5.37625e-10 -47730.5 2.21181e-10 432017)
(1.49313e+06 -34491 2.64425e-10 -44830.7 1.06163e-10 434489)
(1.49703e+06 -21662.8 1.08541e-09 -40170 8.57032e-10 437057)
(1.50033e+06 -7033.81 3.01253e-10 -32082.9 9.08738e-10 440473)
(1.55785e+06 -352509 2.1184e-10 -167950 2.9104e-10 416971)
(1.52644e+06 -327675 5.10157e-12 -170141 1.11723e-11 406889)
(1.51721e+06 -300663 -6.53381e-10 -156842 -4.5273e-10 408112)
(1.50121e+06 -278067 -1.5691e-09 -150325 -1.17395e-09 405265)
(1.494e+06 -254300 6.12982e-10 -138519 4.17498e-10 406644)
(1.48588e+06 -232836 5.76971e-10 -128958 5.72568e-10 407077)
(1.48175e+06 -211855 -2.82682e-10 -118527 -2.80943e-10 408967)
(1.47834e+06 -192305 -4.53636e-11 -109262 1.25853e-10 410723)
(1.47692e+06 -173720 1.24014e-09 -100526 7.38517e-10 412918)
(1.47641e+06 -156258 -8.2898e-10 -92856.5 -8.45365e-10 415066)
(1.47702e+06 -139758 -2.94876e-10 -86147.4 -3.04463e-10 417263)
(1.47837e+06 -124162 8.01664e-10 -80522.9 1.18672e-09 419353)
(1.48039e+06 -109339 -1.17092e-09 -75927.7 -3.48949e-10 421339)
(1.48293e+06 -95151.8 -8.34649e-10 -72307.7 -8.91226e-10 423187)
(1.48586e+06 -81438.7 2.01352e-12 -69516.8 -1.79913e-10 424904)
(1.48909e+06 -67974 -1.12461e-09 -67304 -8.60186e-10 426535)
(1.49233e+06 -54537.7 -8.18704e-12 -65326.1 -7.69367e-12 428102)
(1.49559e+06 -40616.3 1.10541e-09 -62991.4 1.05616e-09 429778)
(1.49801e+06 -26123.1 1.74638e-11 -59637.1 2.17876e-10 431513)
(1.50025e+06 -8667 2.57037e-10 -53883 1.90123e-10 433911)
(1.71021e+06 -329922 -2.22021e-10 -199708 -2.84772e-10 453151)
(1.65573e+06 -312567 3.06859e-10 -206292 2.80016e-10 434831)
(1.63223e+06 -288515 3.78771e-10 -191222 1.97847e-10 432303)
(1.60011e+06 -269992 -2.99377e-10 -184779 -2.80609e-10 424600)
(1.58024e+06 -249018 -7.09159e-10 -171646 -3.54197e-10 422578)
(1.56001e+06 -229946 3.46193e-10 -160482 1.72149e-10 419859)
(1.54536e+06 -210847 9.7982e-10 -148200 6.30234e-10 419147)
(1.53245e+06 -192713 -1.57641e-09 -136921 -1.05802e-09 418659)
(1.52259e+06 -175237 -9.7235e-10 -126215 -6.40256e-10 418912)
(1.51457e+06 -158599 1.52613e-09 -116645 1.03304e-09 419378)
(1.50851e+06 -142739 -6.22378e-10 -108204 -2.97637e-10 420092)
(1.50395e+06 -127630 8.24736e-10 -101047 8.44203e-10 420870)
(1.50075e+06 -113185 8.87956e-10 -95173.4 5.78327e-10 421674)
(1.4987e+06 -99273.5 -5.1836e-10 -90571.4 -7.20995e-10 422439)
(1.49762e+06 -85733.4 -3.38127e-10 -87151.5 1.74965e-10 423142)
(1.49737e+06 -72295.3 1.60269e-11 -84748.2 1.47764e-11 423785)
(1.49769e+06 -58691.6 -1.37033e-09 -83120 -1.13982e-09 424370)
(1.49847e+06 -44260.1 2.72132e-10 -81880.3 3.05516e-10 424978)
(1.49922e+06 -28884.1 5.3942e-10 -80582 4.21919e-10 425591)
(1.50012e+06 -9712.63 1.29752e-10 -78305.9 9.94097e-11 426544)
(1.85649e+06 -282960 2.65897e-12 -219425 9.07104e-12 491118)
(1.78054e+06 -276933 -3.1726e-10 -232449 -2.78968e-10 464427)
(1.74414e+06 -258347 6.80691e-11 -218318 -7.38249e-11 457746)
(1.69742e+06 -245450 0 -212543 0 445463)
(1.66543e+06 -229163 0 -199924 0 439653)
(1.63408e+06 -213830 -9.49951e-10 -188276 -7.43428e-10 433743)
(1.60927e+06 -198082 8.45195e-10 -175370 7.87639e-10 430169)
(1.5873e+06 -182649 1.78188e-09 -162925 1.55301e-09 427313)
(1.56917e+06 -167484 -1.34787e-09 -150859 -1.29359e-09 425492)
(1.55377e+06 -152735 -1.18065e-09 -139738 -1.00475e-09 424209)
(1.54105e+06 -138455 5.44498e-10 -129724 5.41095e-10 423397)
(1.53055e+06 -124657 -5.3192e-11 -121058 1.07114e-10 422846)
(1.52205e+06 -111316 9.31567e-10 -113849 4.60421e-10 422460)
(1.51528e+06 -98336 1.45117e-09 -108182 1.00344e-09 422129)
(1.51004e+06 -85574.4 1.98094e-11 -104070 1.80896e-11 421792)
(1.50612e+06 -72753.6 6.60035e-10 -101482 -1.79844e-10 421391)
(1.50335e+06 -59590.6 0 -100315 0 420911)
(1.50149e+06 -45342 -5.55814e-10 -100446 -2.45575e-10 420314)
(1.50049e+06 -29886.2 2.67405e-10 -101647 1.13226e-10 419654)
(1.49993e+06 -10142.1 3.90094e-10 -103594 3.09859e-10 418899)
(1.99168e+06 -216128 -2.08313e-12 -223175 -7.93348e-12 530551)
(1.89654e+06 -223545 3.93738e-10 -243674 2.35314e-10 495861)
(1.84825e+06 -214240 -3.91613e-10 -236877 -2.38492e-10 483413)
(1.78979e+06 -208096 -3.85444e-10 -232761 -2.32289e-10 467108)
(1.74628e+06 -198428 1.05825e-09 -222114 7.21737e-10 457248)
(1.70534e+06 -187763 7.53874e-10 -210298 4.50044e-10 448513)
(1.67116e+06 -176139 -1.00132e-09 -197052 -6.70043e-10 442233)
(1.64102e+06 -163998 1.32968e-10 -183752 -1.40572e-10 437180)
(1.61523e+06 -151671 2.27355e-10 -170717 2.10709e-10 433354)
(1.59293e+06 -139347 -1.23308e-10 -158515 1.65773e-10 430324)
(1.57387e+06 -127183 -1.01655e-09 -147413 -5.57435e-10 427937)
(1.55761e+06 -115250 9.09931e-12 -137709 8.77134e-12 425971)
(1.54389e+06 -103568 -4.65213e-10 -129588 -6.32362e-10 424290)
(1.53239e+06 -92077 -1.57118e-11 -123224 -1.43631e-11 422751)
(1.52293e+06 -80660.3 5.93726e-10 -118732 2.89184e-10 421261)
(1.51525e+06 -69053.4 -1.18457e-11 -116227 -1.0347e-11 419706)
(1.50929e+06 -56978.3 7.24299e-10 -115765 9.70296e-10 418057)
(1.50467e+06 -43676.2 -2.73332e-10 -117511 -1.22371e-10 416149)
(1.50187e+06 -29022.6 -1.28113e-09 -121466 -1.26726e-09 414122)
(1.49973e+06 -9922.76 -3.83367e-10 -128000 -6.91361e-10 411520)
(2.1042e+06 -130337 -5.01943e-11 -215057 -2.53152e-11 566743)
(2.00754e+06 -146767 -4.22101e-10 -231709 -2.48875e-10 532748)
(1.94592e+06 -150674 3.42739e-10 -239041 2.6905e-10 512064)
(1.88076e+06 -152279 -8.97201e-10 -240414 -8.16608e-10 492104)
(1.82585e+06 -151528 -9.22993e-10 -236223 -7.67049e-10 476888)
(1.77587e+06 -148108 5.46195e-10 -227999 5.63653e-10 464361)
(1.73225e+06 -142801 4.74826e-10 -216837 5.65602e-10 454624)
(1.69377e+06 -135933 8.27402e-10 -204182 7.45319e-10 446876)
(1.66027e+06 -127978 -9.70673e-10 -190862 -7.24505e-10 440822)
(1.63107e+06 -119298 2.39985e-12 -177743 1.98616e-11 435998)
(1.60579e+06 -110180 -1.18056e-11 -165379 -5.92208e-11 432122)
(1.58394e+06 -100831 -7.59217e-10 -154274 -7.41625e-10 428899)
(1.56518e+06 -91373.9 0 -144789 0 426116)
(1.54914e+06 -81840.1 -6.87598e-10 -137256 -2.23751e-10 423565)
(1.53561e+06 -72181.5 -3.22231e-12 -131932 -1.36814e-11 421102)
(1.52425e+06 -62193.8 -8.87792e-10 -129118 -4.32441e-10 418541)
(1.51515e+06 -51641 2.43265e-10 -129045 2.56469e-10 415832)
(1.50777e+06 -39822.6 5.59884e-10 -132194 2.56377e-10 412674)
(1.50316e+06 -26626.8 6.95796e-12 -138813 -5.608e-13 409303)
(1.49946e+06 -9148.85 -2.52743e-10 -149977 -2.19755e-10 404846)
(2.16786e+06 -59665.7 4.3436e-10 -191192 3.81986e-10 593001)
(2.07869e+06 -68569.4 -4.01696e-10 -208538 -2.52571e-10 561045)
(2.00845e+06 -84784.2 -2.32778e-10 -225294 -1.93167e-10 534947)
(1.94114e+06 -92561.4 3.85973e-10 -232561 2.35991e-10 512573)
(1.88152e+06 -97998.5 -7.62792e-10 -232804 -3.46961e-10 494615)
(1.82697e+06 -100464 -5.14434e-10 -228421 -2.4319e-10 479565)
(1.77845e+06 -100571 -6.41486e-10 -220165 -4.65417e-10 467485)
(1.73495e+06 -98733.4 7.7203e-11 -209691 -5.35757e-11 457578)
(1.69648e+06 -95325.6 1.2966e-09 -197880 8.26537e-10 449579)
(1.66243e+06 -90735.6 -4.46112e-11 -185725 -4.79241e-11 443012)
(1.63253e+06 -85267.3 6.92968e-10 -173902 3.92594e-10 437587)
(1.60632e+06 -79174.7 -3.42047e-11 -163040 -3.87134e-11 432983)
(1.5835e+06 -72632.6 2.53307e-24 -153625 2.57054e-24 428962)
(1.56371e+06 -65732.6 -3.04628e-10 -146114 -1.51864e-10 425278)
(1.54676e+06 -58488.4 2.97785e-10 -140901 1.45091e-10 421758)
(1.53231e+06 -50777.1 -1.33799e-11 -138448 -1.93002e-11 418159)
(1.52055e+06 -42431.7 4.72532e-11 -139160 -1.25391e-10 414417)
(1.51082e+06 -32909.6 2.70324e-12 -143781 8.95406e-12 410111)
(1.50459e+06 -22130.3 -2.74921e-12 -152796 3.56346e-12 405537)
(1.4994e+06 -7629 -4.15239e-12 -167928 -1.98884e-12 399442)
(2.13464e+06 9568.75 4.03307e-10 -164690 3.18881e-10 590986)
(2.06472e+06 -652.866 0 -200637 0 559226)
(2.00026e+06 -20490.3 -3.14636e-10 -218119 -2.77124e-10 534642)
(1.93915e+06 -33562.9 4.11265e-24 -227941 3.32844e-24 513364)
(1.88398e+06 -43830.6 9.42486e-25 -229955 6.83586e-25 496208)
(1.83276e+06 -51115.8 4.46986e-24 -227195 3.32328e-24 481668)
(1.78645e+06 -55829.7 6.85665e-24 -220420 5.53821e-24 469809)
(1.74423e+06 -58391.4 -2.75718e-10 -211244 -2.58228e-10 459895)
(1.70626e+06 -59137.4 0 -200536 0 451717)
(1.67211e+06 -58435.5 2.63466e-10 -189290 2.55133e-10 444845)
(1.64164e+06 -56579.6 -3.77372e-25 -178201 -6.329e-25 439030)
(1.61453e+06 -53828.9 -2.53438e-10 -167933 -2.54105e-10 433978)
(1.59058e+06 -50373.1 2.49265e-10 -159016 2.54243e-10 429470)
(1.56953e+06 -46339.1 3.57937e-24 -151969 2.60664e-24 425268)
(1.55127e+06 -41776.5 -2.42601e-10 -147250 -2.55677e-10 421207)
(1.53552e+06 -36647.6 -2.15058e-24 -145419 -1.9872e-24 417032)
(1.52258e+06 -30837.1 2.3827e-10 -146977 2.58699e-10 412680)
(1.51177e+06 -24007.3 2.37023e-10 -152819 2.60953e-10 407685)
(1.50488e+06 -16152.7 -2.5583e-24 -163619 -2.23019e-24 402379)
(1.49913e+06 -5556.78 -1.27892e-24 -181362 -2.26462e-24 395331)
(2.10958e+06 78950.3 7.4629e-11 -133218 1.28981e-10 592908)
(2.0453e+06 62981 -2.56962e-10 -174968 -1.58018e-10 561101)
(1.99069e+06 39613.9 -5.73255e-10 -196639 -4.36206e-10 538214)
(1.93446e+06 22268 0 -210962 0 517048)
(1.8837e+06 7930.79 2.98032e-11 -216797 1.16741e-10 500071)
(1.83519e+06 -3482.02 -2.47786e-10 -217467 -3.44525e-11 485316)
(1.79086e+06 -12204.6 -5.52556e-10 -213575 -4.11872e-10 473184)
(1.74978e+06 -18682.7 -8.16474e-10 -206831 -5.49628e-10 462885)
(1.71241e+06 -23184.5 2.70091e-10 -198099 2.60209e-10 454295)
(1.67839e+06 -26056.9 -5.3995e-10 -188439 -2.72823e-10 446985)
(1.64771e+06 -27569.4 -2.6962e-10 -178597 -1.32956e-10 440733)
(1.62012e+06 -27978.2 -5.38341e-10 -169304 -2.59567e-10 435245)
(1.59552e+06 -27482.6 -5.37356e-10 -161161 -2.5395e-10 430307)
(1.57369e+06 -26238.5 -2.68183e-10 -154761 -1.24607e-10 425677)
(1.55458e+06 -24337.4 -5.35418e-10 -150648 -2.45518e-10 421180)
(1.53798e+06 -21823 -5.34547e-10 -149455 -2.43021e-10 416559)
(1.52423e+06 -18640.8 -2.38831e-10 -151823 -2.58866e-10 411723)
(1.51271e+06 -14707.6 -2.66501e-10 -158642 -1.21263e-10 406219)
(1.5054e+06 -9977.63 -2.6612e-10 -170685 -1.22603e-10 400415)
(1.49908e+06 -3440.21 -1.32842e-10 -190391 -1.25157e-10 392606)
(2.0657e+06 132767 1.46998e-09 -106848 1.23943e-09 587657)
(2.0101e+06 116431 2.32708e-10 -153244 1.52486e-10 557056)
(1.96469e+06 91988.2 -8.52714e-10 -177556 -7.10924e-10 536139)
(1.9148e+06 72617.6 8.73035e-24 -194859 7.27844e-24 515982)
(1.86967e+06 55621.4 3.38949e-10 -203334 3.95131e-10 499900)
(1.82535e+06 41257.9 -4.64048e-25 -206456 -2.72995e-25 485668)
(1.7844e+06 29388.7 2.55171e-10 -204770 1.45693e-10 473888)
(1.74584e+06 19701.2 -5.50471e-10 -199994 -5.31212e-10 463753)
(1.71035e+06 11994.9 1.09172e-23 -192981 9.12034e-24 455210)
(1.67764e+06 5985.48 5.28017e-10 -184801 5.24462e-10 447852)
(1.64784e+06 1440.47 -2.60397e-10 -176210 -1.32606e-10 441489)
(1.62078e+06 -1875.95 -3.0657e-24 -167970 -2.44166e-24 435843)
(1.59643e+06 -4159.79 -1.30745e-23 -160707 -1.20341e-23 430718)
(1.57466e+06 -5591.52 2.61387e-10 -155058 1.24715e-10 425879)
(1.55546e+06 -6287.45 -7.78086e-24 -151594 -6.63208e-24 421161)
(1.53871e+06 -6406.63 -4.8191e-10 -151027 -5.17508e-10 416304)
(1.52472e+06 -5867.85 3.44318e-24 -153969 2.61765e-24 411224)
(1.51307e+06 -4985.03 2.14074e-10 -161437 3.96956e-10 405489)
(1.50564e+06 -3347.48 -2.61253e-10 -174542 -1.23198e-10 399330)