/*--------------------------------*- C++ -*----------------------------------*\
  =========                 |
  \\      /  F ield         | OpenFOAM: The Open Source CFD Toolbox
   \\    /   O peration     | Website:  https://openfoam.org
    \\  /    A nd           | Version:  9
     \\/     M anipulation  |
\*---------------------------------------------------------------------------*/
FoamFile
{
    format      ascii;
    class       volScalarField;
    location    "15";
    object      sigmaEq;
}
// * * * * * * * * * * * * * * * * * * * * * * * * * * * * * * * * * * * * * //

dimensions      [1 -1 -2 0 0 0 0];

internalField   nonuniform List<scalar> 
1000
(
2.62417e+06
2.48846e+06
2.44212e+06
2.43607e+06
2.42351e+06
2.40455e+06
2.37859e+06
2.34587e+06
2.31276e+06
2.27151e+06
3.07004e+06
2.78803e+06
2.65191e+06
2.58799e+06
2.53698e+06
2.49061e+06
2.44375e+06
2.3957e+06
2.34621e+06
2.2982e+06
3.46887e+06
3.08247e+06
2.84828e+06
2.71895e+06
2.62477e+06
2.54693e+06
2.47645e+06
2.41005e+06
2.34502e+06
2.28617e+06
3.87958e+06
3.36268e+06
3.03281e+06
2.83281e+06
2.68992e+06
2.57653e+06
2.47986e+06
2.39392e+06
2.31328e+06
2.24385e+06
4.23126e+06
3.6238e+06
3.20145e+06
2.92841e+06
2.73221e+06
2.58004e+06
2.45522e+06
2.34874e+06
2.25309e+06
2.17281e+06
4.52268e+06
3.87924e+06
3.35173e+06
3.00221e+06
2.75008e+06
2.55806e+06
2.40481e+06
2.27815e+06
2.16849e+06
2.07771e+06
4.75869e+06
4.08785e+06
3.46749e+06
3.04386e+06
2.73912e+06
2.50998e+06
2.3314e+06
2.18704e+06
2.06593e+06
1.96585e+06
5.02831e+06
4.26444e+06
3.54251e+06
3.05329e+06
2.70351e+06
2.44462e+06
2.24673e+06
2.08971e+06
1.96114e+06
1.85437e+06
5.19167e+06
4.31447e+06
3.52874e+06
2.99409e+06
2.62848e+06
2.35934e+06
2.15662e+06
1.99594e+06
1.86566e+06
1.75551e+06
5.6029e+06
4.21536e+06
3.42265e+06
2.90706e+06
2.56306e+06
2.30492e+06
2.10861e+06
1.95016e+06
1.82065e+06
1.70844e+06
12354.7
13982.7
78231.6
174221
282512
395895
506961
613531
711895
803853
17075.7
117861
259930
401082
528570
642394
742474
832662
910490
983878
90601.6
288741
471517
635341
773340
888345
982542
1.06211e+06
1.12457e+06
1.18422e+06
224470
502665
710110
882386
1.02011e+06
1.12999e+06
1.21584e+06
1.2848e+06
1.33437e+06
1.38297e+06
420826
747809
967692
1.13888e+06
1.26737e+06
1.3663e+06
1.43995e+06
1.49667e+06
1.53335e+06
1.57101e+06
680397
1.01408e+06
1.2311e+06
1.39258e+06
1.50755e+06
1.59166e+06
1.65109e+06
1.69413e+06
1.71783e+06
1.7443e+06
997032
1.29484e+06
1.4925e+06
1.63668e+06
1.73419e+06
1.80119e+06
1.84512e+06
1.87369e+06
1.88456e+06
1.89937e+06
1.36276e+06
1.58598e+06
1.74564e+06
1.86546e+06
1.94143e+06
1.98993e+06
2.0177e+06
2.0316e+06
2.03054e+06
2.03318e+06
1.76283e+06
1.88444e+06
1.98856e+06
2.07558e+06
2.12629e+06
2.15468e+06
2.16558e+06
2.16458e+06
2.15225e+06
2.14334e+06
2.19034e+06
2.18576e+06
2.22039e+06
2.26519e+06
2.28653e+06
2.29224e+06
2.28511e+06
2.2681e+06
2.2471e+06
2.22199e+06
886553
957878
1.02385e+06
1.08319e+06
1.13673e+06
1.18466e+06
1.22754e+06
1.26567e+06
1.29948e+06
1.32926e+06
1.3553e+06
1.37783e+06
1.39702e+06
1.41302e+06
1.42589e+06
1.43576e+06
1.44263e+06
1.44677e+06
1.44817e+06
1.44769e+06
1.04013e+06
1.08222e+06
1.12453e+06
1.16339e+06
1.19989e+06
1.2335e+06
1.2645e+06
1.29274e+06
1.31842e+06
1.34154e+06
1.36224e+06
1.38058e+06
1.39665e+06
1.41052e+06
1.42222e+06
1.43184e+06
1.43927e+06
1.4446e+06
1.44727e+06
1.44734e+06
1.21772e+06
1.23291e+06
1.25202e+06
1.26971e+06
1.28791e+06
1.3055e+06
1.32284e+06
1.3394e+06
1.35526e+06
1.37015e+06
1.38408e+06
1.39694e+06
1.40873e+06
1.41938e+06
1.42885e+06
1.43708e+06
1.44379e+06
1.44882e+06
1.451e+06
1.45025e+06
1.39763e+06
1.39009e+06
1.38917e+06
1.38794e+06
1.38915e+06
1.39131e+06
1.39508e+06
1.39965e+06
1.40515e+06
1.41112e+06
1.41752e+06
1.42407e+06
1.43067e+06
1.43717e+06
1.44337e+06
1.44911e+06
1.45393e+06
1.45756e+06
1.45857e+06
1.45703e+06
1.56924e+06
1.54274e+06
1.52484e+06
1.50736e+06
1.49375e+06
1.48199e+06
1.47326e+06
1.46644e+06
1.46187e+06
1.45892e+06
1.45758e+06
1.45746e+06
1.45842e+06
1.46019e+06
1.46251e+06
1.46512e+06
1.46748e+06
1.46926e+06
1.46904e+06
1.46702e+06
1.72799e+06
1.68564e+06
1.65362e+06
1.62227e+06
1.59611e+06
1.57216e+06
1.55238e+06
1.53523e+06
1.52132e+06
1.50991e+06
1.50101e+06
1.49423e+06
1.48938e+06
1.48615e+06
1.48425e+06
1.48338e+06
1.483e+06
1.4828e+06
1.48161e+06
1.4796e+06
1.87043e+06
1.81518e+06
1.7722e+06
1.72915e+06
1.69277e+06
1.65835e+06
1.62893e+06
1.60256e+06
1.58012e+06
1.56087e+06
1.54484e+06
1.53166e+06
1.52112e+06
1.51293e+06
1.50678e+06
1.50237e+06
1.49927e+06
1.49717e+06
1.49533e+06
1.49377e+06
1.99368e+06
1.92829e+06
1.87791e+06
1.82507e+06
1.78068e+06
1.73785e+06
1.70046e+06
1.66635e+06
1.63647e+06
1.61019e+06
1.58759e+06
1.56836e+06
1.55235e+06
1.53928e+06
1.52893e+06
1.52102e+06
1.51529e+06
1.51143e+06
1.50926e+06
1.50853e+06
2.09777e+06
2.02284e+06
1.97018e+06
1.9102e+06
1.85923e+06
1.8095e+06
1.76502e+06
1.72423e+06
1.6878e+06
1.65537e+06
1.62695e+06
1.60232e+06
1.58134e+06
1.56382e+06
1.54958e+06
1.53842e+06
1.53026e+06
1.52485e+06
1.5226e+06
1.52293e+06
2.17837e+06
2.09957e+06
2.04615e+06
1.98516e+06
1.9299e+06
1.87612e+06
1.82604e+06
1.77952e+06
1.73709e+06
1.69879e+06
1.66469e+06
1.63471e+06
1.6088e+06
1.58681e+06
1.56867e+06
1.55422e+06
1.54363e+06
1.53667e+06
1.53438e+06
1.53593e+06
2.21633e+06
2.14212e+06
2.08652e+06
2.02739e+06
1.97091e+06
1.91602e+06
1.86407e+06
1.8152e+06
1.77002e+06
1.72868e+06
1.69141e+06
1.65823e+06
1.62919e+06
1.60424e+06
1.58343e+06
1.56671e+06
1.55443e+06
1.54643e+06
1.54425e+06
1.54679e+06
2.16666e+06
2.12118e+06
2.07e+06
2.01762e+06
1.96613e+06
1.91538e+06
1.86668e+06
1.82022e+06
1.77671e+06
1.73638e+06
1.69958e+06
1.66644e+06
1.63714e+06
1.61173e+06
1.5904e+06
1.57319e+06
1.56063e+06
1.55263e+06
1.5511e+06
1.55475e+06
2.12788e+06
2.08973e+06
2.04856e+06
2.00224e+06
1.95642e+06
1.90977e+06
1.86442e+06
1.82043e+06
1.77876e+06
1.73968e+06
1.70366e+06
1.67093e+06
1.64175e+06
1.61627e+06
1.59477e+06
1.5774e+06
1.5648e+06
1.55693e+06
1.55592e+06
1.56025e+06
2.07795e+06
2.04953e+06
2.01685e+06
1.97691e+06
1.93686e+06
1.89475e+06
1.85328e+06
1.81241e+06
1.77327e+06
1.73618e+06
1.70169e+06
1.6701e+06
1.64175e+06
1.61686e+06
1.59577e+06
1.57876e+06
1.5664e+06
1.55891e+06
1.55845e+06
1.56317e+06
2.01963e+06
1.99948e+06
1.97497e+06
1.94183e+06
1.90801e+06
1.87107e+06
1.8341e+06
1.79699e+06
1.76103e+06
1.72657e+06
1.69426e+06
1.66444e+06
1.63751e+06
1.61377e+06
1.59354e+06
1.57728e+06
1.56521e+06
1.55871e+06
1.55651e+06
1.56356e+06
1.95594e+06
1.94339e+06
1.92637e+06
1.89985e+06
1.87208e+06
1.84044e+06
1.8082e+06
1.77521e+06
1.74286e+06
1.71152e+06
1.6819e+06
1.65439e+06
1.62943e+06
1.60732e+06
1.58852e+06
1.57326e+06
1.56235e+06
1.55589e+06
1.55579e+06
1.56037e+06
1.88843e+06
1.88251e+06
1.87218e+06
1.852e+06
1.83009e+06
1.80382e+06
1.77646e+06
1.74786e+06
1.71946e+06
1.69163e+06
1.66514e+06
1.64038e+06
1.61782e+06
1.59779e+06
1.58072e+06
1.56688e+06
1.55697e+06
1.55099e+06
1.55085e+06
1.55505e+06
1.81851e+06
1.81833e+06
1.81396e+06
1.79968e+06
1.7833e+06
1.76228e+06
1.7398e+06
1.71574e+06
1.6915e+06
1.66749e+06
1.64445e+06
1.62281e+06
1.60303e+06
1.58543e+06
1.57043e+06
1.55825e+06
1.54953e+06
1.54424e+06
1.54399e+06
1.54747e+06
1.74699e+06
1.75167e+06
1.75251e+06
1.74365e+06
1.73245e+06
1.71654e+06
1.69892e+06
1.67947e+06
1.65956e+06
1.63959e+06
1.62029e+06
1.60207e+06
1.58538e+06
1.57054e+06
1.5579e+06
1.54765e+06
1.54029e+06
1.53578e+06
1.5354e+06
1.53803e+06
1.6743e+06
1.68307e+06
1.68847e+06
1.68456e+06
1.67823e+06
1.66726e+06
1.65442e+06
1.63964e+06
1.62418e+06
1.60843e+06
1.5931e+06
1.57856e+06
1.56524e+06
1.55342e+06
1.54339e+06
1.53531e+06
1.52952e+06
1.52593e+06
1.52544e+06
1.52711e+06
1.60051e+06
1.61274e+06
1.62214e+06
1.6228e+06
1.62107e+06
1.6149e+06
1.60682e+06
1.59675e+06
1.58586e+06
1.57451e+06
1.56334e+06
1.5527e+06
1.54297e+06
1.53441e+06
1.52723e+06
1.52154e+06
1.51752e+06
1.51502e+06
1.5145e+06
1.51523e+06
1.5254e+06
1.54063e+06
1.55364e+06
1.5586e+06
1.56131e+06
1.55989e+06
1.55659e+06
1.55133e+06
1.54514e+06
1.53835e+06
1.53152e+06
1.52497e+06
1.51904e+06
1.51392e+06
1.50979e+06
1.50668e+06
1.50462e+06
1.5034e+06
1.50302e+06
1.50292e+06
1.4485e+06
1.4665e+06
1.48291e+06
1.49208e+06
1.49922e+06
1.50261e+06
1.50421e+06
1.50391e+06
1.5026e+06
1.50056e+06
1.49826e+06
1.49597e+06
1.49399e+06
1.49248e+06
1.49153e+06
1.49116e+06
1.49123e+06
1.49148e+06
1.49145e+06
1.49075e+06
1.36921e+06
1.39001e+06
1.40984e+06
1.42334e+06
1.43509e+06
1.4435e+06
1.45022e+06
1.45512e+06
1.45894e+06
1.46185e+06
1.46428e+06
1.46642e+06
1.46852e+06
1.4707e+06
1.47304e+06
1.47548e+06
1.4778e+06
1.47969e+06
1.48027e+06
1.47923e+06
1.2868e+06
1.31074e+06
1.33431e+06
1.35252e+06
1.36927e+06
1.38309e+06
1.39533e+06
1.40578e+06
1.41503e+06
1.42317e+06
1.43052e+06
1.43724e+06
1.44351e+06
1.44943e+06
1.45504e+06
1.46029e+06
1.46489e+06
1.4685e+06
1.46995e+06
1.46892e+06
1.20071e+06
1.22854e+06
1.25648e+06
1.28008e+06
1.30245e+06
1.32227e+06
1.34052e+06
1.35697e+06
1.372e+06
1.38566e+06
1.39814e+06
1.40955e+06
1.42002e+06
1.42964e+06
1.43843e+06
1.44636e+06
1.45314e+06
1.45844e+06
1.46096e+06
1.46027e+06
1.11043e+06
1.14334e+06
1.17673e+06
1.20673e+06
1.23562e+06
1.26221e+06
1.28714e+06
1.31011e+06
1.33135e+06
1.35081e+06
1.36861e+06
1.38479e+06
1.39946e+06
1.41266e+06
1.42442e+06
1.43474e+06
1.44341e+06
1.45013e+06
1.45375e+06
1.45369e+06
1.01662e+06
1.05632e+06
1.09657e+06
1.13423e+06
1.17068e+06
1.20489e+06
1.23715e+06
1.26713e+06
1.29491e+06
1.32038e+06
1.3436e+06
1.36456e+06
1.38331e+06
1.39989e+06
1.41431e+06
1.42661e+06
1.43667e+06
1.44433e+06
1.44877e+06
1.4494e+06
920445
969304
1.01834e+06
1.06518e+06
1.11038e+06
1.15305e+06
1.19325e+06
1.23063e+06
1.26519e+06
1.29679e+06
1.32543e+06
1.35109e+06
1.37377e+06
1.39347e+06
1.41018e+06
1.42392e+06
1.43461e+06
1.44229e+06
1.44662e+06
1.44757e+06
827827
888155
947610
1.0046e+06
1.0592e+06
1.11063e+06
1.15886e+06
1.20355e+06
1.24468e+06
1.28212e+06
1.31587e+06
1.34589e+06
1.37216e+06
1.39465e+06
1.41326e+06
1.42795e+06
1.43857e+06
1.44526e+06
1.44799e+06
1.44789e+06
1.61394e+06
1.66092e+06
1.75669e+06
1.86681e+06
1.98043e+06
2.08004e+06
2.15777e+06
2.2082e+06
2.23207e+06
2.22356e+06
1.52736e+06
1.57262e+06
1.66308e+06
1.76946e+06
1.88399e+06
1.99045e+06
2.08087e+06
2.14728e+06
2.18793e+06
2.19225e+06
1.4493e+06
1.49316e+06
1.57801e+06
1.67789e+06
1.78747e+06
1.89212e+06
1.98532e+06
2.06052e+06
2.11682e+06
2.1469e+06
1.37765e+06
1.42092e+06
1.50175e+06
1.59663e+06
1.70246e+06
1.80576e+06
1.9003e+06
1.97974e+06
2.04126e+06
2.08596e+06
1.31032e+06
1.35312e+06
1.43018e+06
1.51977e+06
1.62067e+06
1.7209e+06
1.81498e+06
1.89801e+06
1.96402e+06
2.01922e+06
1.24682e+06
1.28953e+06
1.36377e+06
1.44895e+06
1.5453e+06
1.64197e+06
1.7338e+06
1.81754e+06
1.88484e+06
1.94696e+06
1.1859e+06
1.2286e+06
1.3004e+06
1.38155e+06
1.47347e+06
1.56645e+06
1.65558e+06
1.73916e+06
1.80665e+06
1.87234e+06
1.12719e+06
1.16996e+06
1.23979e+06
1.31744e+06
1.40522e+06
1.49436e+06
1.58021e+06
1.6624e+06
1.72922e+06
1.79649e+06
1.07006e+06
1.11286e+06
1.18097e+06
1.25545e+06
1.33937e+06
1.42476e+06
1.50723e+06
1.58739e+06
1.65303e+06
1.72032e+06
1.0143e+06
1.05699e+06
1.12348e+06
1.19503e+06
1.27527e+06
1.35691e+06
1.43591e+06
1.51351e+06
1.57769e+06
1.64406e+06
959681
1.002e+06
1.06678e+06
1.13547e+06
1.2121e+06
1.29e+06
1.36552e+06
1.44022e+06
1.50275e+06
1.56761e+06
906287
947638
1.01033e+06
1.07614e+06
1.14907e+06
1.22312e+06
1.29512e+06
1.36672e+06
1.42748e+06
1.49051e+06
854228
893962
953898
1.01634e+06
1.08529e+06
1.15526e+06
1.22367e+06
1.29202e+06
1.35097e+06
1.41206e+06
803856
841138
897266
955409
1.01981e+06
1.08534e+06
1.15e+06
1.21503e+06
1.27219e+06
1.33141e+06
756228
789432
839866
892085
951154
1.01179e+06
1.07258e+06
1.13433e+06
1.1899e+06
1.2475e+06
712916
739032
780918
825409
877911
933137
989945
1.04862e+06
1.10298e+06
1.15944e+06
677266
690385
718237
752427
796939
846582
899715
955915
1.00988e+06
1.06617e+06
651501
640261
648390
669964
706136
750521
800872
855648
910485
967899
645420
583096
560543
567400
596522
638253
688873
745320
803662
864758
633298
489677
447849
442820
469579
512167
566661
628375
694249
762248
)
;

boundaryField
{
    left
    {
        type            calculated;
        value           nonuniform List<scalar> 
30
(
1.60334e+06
1.51618e+06
1.43766e+06
1.36555e+06
1.29788e+06
1.23414e+06
1.17313e+06
1.11448e+06
1.05762e+06
1.00234e+06
948432
896263
845864
797620
752473
712728
683202
671179
702269
790024
5.88735e+06
4.11032e+06
3.31877e+06
2.85066e+06
2.53541e+06
2.29028e+06
2.09971e+06
1.94273e+06
1.81319e+06
1.69937e+06
)
;
    }
    right
    {
        type            calculated;
        value           nonuniform List<scalar> 
30
(
1.44742e+06
1.44733e+06
1.45009e+06
1.4568e+06
1.46677e+06
1.47941e+06
1.49366e+06
1.50856e+06
1.52309e+06
1.53628e+06
1.5472e+06
1.55533e+06
1.56085e+06
1.5638e+06
1.5637e+06
1.56081e+06
1.55551e+06
1.54783e+06
1.53826e+06
1.52721e+06
1.5152e+06
1.50279e+06
1.49052e+06
1.47895e+06
1.46862e+06
1.46e+06
1.4535e+06
1.44931e+06
1.44759e+06
1.4476e+06
)
;
    }
    down
    {
        type            calculated;
        value           nonuniform List<scalar> 
30
(
8182.02
1384.03
55792.5
149025
258440
374245
488105
597340
698722
792666
877498
951045
1.0186e+06
1.07912e+06
1.13358e+06
1.18221e+06
1.22564e+06
1.26419e+06
1.29835e+06
1.32839e+06
1.35465e+06
1.37734e+06
1.39667e+06
1.41277e+06
1.42573e+06
1.43566e+06
1.44257e+06
1.44674e+06
1.44816e+06
1.44778e+06
)
;
    }
    up
    {
        type            calculated;
        value           nonuniform List<scalar> 
30
(
612931
484598
446428
441517
467909
510110
564369
625958
691776
759892
825623
886239
946004
1.00325e+06
1.0581e+06
1.10974e+06
1.15817e+06
1.20303e+06
1.2443e+06
1.28186e+06
1.3157e+06
1.34581e+06
1.37214e+06
1.39467e+06
1.41331e+06
1.42801e+06
1.43862e+06
1.44529e+06
1.44799e+06
1.44794e+06
)
;
    }
    hole
    {
        type            calculated;
        value           nonuniform List<scalar> 
20
(
2.59999e+06
2.91314e+06
3.30623e+06
3.72819e+06
4.15309e+06
4.47142e+06
4.67587e+06
4.84214e+06
4.59666e+06
4.50573e+06
2579.93
5696.18
40873.9
157258
344936
604420
927082
1.30382e+06
1.71812e+06
2.16162e+06
)
;
    }
    frontAndBack
    {
        type            empty;
    }
}


// ************************************************************************* //
