/*--------------------------------*- C++ -*----------------------------------*\
  =========                 |
  \\      /  F ield         | OpenFOAM: The Open Source CFD Toolbox
   \\    /   O peration     | Website:  https://openfoam.org
    \\  /    A nd           | Version:  9
     \\/     M anipulation  |
\*---------------------------------------------------------------------------*/
FoamFile
{
    format      ascii;
    class       volVectorField;
    location    "5";
    object      D;
}
// * * * * * * * * * * * * * * * * * * * * * * * * * * * * * * * * * * * * * //

dimensions      [0 1 0 0 0 0 0];

internalField   nonuniform List<vector> 
1000
(
(3.38072e-06 1.13624e-06 0)
(3.15465e-06 1.25495e-06 0)
(2.99018e-06 1.35485e-06 0)
(2.87133e-06 1.43291e-06 0)
(2.78652e-06 1.50028e-06 0)
(2.72669e-06 1.55824e-06 0)
(2.68618e-06 1.61046e-06 0)
(2.66047e-06 1.65802e-06 0)
(2.64597e-06 1.70238e-06 0)
(2.64086e-06 1.74443e-06 0)
(3.04668e-06 1.02458e-06 0)
(2.81191e-06 1.11082e-06 0)
(2.64225e-06 1.18646e-06 0)
(2.5202e-06 1.24482e-06 0)
(2.43323e-06 1.29609e-06 0)
(2.37165e-06 1.34016e-06 0)
(2.32945e-06 1.38014e-06 0)
(2.30184e-06 1.41668e-06 0)
(2.28513e-06 1.45059e-06 0)
(2.27687e-06 1.48366e-06 0)
(2.7055e-06 9.12689e-07 0)
(2.46855e-06 9.64331e-07 0)
(2.29836e-06 1.01469e-06 0)
(2.17656e-06 1.05312e-06 0)
(2.09006e-06 1.08855e-06 0)
(2.0288e-06 1.11931e-06 0)
(1.98654e-06 1.14782e-06 0)
(1.95837e-06 1.17422e-06 0)
(1.9406e-06 1.19866e-06 0)
(1.93063e-06 1.22315e-06 0)
(2.3589e-06 8.02339e-07 0)
(2.12662e-06 8.18627e-07 0)
(1.96084e-06 8.4362e-07 0)
(1.84303e-06 8.6254e-07 0)
(1.75985e-06 8.82888e-07 0)
(1.70115e-06 9.01279e-07 0)
(1.66063e-06 9.19404e-07 0)
(1.63335e-06 9.36719e-07 0)
(1.61583e-06 9.52878e-07 0)
(1.60522e-06 9.69699e-07 0)
(2.00777e-06 6.95187e-07 0)
(1.78719e-06 6.76788e-07 0)
(1.63099e-06 6.77423e-07 0)
(1.52119e-06 6.78093e-07 0)
(1.4444e-06 6.84824e-07 0)
(1.3906e-06 6.92367e-07 0)
(1.35362e-06 7.01643e-07 0)
(1.32863e-06 7.11324e-07 0)
(1.31246e-06 7.20656e-07 0)
(1.30218e-06 7.31004e-07 0)
(1.6536e-06 5.91988e-07 0)
(1.45121e-06 5.4099e-07 0)
(1.30993e-06 5.19621e-07 0)
(1.21231e-06 5.04347e-07 0)
(1.14505e-06 4.99769e-07 0)
(1.0985e-06 4.98622e-07 0)
(1.06679e-06 5.01067e-07 0)
(1.04539e-06 5.04951e-07 0)
(1.03153e-06 5.0921e-07 0)
(1.02236e-06 5.14624e-07 0)
(1.29505e-06 4.92675e-07 0)
(1.11789e-06 4.12681e-07 0)
(9.97277e-07 3.73349e-07 0)
(9.16313e-07 3.45906e-07 0)
(8.61847e-07 3.33373e-07 0)
(8.24799e-07 3.26419e-07 0)
(7.99912e-07 3.24486e-07 0)
(7.8317e-07 3.2468e-07 0)
(7.72335e-07 3.25764e-07 0)
(7.64862e-07 3.2793e-07 0)
(9.34602e-07 3.94412e-07 0)
(7.88577e-07 2.91365e-07 0)
(6.94836e-07 2.41057e-07 0)
(6.34851e-07 2.07282e-07 0)
(5.95892e-07 1.91419e-07 0)
(5.69948e-07 1.82285e-07 0)
(5.52815e-07 1.78768e-07 0)
(5.41298e-07 1.77533e-07 0)
(5.33834e-07 1.77359e-07 0)
(5.28422e-07 1.77999e-07 0)
(5.6418e-07 2.87486e-07 0)
(4.61004e-07 1.73533e-07 0)
(4.01673e-07 1.24102e-07 0)
(3.66447e-07 9.3318e-08 0)
(3.45073e-07 8.01018e-08 0)
(3.31081e-07 7.27921e-08 0)
(3.22045e-07 7.02415e-08 0)
(3.15857e-07 6.93776e-08 0)
(3.1178e-07 6.93075e-08 0)
(3.08566e-07 6.96491e-08 0)
(1.94455e-07 1.50476e-07 0)
(1.46581e-07 6.38339e-08 0)
(1.28319e-07 3.34015e-08 0)
(1.18658e-07 1.81001e-08 0)
(1.13047e-07 1.2832e-08 0)
(1.09128e-07 1.04502e-08 0)
(1.06565e-07 1.01168e-08 0)
(1.04684e-07 1.03135e-08 0)
(1.03396e-07 1.07008e-08 0)
(1.02259e-07 1.11287e-08 0)
(5.96075e-06 1.84042e-06 0)
(5.95088e-06 2.06945e-06 0)
(5.94407e-06 2.28285e-06 0)
(5.94429e-06 2.47822e-06 0)
(5.95323e-06 2.65755e-06 0)
(5.97156e-06 2.82308e-06 0)
(5.99939e-06 2.9774e-06 0)
(6.03613e-06 3.12272e-06 0)
(6.08147e-06 3.26084e-06 0)
(6.13425e-06 3.3937e-06 0)
(5.77389e-06 1.82532e-06 0)
(5.74739e-06 2.05369e-06 0)
(5.72934e-06 2.2645e-06 0)
(5.72134e-06 2.45592e-06 0)
(5.72428e-06 2.63045e-06 0)
(5.73763e-06 2.79044e-06 0)
(5.76094e-06 2.93872e-06 0)
(5.79312e-06 3.07767e-06 0)
(5.83372e-06 3.20912e-06 0)
(5.88118e-06 3.33532e-06 0)
(5.5757e-06 1.79466e-06 0)
(5.52949e-06 2.02246e-06 0)
(5.49613e-06 2.22896e-06 0)
(5.47604e-06 2.41421e-06 0)
(5.46944e-06 2.58195e-06 0)
(5.47475e-06 2.73488e-06 0)
(5.49101e-06 2.87602e-06 0)
(5.51657e-06 3.00779e-06 0)
(5.55084e-06 3.1321e-06 0)
(5.59166e-06 3.25124e-06 0)
(5.36151e-06 1.75009e-06 0)
(5.29316e-06 1.97679e-06 0)
(5.24201e-06 2.17804e-06 0)
(5.2076e-06 2.35573e-06 0)
(5.18928e-06 2.51531e-06 0)
(5.18463e-06 2.65987e-06 0)
(5.1922e-06 2.79272e-06 0)
(5.20977e-06 2.9163e-06 0)
(5.23661e-06 3.03258e-06 0)
(5.26996e-06 3.14385e-06 0)
(5.12886e-06 1.69201e-06 0)
(5.03624e-06 1.91581e-06 0)
(4.96604e-06 2.11014e-06 0)
(4.91653e-06 2.27854e-06 0)
(4.88583e-06 2.42836e-06 0)
(4.87065e-06 2.56311e-06 0)
(4.86902e-06 2.68644e-06 0)
(4.87821e-06 2.80076e-06 0)
(4.89732e-06 2.90816e-06 0)
(4.923e-06 3.01075e-06 0)
(4.87741e-06 1.62178e-06 0)
(4.75914e-06 1.8396e-06 0)
(4.6695e-06 2.02499e-06 0)
(4.6049e-06 2.18251e-06 0)
(4.56194e-06 2.32124e-06 0)
(4.53638e-06 2.44502e-06 0)
(4.52569e-06 2.55781e-06 0)
(4.52666e-06 2.66194e-06 0)
(4.5382e-06 2.75966e-06 0)
(4.55646e-06 2.85282e-06 0)
(4.60781e-06 1.54047e-06 0)
(4.46351e-06 1.74815e-06 0)
(4.35485e-06 1.92206e-06 0)
(4.27587e-06 2.06694e-06 0)
(4.2214e-06 2.19332e-06 0)
(4.18621e-06 2.3051e-06 0)
(4.16714e-06 2.40649e-06 0)
(4.16053e-06 2.49972e-06 0)
(4.16505e-06 2.58713e-06 0)
(4.17652e-06 2.67024e-06 0)
(4.32145e-06 1.44959e-06 0)
(4.15202e-06 1.64231e-06 0)
(4.02557e-06 1.80191e-06 0)
(3.93344e-06 1.93243e-06 0)
(3.86866e-06 2.04534e-06 0)
(3.82495e-06 2.1443e-06 0)
(3.79849e-06 2.23371e-06 0)
(3.78525e-06 2.31551e-06 0)
(3.78355e-06 2.39217e-06 0)
(3.78912e-06 2.46473e-06 0)
(4.02013e-06 1.3507e-06 0)
(3.82784e-06 1.52341e-06 0)
(3.68563e-06 1.66576e-06 0)
(3.58215e-06 1.78022e-06 0)
(3.50867e-06 1.87865e-06 0)
(3.45786e-06 1.96422e-06 0)
(3.42523e-06 2.04123e-06 0)
(3.4065e-06 2.11139e-06 0)
(3.39948e-06 2.17701e-06 0)
(3.40025e-06 2.23888e-06 0)
(3.70587e-06 1.24561e-06 0)
(3.49428e-06 1.39345e-06 0)
(3.33915e-06 1.51578e-06 0)
(3.2266e-06 1.61265e-06 0)
(3.14632e-06 1.69583e-06 0)
(3.09003e-06 1.76763e-06 0)
(3.05266e-06 1.83217e-06 0)
(3.02967e-06 1.89069e-06 0)
(3.01841e-06 1.94543e-06 0)
(3.01577e-06 1.99593e-06 0)
(6.19732e-06 3.5215e-06 0)
(6.26974e-06 3.64834e-06 0)
(6.34772e-06 3.77315e-06 0)
(6.43063e-06 3.89651e-06 0)
(6.51804e-06 4.01906e-06 0)
(6.60946e-06 4.14115e-06 0)
(6.7045e-06 4.2632e-06 0)
(6.80275e-06 4.3855e-06 0)
(6.90388e-06 4.5083e-06 0)
(7.00756e-06 4.63183e-06 0)
(7.11348e-06 4.75626e-06 0)
(7.22137e-06 4.88177e-06 0)
(7.33095e-06 5.00847e-06 0)
(7.44197e-06 5.13647e-06 0)
(7.55419e-06 5.26584e-06 0)
(7.66733e-06 5.39662e-06 0)
(7.78118e-06 5.52878e-06 0)
(7.89546e-06 5.66223e-06 0)
(8.00999e-06 5.79673e-06 0)
(8.12449e-06 5.93187e-06 0)
(5.94692e-06 3.45828e-06 0)
(6.02825e-06 3.58301e-06 0)
(6.11394e-06 3.70582e-06 0)
(6.20331e-06 3.82742e-06 0)
(6.29621e-06 3.94846e-06 0)
(6.39222e-06 4.06928e-06 0)
(6.49113e-06 4.1903e-06 0)
(6.59262e-06 4.31176e-06 0)
(6.69646e-06 4.43395e-06 0)
(6.80241e-06 4.55705e-06 0)
(6.91024e-06 4.68125e-06 0)
(7.01975e-06 4.80669e-06 0)
(7.13075e-06 4.93351e-06 0)
(7.24302e-06 5.06179e-06 0)
(7.35641e-06 5.19161e-06 0)
(7.47072e-06 5.323e-06 0)
(7.58578e-06 5.45593e-06 0)
(7.70139e-06 5.59032e-06 0)
(7.81742e-06 5.72594e-06 0)
(7.93357e-06 5.86244e-06 0)
(5.66104e-06 3.37056e-06 0)
(5.75387e-06 3.49549e-06 0)
(5.84984e-06 3.61857e-06 0)
(5.94808e-06 3.74041e-06 0)
(6.04881e-06 3.86178e-06 0)
(6.15161e-06 3.98295e-06 0)
(6.25648e-06 4.10441e-06 0)
(6.36318e-06 4.22639e-06 0)
(6.47162e-06 4.34918e-06 0)
(6.58163e-06 4.47297e-06 0)
(6.69308e-06 4.59796e-06 0)
(6.80585e-06 4.72429e-06 0)
(6.91981e-06 4.85209e-06 0)
(7.03484e-06 4.98147e-06 0)
(7.15083e-06 5.1125e-06 0)
(7.26765e-06 5.24525e-06 0)
(7.3852e-06 5.3797e-06 0)
(7.50331e-06 5.51584e-06 0)
(7.62186e-06 5.65353e-06 0)
(7.74053e-06 5.79258e-06 0)
(5.34388e-06 3.26023e-06 0)
(5.45037e-06 3.38718e-06 0)
(5.55883e-06 3.51236e-06 0)
(5.66801e-06 3.63605e-06 0)
(5.7786e-06 3.75928e-06 0)
(5.89012e-06 3.88219e-06 0)
(6.00281e-06 4.00538e-06 0)
(6.11648e-06 4.12906e-06 0)
(6.23118e-06 4.25356e-06 0)
(6.34683e-06 4.37907e-06 0)
(6.4634e-06 4.5058e-06 0)
(6.58084e-06 4.63392e-06 0)
(6.69911e-06 4.76357e-06 0)
(6.81816e-06 4.89486e-06 0)
(6.93794e-06 5.0279e-06 0)
(7.05838e-06 5.16278e-06 0)
(7.17942e-06 5.29955e-06 0)
(7.30094e-06 5.43824e-06 0)
(7.42285e-06 5.57888e-06 0)
(7.54481e-06 5.72141e-06 0)
(5.00234e-06 3.1252e-06 0)
(5.12411e-06 3.25621e-06 0)
(5.24672e-06 3.38557e-06 0)
(5.36841e-06 3.51296e-06 0)
(5.49039e-06 3.63976e-06 0)
(5.61209e-06 3.76599e-06 0)
(5.734e-06 3.89236e-06 0)
(5.85598e-06 4.01907e-06 0)
(5.97823e-06 4.14649e-06 0)
(6.10072e-06 4.27485e-06 0)
(6.22356e-06 4.40438e-06 0)
(6.34675e-06 4.53526e-06 0)
(6.47035e-06 4.66766e-06 0)
(6.59436e-06 4.80172e-06 0)
(6.71881e-06 4.93759e-06 0)
(6.84368e-06 5.07537e-06 0)
(6.96898e-06 5.21521e-06 0)
(7.09461e-06 5.35721e-06 0)
(7.22054e-06 5.50156e-06 0)
(7.34645e-06 5.6483e-06 0)
(4.64199e-06 2.96624e-06 0)
(4.7802e-06 3.10323e-06 0)
(4.91821e-06 3.2387e-06 0)
(5.05356e-06 3.37152e-06 0)
(5.18809e-06 3.50352e-06 0)
(5.32109e-06 3.63458e-06 0)
(5.45331e-06 3.76551e-06 0)
(5.58465e-06 3.89654e-06 0)
(5.71543e-06 4.02808e-06 0)
(5.84574e-06 4.1604e-06 0)
(5.97574e-06 4.29375e-06 0)
(6.10553e-06 4.42836e-06 0)
(6.23524e-06 4.56441e-06 0)
(6.36495e-06 4.70208e-06 0)
(6.49474e-06 4.84155e-06 0)
(6.62467e-06 4.983e-06 0)
(6.75478e-06 5.1266e-06 0)
(6.88506e-06 5.27256e-06 0)
(7.01551e-06 5.42121e-06 0)
(7.14591e-06 5.57269e-06 0)
(4.26879e-06 2.78364e-06 0)
(4.42403e-06 2.92853e-06 0)
(4.57821e-06 3.072e-06 0)
(4.72795e-06 3.21203e-06 0)
(4.8758e-06 3.3508e-06 0)
(5.02089e-06 3.48819e-06 0)
(5.16418e-06 3.62503e-06 0)
(5.30563e-06 3.76165e-06 0)
(5.44567e-06 3.89849e-06 0)
(5.58447e-06 4.03587e-06 0)
(5.72228e-06 4.17407e-06 0)
(5.85928e-06 4.31336e-06 0)
(5.99567e-06 4.45396e-06 0)
(6.1316e-06 4.59608e-06 0)
(6.26722e-06 4.73994e-06 0)
(6.40264e-06 4.88575e-06 0)
(6.53798e-06 5.03377e-06 0)
(6.67329e-06 5.18425e-06 0)
(6.80863e-06 5.33766e-06 0)
(6.94393e-06 5.49424e-06 0)
(3.88835e-06 2.57904e-06 0)
(4.06067e-06 2.73364e-06 0)
(4.2312e-06 2.88661e-06 0)
(4.3957e-06 3.03549e-06 0)
(4.55721e-06 3.18246e-06 0)
(4.71485e-06 3.3276e-06 0)
(4.86968e-06 3.47168e-06 0)
(5.02175e-06 3.61513e-06 0)
(5.17156e-06 3.75842e-06 0)
(5.31934e-06 3.90191e-06 0)
(5.46544e-06 4.04596e-06 0)
(5.61009e-06 4.19084e-06 0)
(5.75356e-06 4.33684e-06 0)
(5.89607e-06 4.48419e-06 0)
(6.03784e-06 4.63315e-06 0)
(6.17905e-06 4.78397e-06 0)
(6.31987e-06 4.93696e-06 0)
(6.46046e-06 5.09243e-06 0)
(6.60092e-06 5.25095e-06 0)
(6.74139e-06 5.41281e-06 0)
(3.50639e-06 2.35436e-06 0)
(3.69536e-06 2.52057e-06 0)
(3.88179e-06 2.68422e-06 0)
(4.06114e-06 2.84345e-06 0)
(4.23626e-06 2.99981e-06 0)
(4.40661e-06 3.15383e-06 0)
(4.5731e-06 3.30621e-06 0)
(4.73598e-06 3.45753e-06 0)
(4.89575e-06 3.60828e-06 0)
(5.05275e-06 3.75888e-06 0)
(5.20736e-06 3.90971e-06 0)
(5.3599e-06 4.0611e-06 0)
(5.51067e-06 4.21335e-06 0)
(5.65998e-06 4.36673e-06 0)
(5.80808e-06 4.52151e-06 0)
(5.95524e-06 4.67798e-06 0)
(6.1017e-06 4.83648e-06 0)
(6.24769e-06 4.99736e-06 0)
(6.3934e-06 5.16124e-06 0)
(6.53917e-06 5.32845e-06 0)
(3.12738e-06 2.11303e-06 0)
(3.33212e-06 2.29205e-06 0)
(3.5328e-06 2.46673e-06 0)
(3.72664e-06 2.63741e-06 0)
(3.91512e-06 2.80441e-06 0)
(4.09824e-06 2.96854e-06 0)
(4.27657e-06 3.13039e-06 0)
(4.45048e-06 3.29061e-06 0)
(4.62044e-06 3.44976e-06 0)
(4.78686e-06 3.60832e-06 0)
(4.95016e-06 3.76672e-06 0)
(5.11071e-06 3.92535e-06 0)
(5.26891e-06 4.08453e-06 0)
(5.42508e-06 4.24457e-06 0)
(5.57958e-06 4.40576e-06 0)
(5.73273e-06 4.5684e-06 0)
(5.88481e-06 4.73285e-06 0)
(6.03621e-06 4.89946e-06 0)
(6.18715e-06 5.06886e-06 0)
(6.33821e-06 5.2414e-06 0)
(2.83503e-06 1.93207e-06 0)
(3.04853e-06 2.12039e-06 0)
(3.25669e-06 2.3013e-06 0)
(3.45839e-06 2.47852e-06 0)
(3.65446e-06 2.65204e-06 0)
(3.84492e-06 2.8226e-06 0)
(4.03028e-06 2.99079e-06 0)
(4.21084e-06 3.15714e-06 0)
(4.38705e-06 3.32219e-06 0)
(4.5593e-06 3.48639e-06 0)
(4.72799e-06 3.65015e-06 0)
(4.89352e-06 3.81384e-06 0)
(5.05628e-06 3.97776e-06 0)
(5.21664e-06 4.14223e-06 0)
(5.37496e-06 4.30752e-06 0)
(5.53163e-06 4.4739e-06 0)
(5.68697e-06 4.64171e-06 0)
(5.84143e-06 4.81127e-06 0)
(5.99528e-06 4.98313e-06 0)
(6.1493e-06 5.15761e-06 0)
(2.63996e-06 1.8238e-06 0)
(2.85349e-06 2.01209e-06 0)
(3.06172e-06 2.19449e-06 0)
(3.26408e-06 2.37371e-06 0)
(3.46115e-06 2.54969e-06 0)
(3.65287e-06 2.72297e-06 0)
(3.83965e-06 2.89399e-06 0)
(4.02173e-06 3.06319e-06 0)
(4.19946e-06 3.23101e-06 0)
(4.37319e-06 3.39783e-06 0)
(4.54329e-06 3.56401e-06 0)
(4.71011e-06 3.72986e-06 0)
(4.87403e-06 3.89568e-06 0)
(5.03541e-06 4.06173e-06 0)
(5.19461e-06 4.22824e-06 0)
(5.35202e-06 4.39548e-06 0)
(5.50798e-06 4.56369e-06 0)
(5.66298e-06 4.73318e-06 0)
(5.8173e-06 4.90435e-06 0)
(5.97186e-06 5.07743e-06 0)
(2.46777e-06 1.71984e-06 0)
(2.67745e-06 1.90757e-06 0)
(2.88356e-06 2.09049e-06 0)
(3.08437e-06 2.27092e-06 0)
(3.28064e-06 2.44869e-06 0)
(3.472e-06 2.6241e-06 0)
(3.65881e-06 2.79751e-06 0)
(3.84115e-06 2.96922e-06 0)
(4.01934e-06 3.13956e-06 0)
(4.19362e-06 3.30884e-06 0)
(4.36433e-06 3.47733e-06 0)
(4.53177e-06 3.64531e-06 0)
(4.69628e-06 3.81299e-06 0)
(4.85822e-06 3.98061e-06 0)
(5.01791e-06 4.14836e-06 0)
(5.17576e-06 4.31643e-06 0)
(5.3321e-06 4.48502e-06 0)
(5.48745e-06 4.65435e-06 0)
(5.6421e-06 4.82468e-06 0)
(5.79702e-06 4.99617e-06 0)
(2.31343e-06 1.6197e-06 0)
(2.5181e-06 1.80591e-06 0)
(2.72051e-06 1.98866e-06 0)
(2.91833e-06 2.16981e-06 0)
(3.11239e-06 2.34893e-06 0)
(3.30208e-06 2.52616e-06 0)
(3.48771e-06 2.70167e-06 0)
(3.66923e-06 2.87565e-06 0)
(3.84689e-06 3.04832e-06 0)
(4.02087e-06 3.2199e-06 0)
(4.19143e-06 3.39059e-06 0)
(4.35884e-06 3.56059e-06 0)
(4.5234e-06 3.73007e-06 0)
(4.68543e-06 3.89921e-06 0)
(4.84525e-06 4.06814e-06 0)
(5.00323e-06 4.237e-06 0)
(5.15971e-06 4.40591e-06 0)
(5.31519e-06 4.57504e-06 0)
(5.47002e-06 4.74446e-06 0)
(5.62514e-06 4.91422e-06 0)
(2.17518e-06 1.52445e-06 0)
(2.3737e-06 1.70858e-06 0)
(2.57114e-06 1.89057e-06 0)
(2.76476e-06 2.07182e-06 0)
(2.95544e-06 2.25172e-06 0)
(3.14236e-06 2.43026e-06 0)
(3.32578e-06 2.60745e-06 0)
(3.50555e-06 2.78334e-06 0)
(3.68183e-06 2.95804e-06 0)
(3.85474e-06 3.13168e-06 0)
(4.02449e-06 3.30436e-06 0)
(4.19129e-06 3.47623e-06 0)
(4.3554e-06 3.64739e-06 0)
(4.51709e-06 3.81794e-06 0)
(4.67668e-06 3.98798e-06 0)
(4.83448e-06 4.15758e-06 0)
(4.99087e-06 4.32677e-06 0)
(5.14621e-06 4.49562e-06 0)
(5.30115e-06 4.66401e-06 0)
(5.45638e-06 4.832e-06 0)
(2.05036e-06 1.43403e-06 0)
(2.24211e-06 1.61555e-06 0)
(2.43376e-06 1.79626e-06 0)
(2.62234e-06 1.97712e-06 0)
(2.80874e-06 2.15736e-06 0)
(2.99203e-06 2.33679e-06 0)
(3.1724e-06 2.51528e-06 0)
(3.34961e-06 2.69275e-06 0)
(3.52379e-06 2.86919e-06 0)
(3.69496e-06 3.04462e-06 0)
(3.8633e-06 3.21908e-06 0)
(4.02895e-06 3.39263e-06 0)
(4.19215e-06 3.56531e-06 0)
(4.35313e-06 3.73716e-06 0)
(4.51216e-06 3.9082e-06 0)
(4.66956e-06 4.07844e-06 0)
(4.82561e-06 4.24785e-06 0)
(4.98081e-06 4.41634e-06 0)
(5.13542e-06 4.58374e-06 0)
(5.29037e-06 4.75006e-06 0)
(1.93682e-06 1.34851e-06 0)
(2.12142e-06 1.52712e-06 0)
(2.30669e-06 1.70617e-06 0)
(2.48961e-06 1.88622e-06 0)
(2.67105e-06 2.06636e-06 0)
(2.85002e-06 2.24629e-06 0)
(3.02667e-06 2.42569e-06 0)
(3.20068e-06 2.60438e-06 0)
(3.37214e-06 2.78223e-06 0)
(3.54101e-06 2.95918e-06 0)
(3.70742e-06 3.13517e-06 0)
(3.87148e-06 3.31018e-06 0)
(4.03337e-06 3.48419e-06 0)
(4.19329e-06 3.65717e-06 0)
(4.35148e-06 3.8291e-06 0)
(4.5082e-06 3.99989e-06 0)
(4.66374e-06 4.16945e-06 0)
(4.81853e-06 4.33762e-06 0)
(4.97277e-06 4.5041e-06 0)
(5.12735e-06 4.66874e-06 0)
(1.83243e-06 1.26768e-06 0)
(2.00969e-06 1.44318e-06 0)
(2.18822e-06 1.62029e-06 0)
(2.36507e-06 1.79921e-06 0)
(2.54108e-06 1.97892e-06 0)
(2.71522e-06 2.15898e-06 0)
(2.88761e-06 2.33896e-06 0)
(3.05792e-06 2.51854e-06 0)
(3.22615e-06 2.69751e-06 0)
(3.39226e-06 2.87569e-06 0)
(3.55631e-06 3.05295e-06 0)
(3.71839e-06 3.22919e-06 0)
(3.87862e-06 3.40433e-06 0)
(4.03719e-06 3.57828e-06 0)
(4.19427e-06 3.75095e-06 0)
(4.35012e-06 3.9222e-06 0)
(4.50496e-06 4.09186e-06 0)
(4.65917e-06 4.2597e-06 0)
(4.81293e-06 4.42531e-06 0)
(4.96701e-06 4.58845e-06 0)
(1.7353e-06 1.1913e-06 0)
(1.90515e-06 1.36363e-06 0)
(2.07674e-06 1.53863e-06 0)
(2.24725e-06 1.71619e-06 0)
(2.41747e-06 1.8952e-06 0)
(2.58641e-06 2.07511e-06 0)
(2.75415e-06 2.25535e-06 0)
(2.92034e-06 2.43552e-06 0)
(3.08497e-06 2.6153e-06 0)
(3.24794e-06 2.79443e-06 0)
(3.40928e-06 2.9727e-06 0)
(3.56906e-06 3.14993e-06 0)
(3.72736e-06 3.32599e-06 0)
(3.88431e-06 3.50073e-06 0)
(4.04008e-06 3.67399e-06 0)
(4.19487e-06 3.8456e-06 0)
(4.34885e-06 4.01531e-06 0)
(4.50236e-06 4.18285e-06 0)
(4.65552e-06 4.34769e-06 0)
(4.80896e-06 4.50955e-06 0)
(1.64369e-06 1.11907e-06 0)
(1.80612e-06 1.28827e-06 0)
(1.97065e-06 1.4611e-06 0)
(2.13465e-06 1.63714e-06 0)
(2.29886e-06 1.81524e-06 0)
(2.46234e-06 1.99475e-06 0)
(2.62514e-06 2.175e-06 0)
(2.78692e-06 2.35549e-06 0)
(2.94764e-06 2.5358e-06 0)
(3.10718e-06 2.71561e-06 0)
(3.26555e-06 2.89463e-06 0)
(3.42277e-06 3.07262e-06 0)
(3.57891e-06 3.24938e-06 0)
(3.73406e-06 3.42472e-06 0)
(3.88835e-06 3.59843e-06 0)
(4.04192e-06 3.77029e-06 0)
(4.19493e-06 3.94e-06 0)
(4.34761e-06 4.10726e-06 0)
(4.50007e-06 4.27147e-06 0)
(4.65278e-06 4.43231e-06 0)
(1.55598e-06 1.05072e-06 0)
(1.71102e-06 1.21691e-06 0)
(1.86845e-06 1.38755e-06 0)
(2.02584e-06 1.56199e-06 0)
(2.18388e-06 1.73905e-06 0)
(2.34172e-06 1.91797e-06 0)
(2.49939e-06 2.09799e-06 0)
(2.65655e-06 2.27856e-06 0)
(2.81314e-06 2.45916e-06 0)
(2.96905e-06 2.63939e-06 0)
(3.12426e-06 2.81891e-06 0)
(3.27874e-06 2.99742e-06 0)
(3.43255e-06 3.17467e-06 0)
(3.58575e-06 3.35041e-06 0)
(3.73841e-06 3.52441e-06 0)
(3.89066e-06 3.69641e-06 0)
(4.04259e-06 3.86609e-06 0)
(4.19438e-06 4.03311e-06 0)
(4.34608e-06 4.19685e-06 0)
(4.49798e-06 4.35696e-06 0)
(1.47066e-06 9.86003e-07 0)
(1.61834e-06 1.14935e-06 0)
(1.76864e-06 1.31785e-06 0)
(1.91936e-06 1.49067e-06 0)
(2.07116e-06 1.66659e-06 0)
(2.22324e-06 1.84476e-06 0)
(2.37565e-06 2.02437e-06 0)
(2.52806e-06 2.20479e-06 0)
(2.68041e-06 2.38544e-06 0)
(2.83256e-06 2.56585e-06 0)
(2.98447e-06 2.74563e-06 0)
(3.13611e-06 2.92443e-06 0)
(3.28748e-06 3.10195e-06 0)
(3.43863e-06 3.27792e-06 0)
(3.58959e-06 3.45205e-06 0)
(3.74044e-06 3.62409e-06 0)
(3.89123e-06 3.79369e-06 0)
(4.04206e-06 3.9605e-06 0)
(4.19295e-06 4.12393e-06 0)
(4.344e-06 4.28361e-06 0)
(1.38629e-06 9.24696e-07 0)
(1.5266e-06 1.08541e-06 0)
(1.66974e-06 1.25186e-06 0)
(1.81376e-06 1.42307e-06 0)
(1.95927e-06 1.59777e-06 0)
(2.10555e-06 1.77508e-06 0)
(2.25265e-06 1.95412e-06 0)
(2.40025e-06 2.13419e-06 0)
(2.5483e-06 2.31467e-06 0)
(2.69663e-06 2.49504e-06 0)
(2.8452e-06 2.67485e-06 0)
(2.99395e-06 2.85372e-06 0)
(3.14285e-06 3.03131e-06 0)
(3.29191e-06 3.20731e-06 0)
(3.44113e-06 3.38143e-06 0)
(3.59054e-06 3.55339e-06 0)
(3.74017e-06 3.72286e-06 0)
(3.89002e-06 3.8895e-06 0)
(4.04008e-06 4.05276e-06 0)
(4.19028e-06 4.21232e-06 0)
(1.30142e-06 8.66714e-07 0)
(1.43434e-06 1.02501e-06 0)
(1.57029e-06 1.18951e-06 0)
(1.70759e-06 1.35912e-06 0)
(1.8468e-06 1.53255e-06 0)
(1.98728e-06 1.70889e-06 0)
(2.12907e-06 1.88719e-06 0)
(2.27189e-06 2.06673e-06 0)
(2.41565e-06 2.24684e-06 0)
(2.5602e-06 2.42695e-06 0)
(2.70546e-06 2.60658e-06 0)
(2.85134e-06 2.7853e-06 0)
(2.99779e-06 2.96275e-06 0)
(3.14478e-06 3.13861e-06 0)
(3.29228e-06 3.31257e-06 0)
(3.44028e-06 3.48434e-06 0)
(3.58874e-06 3.65362e-06 0)
(3.73764e-06 3.82011e-06 0)
(3.88688e-06 3.98333e-06 0)
(4.03627e-06 4.14304e-06 0)
(1.21456e-06 8.11893e-07 0)
(1.34e-06 9.6798e-07 0)
(1.46873e-06 1.13063e-06 0)
(1.59932e-06 1.29866e-06 0)
(1.73224e-06 1.47079e-06 0)
(1.86698e-06 1.64604e-06 0)
(2.00354e-06 1.82348e-06 0)
(2.14167e-06 2.00231e-06 0)
(2.28125e-06 2.18184e-06 0)
(2.42212e-06 2.36149e-06 0)
(2.56418e-06 2.54073e-06 0)
(2.70731e-06 2.71911e-06 0)
(2.85143e-06 2.89624e-06 0)
(2.99645e-06 3.07179e-06 0)
(3.14231e-06 3.24544e-06 0)
(3.28896e-06 3.41691e-06 0)
(3.43632e-06 3.58594e-06 0)
(3.5843e-06 3.75227e-06 0)
(3.73277e-06 3.91556e-06 0)
(3.88143e-06 4.07564e-06 0)
(1.12419e-06 7.60419e-07 0)
(1.24204e-06 9.14449e-07 0)
(1.36349e-06 1.07529e-06 0)
(1.48736e-06 1.24173e-06 0)
(1.61408e-06 1.41246e-06 0)
(1.74319e-06 1.58651e-06 0)
(1.87467e-06 1.7629e-06 0)
(2.00827e-06 1.94084e-06 0)
(2.14386e-06 2.11959e-06 0)
(2.28126e-06 2.29856e-06 0)
(2.42033e-06 2.4772e-06 0)
(2.56092e-06 2.65504e-06 0)
(2.70289e-06 2.83167e-06 0)
(2.84613e-06 3.00675e-06 0)
(2.99052e-06 3.17995e-06 0)
(3.13596e-06 3.35102e-06 0)
(3.28233e-06 3.51972e-06 0)
(3.4295e-06 3.68587e-06 0)
(3.57728e-06 3.84926e-06 0)
(3.7253e-06 4.00987e-06 0)
(1.0285e-06 7.12016e-07 0)
(1.13861e-06 8.64116e-07 0)
(1.25274e-06 1.02318e-06 0)
(1.36997e-06 1.18799e-06 0)
(1.49061e-06 1.35725e-06 0)
(1.61427e-06 1.52996e-06 0)
(1.7409e-06 1.70515e-06 0)
(1.87026e-06 1.88201e-06 0)
(2.00216e-06 2.0598e-06 0)
(2.13641e-06 2.2379e-06 0)
(2.27281e-06 2.41575e-06 0)
(2.41117e-06 2.59288e-06 0)
(2.55132e-06 2.76885e-06 0)
(2.69306e-06 2.94332e-06 0)
(2.83625e-06 3.11596e-06 0)
(2.98072e-06 3.28653e-06 0)
(3.1263e-06 3.45483e-06 0)
(3.2728e-06 3.62075e-06 0)
(3.42002e-06 3.78424e-06 0)
(3.56755e-06 3.94542e-06 0)
(9.25736e-07 6.67456e-07 0)
(1.02796e-06 8.17579e-07 0)
(1.13475e-06 9.74742e-07 0)
(1.24543e-06 1.13776e-06 0)
(1.36019e-06 1.30533e-06 0)
(1.47869e-06 1.47648e-06 0)
(1.60081e-06 1.65022e-06 0)
(1.72629e-06 1.82575e-06 0)
(1.85492e-06 2.00233e-06 0)
(1.98643e-06 2.17933e-06 0)
(2.1206e-06 2.35618e-06 0)
(2.25718e-06 2.53239e-06 0)
(2.39592e-06 2.70753e-06 0)
(2.5366e-06 2.88125e-06 0)
(2.67897e-06 3.05323e-06 0)
(2.82281e-06 3.22322e-06 0)
(2.96789e-06 3.39106e-06 0)
(3.11398e-06 3.55669e-06 0)
(3.26082e-06 3.7202e-06 0)
(3.40803e-06 3.88189e-06 0)
(8.13286e-07 6.25666e-07 0)
(9.07512e-07 7.73781e-07 0)
(1.00704e-06 9.28952e-07 0)
(1.11139e-06 1.09005e-06 0)
(1.22061e-06 1.25579e-06 0)
(1.33436e-06 1.4252e-06 0)
(1.45246e-06 1.59732e-06 0)
(1.57461e-06 1.77135e-06 0)
(1.70053e-06 1.94654e-06 0)
(1.82991e-06 2.12226e-06 0)
(1.96245e-06 2.29794e-06 0)
(2.09785e-06 2.47311e-06 0)
(2.2358e-06 2.64731e-06 0)
(2.37599e-06 2.82019e-06 0)
(2.51812e-06 2.99143e-06 0)
(2.66187e-06 3.16079e-06 0)
(2.80694e-06 3.32813e-06 0)
(2.95301e-06 3.49342e-06 0)
(3.09977e-06 3.65686e-06 0)
(3.24684e-06 3.8189e-06 0)
(6.89691e-07 5.89111e-07 0)
(7.75865e-07 7.3474e-07 0)
(8.68302e-07 8.87426e-07 0)
(9.66622e-07 1.04611e-06 0)
(1.07073e-06 1.20955e-06 0)
(1.18025e-06 1.37678e-06 0)
(1.29491e-06 1.54685e-06 0)
(1.41435e-06 1.71897e-06 0)
(1.53823e-06 1.89241e-06 0)
(1.66615e-06 2.06653e-06 0)
(1.79776e-06 2.24077e-06 0)
(1.93268e-06 2.41463e-06 0)
(2.07053e-06 2.5877e-06 0)
(2.21094e-06 2.75959e-06 0)
(2.35351e-06 2.93e-06 0)
(2.49785e-06 3.0987e-06 0)
(2.64355e-06 3.26554e-06 0)
(2.79015e-06 3.43051e-06 0)
(2.93728e-06 3.59381e-06 0)
(3.08445e-06 3.75595e-06 0)
(9.88556e-08 1.062e-08 0)
(2.9863e-07 6.56361e-08 0)
(5.10998e-07 1.68238e-07 0)
(7.38646e-07 3.11575e-07 0)
(9.8595e-07 4.91767e-07 0)
(1.25427e-06 7.02407e-07 0)
(1.54469e-06 9.36648e-07 0)
(1.8567e-06 1.18731e-06 0)
(2.18937e-06 1.44713e-06 0)
(2.54093e-06 1.71015e-06 0)
(9.31183e-08 9.47922e-09 0)
(2.81502e-07 5.89002e-08 0)
(4.8125e-07 1.52054e-07 0)
(6.94442e-07 2.83388e-07 0)
(9.25067e-07 4.4998e-07 0)
(1.17439e-06 6.46441e-07 0)
(1.44351e-06 8.66826e-07 0)
(1.73196e-06 1.1048e-06 0)
(2.03868e-06 1.3534e-06 0)
(2.36182e-06 1.60789e-06 0)
(8.79611e-08 8.13704e-09 0)
(2.66135e-07 5.20891e-08 0)
(4.54713e-07 1.36409e-07 0)
(6.55086e-07 2.56538e-07 0)
(8.70808e-07 4.10282e-07 0)
(1.10295e-06 5.93076e-07 0)
(1.35268e-06 7.99739e-07 0)
(1.61982e-06 1.02482e-06 0)
(1.90399e-06 1.262e-06 0)
(2.20316e-06 1.50791e-06 0)
(8.32417e-08 6.58204e-09 0)
(2.52136e-07 4.52545e-08 0)
(4.30829e-07 1.21597e-07 0)
(6.2008e-07 2.31762e-07 0)
(8.23062e-07 3.74092e-07 0)
(1.04056e-06 5.44653e-07 0)
(1.27367e-06 7.38819e-07 0)
(1.52207e-06 9.5172e-07 0)
(1.78582e-06 1.17736e-06 0)
(2.0625e-06 1.41283e-06 0)
(7.88296e-08 4.79865e-09 0)
(2.39069e-07 3.81582e-08 0)
(4.08689e-07 1.06937e-07 0)
(5.87864e-07 2.07817e-07 0)
(7.79437e-07 3.39539e-07 0)
(9.83925e-07 4.98673e-07 0)
(1.20242e-06 6.81086e-07 0)
(1.43446e-06 8.82456e-07 0)
(1.68057e-06 1.0973e-06 0)
(1.93758e-06 1.32266e-06 0)
(7.46887e-08 2.81651e-09 0)
(2.26825e-07 3.08467e-08 0)
(3.88092e-07 9.25061e-08 0)
(5.58136e-07 1.84865e-07 0)
(7.39513e-07 3.06949e-07 0)
(9.3245e-07 4.55694e-07 0)
(1.13799e-06 6.27327e-07 0)
(1.35548e-06 8.17874e-07 0)
(1.58587e-06 1.02234e-06 0)
(1.82547e-06 1.23758e-06 0)
(7.07353e-08 6.25704e-10 0)
(2.15145e-07 2.3213e-08 0)
(3.68542e-07 7.79972e-08 0)
(5.30103e-07 1.62337e-07 0)
(7.02147e-07 2.75468e-07 0)
(8.84647e-07 4.14611e-07 0)
(1.07862e-06 5.7631e-07 0)
(1.28321e-06 7.56851e-07 0)
(1.49967e-06 9.51727e-07 0)
(1.72396e-06 1.15744e-06 0)
(6.69388e-08 -1.74537e-09 0)
(2.03931e-07 1.52897e-08 0)
(3.49851e-07 6.34203e-08 0)
(5.0345e-07 1.40217e-07 0)
(6.66847e-07 2.45062e-07 0)
(8.39777e-07 3.75371e-07 0)
(1.02323e-06 5.27937e-07 0)
(1.2162e-06 6.99213e-07 0)
(1.42012e-06 8.85139e-07 0)
(1.63085e-06 1.08193e-06 0)
(6.325e-08 -4.29807e-09 0)
(1.93036e-07 7.0338e-09 0)
(3.31749e-07 4.86378e-08 0)
(4.77753e-07 1.18243e-07 0)
(6.32996e-07 2.15334e-07 0)
(7.9702e-07 3.37468e-07 0)
(9.70776e-07 4.81638e-07 0)
(1.15316e-06 6.44411e-07 0)
(1.3457e-06 8.22103e-07 0)
(1.5443e-06 1.01071e-06 0)
(5.96421e-08 -7.01502e-09 0)
(1.8238e-07 -1.53947e-09 0)
(3.14079e-07 3.36363e-08 0)
(4.52749e-07 9.63633e-08 0)
(6.00186e-07 1.86183e-07 0)
(7.55771e-07 3.00741e-07 0)
(9.20421e-07 4.37179e-07 0)
(1.093e-06 5.92144e-07 0)
(1.27504e-06 7.62259e-07 0)
(1.46264e-06 9.43398e-07 0)
(5.60857e-08 -9.89468e-09 0)
(1.71876e-07 -1.04501e-08 0)
(2.96684e-07 1.83484e-08 0)
(4.28179e-07 7.44513e-08 0)
(5.68022e-07 1.57418e-07 0)
(7.15475e-07 2.64939e-07 0)
(8.71419e-07 3.94262e-07 0)
(1.03475e-06 5.42084e-07 0)
(1.20693e-06 7.0527e-07 0)
(1.38438e-06 8.79645e-07 0)
(5.25619e-08 -1.29319e-08 0)
(1.61474e-07 -1.96993e-08 0)
(2.79457e-07 2.75515e-09 0)
(4.0385e-07 5.24706e-08 0)
(5.36188e-07 1.28973e-07 0)
(6.75653e-07 2.29961e-07 0)
(8.23102e-07 3.52736e-07 0)
(9.77509e-07 4.94035e-07 0)
(1.14027e-06 6.50901e-07 0)
(1.30813e-06 8.19179e-07 0)
(4.90593e-08 -1.61343e-08 0)
(1.51148e-07 -2.9316e-08 0)
(2.62328e-07 -1.3195e-08 0)
(3.7961e-07 3.03538e-08 0)
(5.04402e-07 1.00763e-07 0)
(6.35865e-07 1.95694e-07 0)
(7.74848e-07 3.1246e-07 0)
(9.20452e-07 4.4782e-07 0)
(1.07399e-06 5.98946e-07 0)
(1.2326e-06 7.61752e-07 0)
(4.55777e-08 -1.95285e-08 0)
(1.40916e-07 -3.93337e-08 0)
(2.45277e-07 -2.95184e-08 0)
(3.55348e-07 8.12057e-09 0)
(4.72422e-07 7.28294e-08 0)
(5.95701e-07 1.62184e-07 0)
(7.26057e-07 2.73461e-07 0)
(8.62767e-07 4.03435e-07 0)
(1.00706e-06 5.49371e-07 0)
(1.1565e-06 7.07284e-07 0)
(4.21484e-08 -2.31645e-08 0)
(1.30904e-07 -4.98397e-08 0)
(2.28396e-07 -4.62952e-08 0)
(3.31044e-07 -1.42838e-08 0)
(4.40052e-07 4.51396e-08 0)
(5.54761e-07 1.294e-07 0)
(6.7611e-07 2.35698e-07 0)
(8.036e-07 3.60811e-07 0)
(9.38405e-07 5.02074e-07 0)
(1.07851e-06 6.55627e-07 0)
(3.88385e-08 -2.72123e-08 0)
(1.21318e-07 -6.09614e-08 0)
(2.11841e-07 -6.34975e-08 0)
(3.06706e-07 -3.66597e-08 0)
(4.07102e-07 1.8005e-08 0)
(5.12629e-07 9.77084e-08 0)
(6.24363e-07 1.99543e-07 0)
(7.42073e-07 3.20294e-07 0)
(8.66895e-07 4.57359e-07 0)
(9.97248e-07 6.07024e-07 0)
(3.58952e-08 -3.18721e-08 0)
(1.128e-07 -7.29505e-08 0)
(1.96144e-07 -8.1292e-08 0)
(2.82566e-07 -5.91236e-08 0)
(3.73445e-07 -8.64587e-09 0)
(4.68837e-07 6.70386e-08 0)
(5.70032e-07 1.64907e-07 0)
(6.77105e-07 2.81757e-07 0)
(7.91176e-07 4.15053e-07 0)
(9.11098e-07 5.61244e-07 0)
(3.38443e-08 -3.80148e-08 0)
(1.06091e-07 -8.62014e-08 0)
(1.81821e-07 -9.93263e-08 0)
(2.58741e-07 -8.07829e-08 0)
(3.38853e-07 -3.36705e-08 0)
(4.22825e-07 3.8626e-08 0)
(5.12268e-07 1.33012e-07 0)
(6.07578e-07 2.46358e-07 0)
(7.09875e-07 3.76212e-07 0)
(8.18435e-07 5.19223e-07 0)
(3.52423e-08 -4.62745e-08 0)
(1.03953e-07 -1.01191e-07 0)
(1.70633e-07 -1.1794e-07 0)
(2.35852e-07 -1.02147e-07 0)
(3.03058e-07 -5.76851e-08 0)
(3.73685e-07 1.173e-08 0)
(4.49681e-07 1.0302e-07 0)
(5.31702e-07 2.13167e-07 0)
(6.20872e-07 3.39841e-07 0)
(7.16808e-07 4.79895e-07 0)
(4.55025e-08 -6.12583e-08 0)
(1.08124e-07 -1.18288e-07 0)
(1.63418e-07 -1.34783e-07 0)
(2.13822e-07 -1.19555e-07 0)
(2.65652e-07 -7.67914e-08 0)
(3.20729e-07 -9.78245e-09 0)
(3.81394e-07 7.86105e-08 0)
(4.48418e-07 1.85633e-07 0)
(5.22955e-07 3.09111e-07 0)
(6.04817e-07 4.46139e-07 0)
)
;

boundaryField
{
    left
    {
        type            fixedDisplacement;
        value           uniform (0 0 0);
    }
    right
    {
        type            solidTraction;
        tractionSeries  
{
        file            "$FOAM_CASE/constant/timeVsTraction";
        outOfBounds     clamp;
}
        pressure        uniform 0;
        secondOrder     false;
        setEffectiveTraction false;
        relaxationFactor 1;
        value           nonuniform List<vector> 
30
(
(8.18151e-06 5.9993e-06 1.50814e-21)
(7.99093e-06 5.93055e-06 1.5129e-21)
(7.79865e-06 5.86227e-06 1.55227e-21)
(7.60416e-06 5.79322e-06 1.63388e-21)
(7.40747e-06 5.7226e-06 1.75498e-21)
(7.20902e-06 5.64971e-06 1.91185e-21)
(7.00952e-06 5.5741e-06 2.09806e-21)
(6.80982e-06 5.49555e-06 2.30686e-21)
(6.61075e-06 5.41406e-06 2.53055e-21)
(6.41321e-06 5.32984e-06 2.76055e-21)
(6.22636e-06 5.24699e-06 2.92767e-21)
(6.0492e-06 5.16554e-06 3.0061e-21)
(5.87455e-06 5.08288e-06 3.05948e-21)
(5.70277e-06 4.99942e-06 3.08887e-21)
(5.53402e-06 4.91573e-06 3.08968e-21)
(5.36791e-06 4.83235e-06 3.06372e-21)
(5.20471e-06 4.74961e-06 3.01529e-21)
(5.04411e-06 4.66809e-06 2.94433e-21)
(4.88573e-06 4.58815e-06 2.8549e-21)
(4.72918e-06 4.5101e-06 2.75064e-21)
(4.57395e-06 4.43419e-06 2.63617e-21)
(4.41954e-06 4.36057e-06 2.51632e-21)
(4.26539e-06 4.2893e-06 2.39657e-21)
(4.11096e-06 4.2203e-06 2.28228e-21)
(3.95574e-06 4.15343e-06 2.17912e-21)
(3.7993e-06 4.08838e-06 2.09175e-21)
(3.64131e-06 4.02479e-06 2.02606e-21)