/*--------------------------------*- C++ -*----------------------------------*\
  =========                 |
  \\      /  F ield         | OpenFOAM: The Open Source CFD Toolbox
   \\    /   O peration     | Website:  https://openfoam.org
    \\  /    A nd           | Version:  9
     \\/     M anipulation  |
\*---------------------------------------------------------------------------*/
FoamFile
{
    format      ascii;
    class       volVectorField;
    location    "5";
    object      D_0;
}
// * * * * * * * * * * * * * * * * * * * * * * * * * * * * * * * * * * * * * //

dimensions      [0 1 0 0 0 0 0];

internalField   nonuniform List<vector> 
1000
(
(2.705e-06 9.08748e-07 0)
(2.52413e-06 1.00361e-06 0)
(2.39256e-06 1.08347e-06 0)
(2.29748e-06 1.14586e-06 0)
(2.22963e-06 1.19971e-06 0)
(2.18175e-06 1.24604e-06 0)
(2.14933e-06 1.28778e-06 0)
(2.12875e-06 1.32578e-06 0)
(2.11714e-06 1.36124e-06 0)
(2.11305e-06 1.39485e-06 0)
(2.43771e-06 8.19425e-07 0)
(2.2499e-06 8.88317e-07 0)
(2.11417e-06 9.48762e-07 0)
(2.01652e-06 9.95401e-07 0)
(1.94692e-06 1.03637e-06 0)
(1.89764e-06 1.07159e-06 0)
(1.86387e-06 1.10353e-06 0)
(1.84177e-06 1.13274e-06 0)
(1.8284e-06 1.15983e-06 0)
(1.82178e-06 1.18626e-06 0)
(2.16472e-06 7.29919e-07 0)
(1.97517e-06 7.71139e-07 0)
(1.839e-06 8.11362e-07 0)
(1.74155e-06 8.4206e-07 0)
(1.67232e-06 8.70361e-07 0)
(1.6233e-06 8.94932e-07 0)
(1.58947e-06 9.17708e-07 0)
(1.56693e-06 9.38797e-07 0)
(1.5527e-06 9.58319e-07 0)
(1.54472e-06 9.77884e-07 0)
(1.8874e-06 6.41667e-07 0)
(1.70158e-06 6.54604e-07 0)
(1.56893e-06 6.74537e-07 0)
(1.47466e-06 6.89624e-07 0)
(1.40809e-06 7.05866e-07 0)
(1.36111e-06 7.20545e-07 0)
(1.32868e-06 7.35015e-07 0)
(1.30685e-06 7.48838e-07 0)
(1.29283e-06 7.61736e-07 0)
(1.28434e-06 7.75166e-07 0)
(1.60645e-06 5.55988e-07 0)
(1.42997e-06 5.41177e-07 0)
(1.305e-06 5.41623e-07 0)
(1.21713e-06 5.42111e-07 0)
(1.15567e-06 5.47462e-07 0)
(1.11262e-06 5.53464e-07 0)
(1.08303e-06 5.60857e-07 0)
(1.06303e-06 5.68575e-07 0)
(1.05009e-06 5.76013e-07 0)
(1.04186e-06 5.84264e-07 0)
(1.32308e-06 4.73472e-07 0)
(1.16114e-06 4.32588e-07 0)
(1.04809e-06 4.15437e-07 0)
(9.69969e-07 4.03173e-07 0)
(9.1615e-07 3.99479e-07 0)
(8.78902e-07 3.98532e-07 0)
(8.53527e-07 4.00462e-07 0)
(8.36401e-07 4.03543e-07 0)
(8.25305e-07 4.06922e-07 0)
(8.17961e-07 4.11227e-07 0)
(1.03618e-06 3.94064e-07 0)
(8.94429e-07 3.29995e-07 0)
(7.97916e-07 2.98483e-07 0)
(7.33128e-07 2.76491e-07 0)
(6.89547e-07 2.66437e-07 0)
(6.59908e-07 2.60846e-07 0)
(6.39994e-07 2.59274e-07 0)
(6.26593e-07 2.59404e-07 0)
(6.17918e-07 2.60245e-07 0)
(6.11931e-07 2.61952e-07 0)
(7.47787e-07 3.15491e-07 0)
(6.3093e-07 2.32997e-07 0)
(5.55922e-07 1.92716e-07 0)
(5.07922e-07 1.65669e-07 0)
(4.76755e-07 1.52954e-07 0)
(4.56002e-07 1.45623e-07 0)
(4.4229e-07 1.42785e-07 0)
(4.3307e-07 1.41775e-07 0)
(4.27092e-07 1.41613e-07 0)
(4.22755e-07 1.42102e-07 0)
(4.51408e-07 2.29979e-07 0)
(3.68834e-07 1.38781e-07 0)
(3.21358e-07 9.92188e-08 0)
(2.93172e-07 7.45728e-08 0)
(2.76077e-07 6.39813e-08 0)
(2.64884e-07 5.81144e-08 0)
(2.57652e-07 5.6055e-08 0)
(2.52697e-07 5.53466e-08 0)
(2.49432e-07 5.52737e-08 0)
(2.46855e-07 5.55311e-08 0)
(1.55589e-07 1.20387e-07 0)
(1.17272e-07 5.10602e-08 0)
(1.02658e-07 2.67114e-08 0)
(9.4929e-08 1.44607e-08 0)
(9.04427e-08 1.02377e-08 0)
(8.7307e-08 8.32259e-09 0)
(8.52562e-08 8.04788e-09 0)
(8.37502e-08 8.19801e-09 0)
(8.27187e-08 8.50137e-09 0)
(8.18068e-08 8.83777e-09 0)
(4.76978e-06 1.47225e-06 0)
(4.76185e-06 1.65544e-06 0)
(4.75637e-06 1.82613e-06 0)
(4.75652e-06 1.98238e-06 0)
(4.76366e-06 2.1258e-06 0)
(4.77831e-06 2.25818e-06 0)
(4.80057e-06 2.38159e-06 0)
(4.82996e-06 2.49781e-06 0)
(4.86623e-06 2.60826e-06 0)
(4.90846e-06 2.71451e-06 0)
(4.62021e-06 1.46015e-06 0)
(4.59897e-06 1.64281e-06 0)
(4.5845e-06 1.81141e-06 0)
(4.57807e-06 1.96451e-06 0)
(4.58041e-06 2.10408e-06 0)
(4.59108e-06 2.23202e-06 0)
(4.60972e-06 2.3506e-06 0)
(4.63546e-06 2.46172e-06 0)
(4.66795e-06 2.56684e-06 0)
(4.70592e-06 2.66776e-06 0)
(4.46158e-06 1.4356e-06 0)
(4.42457e-06 1.61779e-06 0)
(4.39784e-06 1.78295e-06 0)
(4.38175e-06 1.9311e-06 0)
(4.37645e-06 2.06524e-06 0)
(4.38069e-06 2.18753e-06 0)
(4.3937e-06 2.3004e-06 0)
(4.41415e-06 2.40577e-06 0)
(4.44157e-06 2.50517e-06 0)
(4.47424e-06 2.60044e-06 0)
(4.29015e-06 1.39992e-06 0)
(4.23542e-06 1.58123e-06 0)
(4.19446e-06 1.74217e-06 0)
(4.16691e-06 1.88428e-06 0)
(4.15225e-06 2.01188e-06 0)
(4.14852e-06 2.12748e-06 0)
(4.15457e-06 2.23371e-06 0)
(4.16863e-06 2.33253e-06 0)
(4.19012e-06 2.42551e-06 0)
(4.2168e-06 2.51449e-06 0)
(4.10394e-06 1.35343e-06 0)
(4.0298e-06 1.53242e-06 0)
(3.97361e-06 1.68782e-06 0)
(3.93398e-06 1.82248e-06 0)
(3.90941e-06 1.94228e-06 0)
(3.89726e-06 2.05003e-06 0)
(3.89596e-06 2.14865e-06 0)
(3.90332e-06 2.24005e-06 0)
(3.91862e-06 2.32593e-06 0)
(3.93917e-06 2.40797e-06 0)
(3.90271e-06 1.29723e-06 0)
(3.80804e-06 1.47142e-06 0)
(3.7363e-06 1.61967e-06 0)
(3.6846e-06 1.74562e-06 0)
(3.65022e-06 1.85655e-06 0)
(3.62978e-06 1.95552e-06 0)
(3.62124e-06 2.0457e-06 0)
(3.62202e-06 2.12897e-06 0)
(3.63126e-06 2.2071e-06 0)
(3.64588e-06 2.28159e-06 0)
(3.68694e-06 1.23216e-06 0)
(3.57146e-06 1.39823e-06 0)
(3.48451e-06 1.53729e-06 0)
(3.42131e-06 1.65313e-06 0)
(3.37773e-06 1.75418e-06 0)
(3.34958e-06 1.84355e-06 0)
(3.33433e-06 1.92462e-06 0)
(3.32906e-06 1.99916e-06 0)
(3.33269e-06 2.06905e-06 0)
(3.34186e-06 2.1355e-06 0)
(3.45778e-06 1.15944e-06 0)
(3.3222e-06 1.31353e-06 0)
(3.22101e-06 1.44114e-06 0)
(3.1473e-06 1.5455e-06 0)
(3.09549e-06 1.63577e-06 0)
(3.06052e-06 1.71489e-06 0)
(3.03936e-06 1.78637e-06 0)
(3.02878e-06 1.85177e-06 0)
(3.02743e-06 1.91307e-06 0)
(3.03189e-06 1.97108e-06 0)
(3.21666e-06 1.08032e-06 0)
(3.06278e-06 1.21839e-06 0)
(2.949e-06 1.33221e-06 0)
(2.86622e-06 1.42371e-06 0)
(2.80744e-06 1.50241e-06 0)
(2.7668e-06 1.57081e-06 0)
(2.74071e-06 1.63238e-06 0)
(2.72572e-06 1.68847e-06 0)
(2.72011e-06 1.74093e-06 0)
(2.72073e-06 1.79039e-06 0)
(2.96518e-06 9.9624e-07 0)
(2.79589e-06 1.11441e-06 0)
(2.67178e-06 1.21221e-06 0)
(2.58174e-06 1.28965e-06 0)
(2.51752e-06 1.35614e-06 0)
(2.47249e-06 1.41354e-06 0)
(2.44258e-06 1.46513e-06 0)
(2.42419e-06 1.51191e-06 0)
(2.41518e-06 1.55567e-06 0)
(2.41306e-06 1.59603e-06 0)
(4.95893e-06 2.81671e-06 0)
(5.01687e-06 2.91815e-06 0)
(5.07927e-06 3.01796e-06 0)
(5.14561e-06 3.11662e-06 0)
(5.21555e-06 3.21462e-06 0)
(5.2887e-06 3.31226e-06 0)
(5.36475e-06 3.40987e-06 0)
(5.44337e-06 3.50767e-06 0)
(5.52429e-06 3.60588e-06 0)
(5.60724e-06 3.70467e-06 0)
(5.69199e-06 3.80418e-06 0)
(5.77832e-06 3.90455e-06 0)
(5.866e-06 4.00588e-06 0)
(5.95483e-06 4.10825e-06 0)
(6.04461e-06 4.21171e-06 0)
(6.13515e-06 4.3163e-06 0)
(6.22624e-06 4.42199e-06 0)
(6.31768e-06 4.52871e-06 0)
(6.40931e-06 4.63627e-06 0)
(6.50093e-06 4.74435e-06 0)
(4.75853e-06 2.76609e-06 0)
(4.82361e-06 2.86583e-06 0)
(4.89217e-06 2.96405e-06 0)
(4.96368e-06 3.0613e-06 0)
(5.03802e-06 3.1581e-06 0)
(5.11485e-06 3.25472e-06 0)
(5.19399e-06 3.3515e-06 0)
(5.2752e-06 3.44865e-06 0)
(5.35829e-06 3.54636e-06 0)
(5.44306e-06 3.64481e-06 0)
(5.52935e-06 3.74414e-06 0)
(5.61697e-06 3.84446e-06 0)
(5.70578e-06 3.94588e-06 0)
(5.79562e-06 4.04847e-06 0)
(5.88635e-06 4.15229e-06 0)
(5.97781e-06 4.25737e-06 0)
(6.06987e-06 4.36368e-06 0)
(6.16238e-06 4.47116e-06 0)
(6.25521e-06 4.57961e-06 0)
(6.34815e-06 4.68878e-06 0)
(4.52975e-06 2.69586e-06 0)
(4.60403e-06 2.79577e-06 0)
(4.68083e-06 2.89421e-06 0)
(4.75944e-06 2.99165e-06 0)
(4.84004e-06 3.08871e-06 0)
(4.9223e-06 3.18562e-06 0)
(5.00622e-06 3.28276e-06 0)
(5.0916e-06 3.38031e-06 0)
(5.17837e-06 3.47851e-06 0)
(5.26639e-06 3.57752e-06 0)
(5.35557e-06 3.67748e-06 0)
(5.4458e-06 3.77851e-06 0)
(5.53699e-06 3.88072e-06 0)
(5.62903e-06 3.98419e-06 0)
(5.72183e-06 4.08898e-06 0)
(5.81531e-06 4.19514e-06 0)
(5.90936e-06 4.30267e-06 0)
(6.00387e-06 4.41154e-06 0)
(6.09872e-06 4.52166e-06 0)
(6.19367e-06 4.63286e-06 0)
(4.27596e-06 2.60756e-06 0)
(4.36117e-06 2.70909e-06 0)
(4.44796e-06 2.8092e-06 0)
(4.53533e-06 2.90812e-06 0)
(4.62382e-06 3.00668e-06 0)
(4.71305e-06 3.10498e-06 0)
(4.80323e-06 3.2035e-06 0)
(4.89418e-06 3.30242e-06 0)
(4.98596e-06 3.40198e-06 0)
(5.0785e-06 3.50236e-06 0)
(5.17178e-06 3.60372e-06 0)
(5.26575e-06 3.70619e-06 0)
(5.36038e-06 3.80987e-06 0)
(5.45564e-06 3.91487e-06 0)
(5.55148e-06 4.02128e-06 0)
(5.64785e-06 4.12914e-06 0)
(5.7447e-06 4.23852e-06 0)
(5.84193e-06 4.34943e-06 0)
(5.93948e-06 4.46191e-06 0)
(6.03706e-06 4.57589e-06 0)
(4.00266e-06 2.49949e-06 0)
(4.1001e-06 2.60428e-06 0)
(4.19822e-06 2.70773e-06 0)
(4.29559e-06 2.80961e-06 0)
(4.39319e-06 2.91103e-06 0)
(4.49058e-06 3.01199e-06 0)
(4.58813e-06 3.11305e-06 0)
(4.68574e-06 3.21439e-06 0)
(4.78355e-06 3.3163e-06 0)
(4.88157e-06 3.41896e-06 0)
(4.97986e-06 3.52256e-06 0)
(5.07843e-06 3.62723e-06 0)
(5.17733e-06 3.73312e-06 0)
(5.27656e-06 3.84034e-06 0)
(5.37613e-06 3.949e-06 0)
(5.47605e-06 4.05919e-06 0)
(5.57631e-06 4.17103e-06 0)
(5.67683e-06 4.28459e-06 0)
(5.77758e-06 4.40003e-06 0)
(5.87833e-06 4.51738e-06 0)
(3.71432e-06 2.37229e-06 0)
(3.82492e-06 2.48186e-06 0)
(3.93536e-06 2.59021e-06 0)
(4.04365e-06 2.69644e-06 0)
(4.1513e-06 2.80201e-06 0)
(4.25773e-06 2.90683e-06 0)
(4.36353e-06 3.01155e-06 0)
(4.46862e-06 3.11634e-06 0)
(4.57327e-06 3.22155e-06 0)
(4.67754e-06 3.32738e-06 0)
(4.78156e-06 3.43403e-06 0)
(4.88541e-06 3.54168e-06 0)
(4.9892e-06 3.65049e-06 0)
(5.09299e-06 3.7606e-06 0)
(5.19684e-06 3.87215e-06 0)
(5.3008e-06 3.98527e-06 0)
(5.40491e-06 4.10011e-06 0)
(5.50915e-06 4.21684e-06 0)
(5.61352e-06 4.33573e-06 0)
(5.71787e-06 4.45688e-06 0)
(3.4157e-06 2.22619e-06 0)
(3.53993e-06 2.34208e-06 0)
(3.6633e-06 2.45682e-06 0)
(3.78312e-06 2.56882e-06 0)
(3.90143e-06 2.67982e-06 0)
(4.01752e-06 2.7897e-06 0)
(4.13218e-06 2.89915e-06 0)
(4.24536e-06 3.00841e-06 0)
(4.35742e-06 3.11786e-06 0)
(4.46848e-06 3.22773e-06 0)
(4.57875e-06 3.33827e-06 0)
(4.68837e-06 3.44967e-06 0)
(4.79751e-06 3.56212e-06 0)
(4.90627e-06 3.67578e-06 0)
(5.01478e-06 3.79084e-06 0)
(5.12314e-06 3.90745e-06 0)
(5.23143e-06 4.02583e-06 0)
(5.33969e-06 4.14618e-06 0)
(5.44798e-06 4.26887e-06 0)
(5.55624e-06 4.39409e-06 0)
(3.11129e-06 2.06249e-06 0)
(3.24918e-06 2.18615e-06 0)
(3.38563e-06 2.3085e-06 0)
(3.51727e-06 2.42758e-06 0)
(3.6465e-06 2.54513e-06 0)
(3.77264e-06 2.66121e-06 0)
(3.89653e-06 2.77645e-06 0)
(4.01821e-06 2.89118e-06 0)
(4.13808e-06 3.00578e-06 0)
(4.25634e-06 3.12055e-06 0)
(4.37323e-06 3.23576e-06 0)
(4.48898e-06 3.35164e-06 0)
(4.60378e-06 3.4684e-06 0)
(4.71781e-06 3.58625e-06 0)
(4.83124e-06 3.70539e-06 0)
(4.94423e-06 3.82601e-06 0)
(5.0569e-06 3.94836e-06 0)
(5.16939e-06 4.07271e-06 0)
(5.28178e-06 4.19948e-06 0)
(5.39417e-06 4.32893e-06 0)
(2.80565e-06 1.88274e-06 0)
(2.95687e-06 2.01568e-06 0)
(3.10605e-06 2.14658e-06 0)
(3.24956e-06 2.27393e-06 0)
(3.38969e-06 2.39899e-06 0)
(3.526e-06 2.52219e-06 0)
(3.65922e-06 2.64407e-06 0)
(3.78955e-06 2.76509e-06 0)
(3.91739e-06 2.88566e-06 0)
(4.04302e-06 3.00611e-06 0)
(4.16673e-06 3.12675e-06 0)
(4.28878e-06 3.24783e-06 0)
(4.40942e-06 3.3696e-06 0)
(4.52889e-06 3.49227e-06 0)
(4.64739e-06 3.61606e-06 0)
(4.76515e-06 3.7412e-06 0)
(4.88233e-06 3.86797e-06 0)
(4.99915e-06 3.99664e-06 0)
(5.11573e-06 4.1277e-06 0)
(5.23237e-06 4.26143e-06 0)
(2.50236e-06 1.68968e-06 0)
(2.6662e-06 1.83286e-06 0)
(2.82679e-06 1.97258e-06 0)
(2.98189e-06 2.1091e-06 0)
(3.13272e-06 2.24267e-06 0)
(3.27924e-06 2.37395e-06 0)
(3.42194e-06 2.5034e-06 0)
(3.5611e-06 2.63155e-06 0)
(3.6971e-06 2.75883e-06 0)
(3.83026e-06 2.88565e-06 0)
(3.96092e-06 3.01235e-06 0)
(4.08939e-06 3.13922e-06 0)
(4.21597e-06 3.26653e-06 0)
(4.34093e-06 3.39453e-06 0)
(4.46455e-06 3.52345e-06 0)
(4.58709e-06 3.65353e-06 0)
(4.70878e-06 3.78505e-06 0)
(4.82992e-06 3.9183e-06 0)
(4.95069e-06 4.05378e-06 0)
(5.07156e-06 4.19177e-06 0)
(2.26842e-06 1.54491e-06 0)
(2.43926e-06 1.69553e-06 0)
(2.60584e-06 1.84023e-06 0)
(2.76724e-06 1.98197e-06 0)
(2.92413e-06 2.12076e-06 0)
(3.07654e-06 2.25718e-06 0)
(3.22486e-06 2.3917e-06 0)
(3.36934e-06 2.52476e-06 0)
(3.51034e-06 2.65677e-06 0)
(3.64816e-06 2.7881e-06 0)
(3.78314e-06 2.91908e-06 0)
(3.91559e-06 3.04999e-06 0)
(4.04582e-06 3.1811e-06 0)
(4.17414e-06 3.31264e-06 0)
(4.30082e-06 3.44484e-06 0)
(4.42617e-06 3.57791e-06 0)
(4.55047e-06 3.71212e-06 0)
(4.67405e-06 3.84774e-06 0)
(4.79716e-06 3.98519e-06 0)
(4.92039e-06 4.12473e-06 0)
(2.11232e-06 1.45827e-06 0)
(2.28319e-06 1.60887e-06 0)
(2.44982e-06 1.75475e-06 0)
(2.61175e-06 1.8981e-06 0)
(2.76944e-06 2.03886e-06 0)
(2.92285e-06 2.17745e-06 0)
(3.07232e-06 2.31424e-06 0)
(3.21801e-06 2.44958e-06 0)
(3.36023e-06 2.5838e-06 0)
(3.49924e-06 2.71723e-06 0)
(3.63535e-06 2.85014e-06 0)
(3.76883e-06 2.98279e-06 0)
(3.89999e-06 3.11542e-06 0)
(4.02912e-06 3.24822e-06 0)
(4.1565e-06 3.3814e-06 0)
(4.28245e-06 3.51516e-06 0)
(4.40724e-06 3.6497e-06 0)
(4.53126e-06 3.78525e-06 0)
(4.65474e-06 3.92215e-06 0)
(4.7784e-06 4.06059e-06 0)
(1.97453e-06 1.37508e-06 0)
(2.14232e-06 1.52523e-06 0)
(2.30725e-06 1.67153e-06 0)
(2.46794e-06 1.81585e-06 0)
(2.625e-06 1.95804e-06 0)
(2.77812e-06 2.09834e-06 0)
(2.9276e-06 2.23704e-06 0)
(3.07351e-06 2.37438e-06 0)
(3.21609e-06 2.51063e-06 0)
(3.35555e-06 2.64602e-06 0)
(3.49214e-06 2.78078e-06 0)
(3.62612e-06 2.91513e-06 0)
(3.75775e-06 3.04925e-06 0)
(3.88732e-06 3.18331e-06 0)
(4.0151e-06 3.31748e-06 0)
(4.1414e-06 3.4519e-06 0)
(4.26649e-06 3.58674e-06 0)
(4.39079e-06 3.72218e-06 0)
(4.51453e-06 3.8584e-06 0)
(4.63849e-06 3.99556e-06 0)
(1.85103e-06 1.29496e-06 0)
(2.0148e-06 1.44389e-06 0)
(2.17677e-06 1.59006e-06 0)
(2.33507e-06 1.73495e-06 0)
(2.49036e-06 1.87821e-06 0)
(2.64215e-06 2.01997e-06 0)
(2.79068e-06 2.16035e-06 0)
(2.93593e-06 2.2995e-06 0)
(3.07809e-06 2.43761e-06 0)
(3.2173e-06 2.57485e-06 0)
(3.35378e-06 2.71137e-06 0)
(3.48773e-06 2.84734e-06 0)
(3.61941e-06 2.9829e-06 0)
(3.74905e-06 3.11817e-06 0)
(3.87693e-06 3.25328e-06 0)
(4.00333e-06 3.38834e-06 0)
(4.12854e-06 3.52344e-06 0)
(4.25294e-06 3.65871e-06 0)
(4.37682e-06 3.79422e-06 0)
(4.50094e-06 3.93e-06 0)
(1.7404e-06 1.21874e-06 0)
(1.89925e-06 1.36601e-06 0)
(2.05725e-06 1.51156e-06 0)
(2.21218e-06 1.65653e-06 0)
(2.36476e-06 1.80043e-06 0)
(2.51433e-06 1.94323e-06 0)
(2.6611e-06 2.08496e-06 0)
(2.80494e-06 2.22564e-06 0)
(2.946e-06 2.36538e-06 0)
(3.08436e-06 2.50425e-06 0)
(3.22018e-06 2.64237e-06 0)
(3.35364e-06 2.77983e-06 0)
(3.48495e-06 2.91673e-06 0)
(3.61433e-06 3.05315e-06 0)
(3.74203e-06 3.18915e-06 0)
(3.86829e-06 3.32479e-06 0)
(3.99342e-06 3.46012e-06 0)
(4.11771e-06 3.59517e-06 0)
(4.24168e-06 3.72985e-06 0)
(4.36589e-06 3.86422e-06 0)
(1.64052e-06 1.14639e-06 0)
(1.79395e-06 1.29157e-06 0)
(1.94731e-06 1.4361e-06 0)
(2.09821e-06 1.58076e-06 0)
(2.24736e-06 1.72492e-06 0)
(2.39402e-06 1.86844e-06 0)
(2.53835e-06 2.0112e-06 0)
(2.68015e-06 2.15315e-06 0)
(2.81952e-06 2.29427e-06 0)
(2.95649e-06 2.43459e-06 0)
(3.09118e-06 2.57413e-06 0)
(3.22373e-06 2.71294e-06 0)
(3.35431e-06 2.85105e-06 0)
(3.48312e-06 2.9885e-06 0)
(3.61036e-06 3.12531e-06 0)
(3.7363e-06 3.26147e-06 0)
(3.86116e-06 3.39697e-06 0)
(3.98534e-06 3.53173e-06 0)
(4.10905e-06 3.66563e-06 0)
(4.23303e-06 3.79866e-06 0)
(1.54965e-06 1.07796e-06 0)
(1.69736e-06 1.22081e-06 0)
(1.84561e-06 1.36401e-06 0)
(1.99198e-06 1.50802e-06 0)
(2.13717e-06 1.65211e-06 0)
(2.28038e-06 1.79602e-06 0)
(2.42172e-06 1.93951e-06 0)
(2.56096e-06 2.08244e-06 0)
(2.69816e-06 2.22469e-06 0)
(2.83328e-06 2.36622e-06 0)
(2.96643e-06 2.50698e-06 0)
(3.0977e-06 2.64696e-06 0)
(3.22724e-06 2.78614e-06 0)
(3.35519e-06 2.9245e-06 0)
(3.48176e-06 3.06201e-06 0)
(3.60716e-06 3.19862e-06 0)
(3.73162e-06 3.33424e-06 0)
(3.85546e-06 3.46875e-06 0)
(3.97888e-06 3.6019e-06 0)
(4.10256e-06 3.73359e-06 0)
(1.46611e-06 1.01328e-06 0)
(1.60795e-06 1.15364e-06 0)
(1.7508e-06 1.29529e-06 0)
(1.89231e-06 1.43839e-06 0)
(2.03315e-06 1.58214e-06 0)
(2.17249e-06 1.72616e-06 0)
(2.31043e-06 1.87011e-06 0)
(2.4467e-06 2.01375e-06 0)
(2.58132e-06 2.1569e-06 0)
(2.71423e-06 2.29941e-06 0)
(2.84549e-06 2.44119e-06 0)
(2.97518e-06 2.58216e-06 0)
(3.10339e-06 2.72224e-06 0)
(3.23026e-06 2.86137e-06 0)
(3.35594e-06 2.99948e-06 0)
(3.48064e-06 3.13645e-06 0)
(3.60453e-06 3.27215e-06 0)
(3.72792e-06 3.4064e-06 0)
(3.85095e-06 3.53886e-06 0)
(3.97423e-06 3.66936e-06 0)
(1.38837e-06 9.52149e-07 0)
(1.52428e-06 1.08998e-06 0)
(1.66158e-06 1.22995e-06 0)
(1.79801e-06 1.37196e-06 0)
(1.93422e-06 1.51514e-06 0)
(2.0694e-06 1.65904e-06 0)
(2.20362e-06 1.80321e-06 0)
(2.33659e-06 1.94732e-06 0)
(2.46832e-06 2.09111e-06 0)
(2.59872e-06 2.23439e-06 0)
(2.72782e-06 2.37697e-06 0)
(2.85566e-06 2.51874e-06 0)
(2.98232e-06 2.65956e-06 0)
(3.1079e-06 2.79932e-06 0)
(3.23254e-06 2.9379e-06 0)
(3.35638e-06 3.07516e-06 0)
(3.47959e-06 3.2109e-06 0)
(3.60241e-06 3.3449e-06 0)
(3.72496e-06 3.47676e-06 0)
(3.84773e-06 3.60623e-06 0)
(1.31505e-06 8.94349e-07 0)
(1.44502e-06 1.02967e-06 0)
(1.57667e-06 1.1679e-06 0)
(1.7079e-06 1.3087e-06 0)
(1.83929e-06 1.45116e-06 0)
(1.97009e-06 1.59474e-06 0)
(2.10036e-06 1.73891e-06 0)
(2.22981e-06 1.88327e-06 0)
(2.3584e-06 2.0275e-06 0)
(2.48606e-06 2.17132e-06 0)
(2.61278e-06 2.3145e-06 0)
(2.73857e-06 2.45687e-06 0)
(2.8635e-06 2.59825e-06 0)
(2.98764e-06 2.73849e-06 0)
(3.11109e-06 2.87743e-06 0)
(3.23396e-06 3.01489e-06 0)
(3.35639e-06 3.15064e-06 0)
(3.47855e-06 3.28442e-06 0)
(3.60054e-06 3.41577e-06 0)
(3.72273e-06 3.54443e-06 0)
(1.24484e-06 8.39646e-07 0)
(1.3689e-06 9.7256e-07 0)
(1.49486e-06 1.10904e-06 0)
(1.6208e-06 1.24857e-06 0)
(1.74726e-06 1.39019e-06 0)
(1.87355e-06 1.53329e-06 0)
(1.9997e-06 1.67729e-06 0)
(2.12545e-06 1.82171e-06 0)
(2.25075e-06 1.96616e-06 0)
(2.3755e-06 2.11032e-06 0)
(2.49968e-06 2.25391e-06 0)
(2.62329e-06 2.39669e-06 0)
(2.74636e-06 2.53846e-06 0)
(2.86893e-06 2.67903e-06 0)
(2.99108e-06 2.8182e-06 0)
(3.1129e-06 2.95578e-06 0)
(3.23446e-06 3.0915e-06 0)
(3.35591e-06 3.22509e-06 0)
(3.47728e-06 3.35606e-06 0)
(3.59882e-06 3.48413e-06 0)
(1.17656e-06 7.87852e-07 0)
(1.29472e-06 9.18495e-07 0)
(1.41497e-06 1.05327e-06 0)
(1.53557e-06 1.19149e-06 0)
(1.65703e-06 1.3322e-06 0)
(1.77871e-06 1.47471e-06 0)
(1.90066e-06 1.61837e-06 0)
(2.02261e-06 1.76268e-06 0)
(2.1445e-06 1.90717e-06 0)
(2.26624e-06 2.05148e-06 0)
(2.38779e-06 2.19527e-06 0)
(2.50912e-06 2.33829e-06 0)
(2.63024e-06 2.48028e-06 0)
(2.75117e-06 2.62102e-06 0)
(2.87195e-06 2.7603e-06 0)
(2.99265e-06 2.8979e-06 0)
(3.1133e-06 3.03356e-06 0)
(3.23399e-06 3.16699e-06 0)
(3.35471e-06 3.2977e-06 0)
(3.47557e-06 3.42543e-06 0)
(1.10902e-06 7.38786e-07 0)
(1.22129e-06 8.67325e-07 0)
(1.33581e-06 1.00046e-06 0)
(1.45105e-06 1.13739e-06 0)
(1.56747e-06 1.27713e-06 0)
(1.68451e-06 1.41895e-06 0)
(1.8022e-06 1.56215e-06 0)
(1.9203e-06 1.70618e-06 0)
(2.03876e-06 1.85054e-06 0)
(2.15744e-06 1.99481e-06 0)
(2.27631e-06 2.13863e-06 0)
(2.39533e-06 2.2817e-06 0)
(2.51447e-06 2.42374e-06 0)
(2.63373e-06 2.56452e-06 0)
(2.75312e-06 2.70379e-06 0)
(2.87267e-06 2.84133e-06 0)
(2.99239e-06 2.97688e-06 0)
(3.11229e-06 3.11017e-06 0)
(3.23235e-06 3.24076e-06 0)
(3.35253e-06 3.36839e-06 0)
(1.04109e-06 6.9238e-07 0)
(1.14743e-06 8.18984e-07 0)
(1.2562e-06 9.50554e-07 0)
(1.36606e-06 1.08621e-06 0)
(1.47743e-06 1.22493e-06 0)
(1.58984e-06 1.36597e-06 0)
(1.70328e-06 1.50859e-06 0)
(1.81755e-06 1.6522e-06 0)
(1.93258e-06 1.79626e-06 0)
(2.04823e-06 1.94032e-06 0)
(2.16445e-06 2.08399e-06 0)
(2.28117e-06 2.22695e-06 0)
(2.39835e-06 2.36888e-06 0)
(2.51596e-06 2.50954e-06 0)
(2.63398e-06 2.64868e-06 0)
(2.75239e-06 2.78607e-06 0)
(2.87118e-06 2.92147e-06 0)
(2.99031e-06 3.05464e-06 0)
(3.10972e-06 3.1852e-06 0)
(3.22925e-06 3.31295e-06 0)
(9.71559e-07 6.48502e-07 0)
(1.07192e-06 7.7334e-07 0)
(1.17491e-06 9.03427e-07 0)
(1.27938e-06 1.03783e-06 0)
(1.38574e-06 1.1755e-06 0)
(1.49354e-06 1.31568e-06 0)
(1.6028e-06 1.4576e-06 0)
(1.71331e-06 1.60064e-06 0)
(1.82499e-06 1.74424e-06 0)
(1.9377e-06 1.88793e-06 0)
(2.05137e-06 2.03129e-06 0)
(2.16589e-06 2.17397e-06 0)
(2.28119e-06 2.31565e-06 0)
(2.39723e-06 2.45606e-06 0)
(2.51393e-06 2.59495e-06 0)
(2.63127e-06 2.73211e-06 0)
(2.74918e-06 2.8673e-06 0)
(2.86758e-06 3.00035e-06 0)
(2.98637e-06 3.13095e-06 0)
(3.10531e-06 3.259e-06 0)
(8.99213e-07 6.07301e-07 0)
(9.93491e-07 7.30493e-07 0)
(1.09066e-06 8.59136e-07 0)
(1.18976e-06 9.92259e-07 0)
(1.29115e-06 1.12882e-06 0)
(1.39444e-06 1.26803e-06 0)
(1.49963e-06 1.40912e-06 0)
(1.60653e-06 1.55144e-06 0)
(1.71501e-06 1.69442e-06 0)
(1.82495e-06 1.83757e-06 0)
(1.93622e-06 1.98045e-06 0)
(2.0487e-06 2.1227e-06 0)
(2.1623e-06 2.26398e-06 0)
(2.2769e-06 2.40401e-06 0)
(2.39243e-06 2.54255e-06 0)
(2.5088e-06 2.67937e-06 0)
(2.62592e-06 2.81431e-06 0)
(2.74366e-06 2.94721e-06 0)
(2.86191e-06 3.0779e-06 0)
(2.98034e-06 3.20636e-06 0)
(8.22612e-07 5.68557e-07 0)
(9.10697e-07 6.90205e-07 0)
(1.002e-06 8.17427e-07 0)
(1.09579e-06 9.49249e-07 0)
(1.1923e-06 1.08463e-06 0)
(1.29124e-06 1.22277e-06 0)
(1.39256e-06 1.3629e-06 0)
(1.49605e-06 1.50436e-06 0)
(1.60159e-06 1.64657e-06 0)
(1.709e-06 1.78902e-06 0)
(1.81813e-06 1.93127e-06 0)
(1.92884e-06 2.07295e-06 0)
(2.04097e-06 2.2137e-06 0)
(2.15438e-06 2.35325e-06 0)
(2.26895e-06 2.49133e-06 0)
(2.38454e-06 2.62776e-06 0)
(2.50102e-06 2.76238e-06 0)
(2.61824e-06 2.89509e-06 0)
(2.73603e-06 3.02586e-06 0)
(2.85408e-06 3.15478e-06 0)
(7.40339e-07 5.32886e-07 0)
(8.22111e-07 6.52952e-07 0)
(9.07543e-07 7.78653e-07 0)
(9.9609e-07 9.09038e-07 0)
(1.0879e-06 1.04307e-06 0)
(1.1827e-06 1.17996e-06 0)
(1.28041e-06 1.31893e-06 0)
(1.38081e-06 1.45933e-06 0)
(1.48372e-06 1.60057e-06 0)
(1.58895e-06 1.74214e-06 0)
(1.6963e-06 1.88359e-06 0)
(1.80557e-06 2.02453e-06 0)
(1.91658e-06 2.16462e-06 0)
(2.02914e-06 2.30357e-06 0)
(2.14305e-06 2.44112e-06 0)
(2.25814e-06 2.57709e-06 0)
(2.37423e-06 2.71134e-06 0)
(2.49111e-06 2.84382e-06 0)
(2.6086e-06 2.9746e-06 0)
(2.72639e-06 3.10393e-06 0)
(6.50312e-07 4.99429e-07 0)
(7.25686e-07 6.17889e-07 0)
(8.05307e-07 7.41995e-07 0)
(8.88788e-07 8.70844e-07 0)
(9.76163e-07 1.00341e-06 0)
(1.06717e-06 1.13891e-06 0)
(1.16166e-06 1.27658e-06 0)
(1.25939e-06 1.41578e-06 0)
(1.36014e-06 1.5559e-06 0)
(1.46365e-06 1.69645e-06 0)
(1.5697e-06 1.83698e-06 0)
(1.67804e-06 1.97708e-06 0)
(1.78841e-06 2.11642e-06 0)
(1.90058e-06 2.25469e-06 0)
(2.0143e-06 2.39166e-06 0)
(2.12932e-06 2.52712e-06 0)
(2.2454e-06 2.66097e-06 0)
(2.36227e-06 2.79318e-06 0)
(2.4797e-06 2.92391e-06 0)
(2.59737e-06 3.05352e-06 0)
(5.5136e-07 4.70156e-07 0)
(6.20291e-07 5.86627e-07 0)
(6.94237e-07 7.08746e-07 0)
(7.72893e-07 8.35666e-07 0)
(8.5618e-07 9.66387e-07 0)
(9.43803e-07 1.10015e-06 0)
(1.03555e-06 1.23618e-06 0)
(1.13111e-06 1.37385e-06 0)
(1.23022e-06 1.51257e-06 0)
(1.33258e-06 1.65184e-06 0)
(1.43788e-06 1.79121e-06 0)
(1.54583e-06 1.93027e-06 0)
(1.65613e-06 2.0687e-06 0)
(1.76847e-06 2.20619e-06 0)
(1.88255e-06 2.34249e-06 0)
(1.99804e-06 2.47742e-06 0)
(2.11462e-06 2.61087e-06 0)
(2.23192e-06 2.74282e-06 0)
(2.34964e-06 2.87344e-06 0)
(2.46739e-06 3.00313e-06 0)
(7.90828e-08 8.42673e-09 0)
(2.38901e-07 5.23097e-08 0)
(4.08807e-07 1.34278e-07 0)
(5.90948e-07 2.4885e-07 0)
(7.88823e-07 3.92922e-07 0)
(1.00352e-06 5.61367e-07 0)
(1.2359e-06 7.48705e-07 0)
(1.48557e-06 9.49188e-07 0)
(1.75176e-06 1.15701e-06 0)
(2.03309e-06 1.3674e-06 0)
(7.44914e-08 7.51242e-09 0)
(2.25194e-07 4.6916e-08 0)
(3.85001e-07 1.21323e-07 0)
(5.55573e-07 2.26292e-07 0)
(7.40101e-07 3.59483e-07 0)
(9.39596e-07 5.16584e-07 0)
(1.15494e-06 6.92836e-07 0)
(1.38575e-06 8.83172e-07 0)
(1.63118e-06 1.08201e-06 0)
(1.88976e-06 1.28558e-06 0)
(7.03641e-08 6.43705e-09 0)
(2.12896e-07 4.14621e-08 0)
(3.63764e-07 1.088e-07 0)
(5.24076e-07 2.04802e-07 0)
(6.96679e-07 3.27713e-07 0)
(8.82425e-07 4.7388e-07 0)
(1.08226e-06 6.39155e-07 0)
(1.29602e-06 8.19177e-07 0)
(1.5234e-06 1.00888e-06 0)
(1.7628e-06 1.20557e-06 0)
(6.65872e-08 5.19152e-09 0)
(2.01693e-07 3.59899e-08 0)
(3.4465e-07 9.69431e-08 0)
(4.96061e-07 1.84972e-07 0)
(6.58469e-07 2.9875e-07 0)
(8.32498e-07 4.35129e-07 0)
(1.01903e-06 5.90404e-07 0)
(1.21779e-06 7.60679e-07 0)
(1.42884e-06 9.41154e-07 0)
(1.65024e-06 1.1295e-06 0)
(6.30561e-08 3.76331e-09 0)
(1.91236e-07 3.03081e-08 0)
(3.26931e-07 8.52075e-08 0)
(4.70279e-07 1.65806e-07 0)
(6.23557e-07 2.71096e-07 0)
(7.87174e-07 3.98331e-07 0)
(9.62005e-07 5.44203e-07 0)
(1.14768e-06 7.05252e-07 0)
(1.34462e-06 8.77089e-07 0)
(1.55028e-06 1.05735e-06 0)
(5.9742e-08 2.17607e-09 0)
(1.81437e-07 2.44542e-08 0)
(3.10447e-07 7.36553e-08 0)
(4.46488e-07 1.47435e-07 0)
(5.91605e-07 2.45012e-07 0)
(7.45979e-07 3.63934e-07 0)
(9.10446e-07 5.01182e-07 0)
(1.08448e-06 6.53571e-07 0)
(1.26883e-06 8.17107e-07 0)
(1.46056e-06 9.89262e-07 0)
(5.6578e-08 4.21753e-10 0)
(1.72088e-07 1.83423e-08 0)
(2.94801e-07 6.20404e-08 0)
(4.24052e-07 1.29401e-07 0)
(5.61701e-07 2.19814e-07 0)
(7.07721e-07 3.31053e-07 0)
(8.62929e-07 4.60351e-07 0)
(1.02664e-06 6.04736e-07 0)
(1.19985e-06 7.60597e-07 0)
(1.37932e-06 9.25132e-07 0)
(5.35393e-08 -1.47694e-09 0)
(1.63113e-07 1.19983e-08 0)
(2.79842e-07 5.03707e-08 0)
(4.02722e-07 1.11695e-07 0)
(5.33449e-07 1.95476e-07 0)
(6.7181e-07 2.99647e-07 0)
(8.18598e-07 4.21638e-07 0)
(9.73004e-07 5.58608e-07 0)
(1.13618e-06 7.07309e-07 0)
(1.30481e-06 8.64711e-07 0)
(5.05869e-08 -3.52104e-09 0)
(1.54394e-07 5.388e-09 0)
(2.65354e-07 3.85361e-08 0)
(3.82155e-07 9.41047e-08 0)
(5.06357e-07 1.71681e-07 0)
(6.3759e-07 2.6931e-07 0)
(7.76617e-07 3.84582e-07 0)
(9.22555e-07 5.14749e-07 0)
(1.07662e-06 6.56861e-07 0)
(1.23554e-06 8.07714e-07 0)
(4.76992e-08 -5.69668e-09 0)
(1.45865e-07 -1.47669e-09 0)
(2.51212e-07 2.65255e-08 0)
(3.62143e-07 7.65888e-08 0)
(4.80097e-07 1.48346e-07 0)
(6.04577e-07 2.39912e-07 0)
(7.36315e-07 3.48998e-07 0)
(8.74405e-07 4.72917e-07 0)
(1.02006e-06 6.08967e-07 0)
(1.17018e-06 7.53844e-07 0)
(4.48525e-08 -8.00277e-09 0)
(1.37458e-07 -8.6119e-09 0)
(2.3729e-07 1.42853e-08 0)
(3.42479e-07 5.90468e-08 0)
(4.54355e-07 1.25319e-07 0)
(5.72325e-07 2.11255e-07 0)
(6.97095e-07 3.14646e-07 0)
(8.27778e-07 4.32851e-07 0)
(9.65552e-07 5.63357e-07 0)
(1.10754e-06 7.02822e-07 0)
(4.20319e-08 -1.04352e-08 0)
(1.29131e-07 -1.60187e-08 0)
(2.23502e-07 1.79973e-09 0)
(3.23007e-07 4.14488e-08 0)
(4.28876e-07 1.02549e-07 0)
(5.40453e-07 1.83256e-07 0)
(6.58423e-07 2.81409e-07 0)
(7.81964e-07 3.94393e-07 0)
(9.12192e-07 5.19841e-07 0)
(1.04651e-06 6.54428e-07 0)
(3.92283e-08 -1.30001e-08 0)
(1.20867e-07 -2.37204e-08 0)
(2.09793e-07 -1.09722e-08 0)
(3.03606e-07 2.37411e-08 0)
(4.03436e-07 7.99651e-08 0)
(5.08607e-07 1.55825e-07 0)
(6.19799e-07 2.4917e-07 0)
(7.36295e-07 3.57402e-07 0)
(8.5914e-07 4.78258e-07 0)
(9.86049e-07 6.08466e-07 0)
(3.64415e-08 -1.57191e-08 0)
(1.12677e-07 -3.17439e-08 0)
(1.96146e-07 -2.40441e-08 0)
(2.84188e-07 5.93917e-09 0)
(3.7784e-07 5.76012e-08 0)
(4.7646e-07 1.28999e-07 0)
(5.80746e-07 2.17952e-07 0)
(6.90121e-07 3.21875e-07 0)
(8.05569e-07 4.38578e-07 0)
(9.25136e-07 5.64871e-07 0)
(3.36966e-08 -1.86322e-08 0)
(1.04664e-07 -4.01593e-08 0)
(1.82635e-07 -3.74801e-08 0)
(2.64736e-07 -1.20009e-08 0)
(3.51931e-07 3.54317e-08 0)
(4.4369e-07 1.02754e-07 0)
(5.40766e-07 1.87723e-07 0)
(6.4276e-07 2.87756e-07 0)
(7.5061e-07 4.0072e-07 0)
(8.62702e-07 5.23524e-07 0)
(3.10474e-08 -2.1876e-08 0)
(9.69925e-08 -4.9069e-08 0)
(1.69386e-07 -5.12578e-08 0)
(2.45257e-07 -2.99191e-08 0)
(3.25557e-07 1.37058e-08 0)
(4.09966e-07 7.73818e-08 0)
(4.99344e-07 1.58779e-07 0)
(5.93508e-07 2.55323e-07 0)
(6.93366e-07 3.64927e-07 0)
(7.97654e-07 4.8462e-07 0)
(2.86919e-08 -2.56108e-08 0)
(9.01768e-08 -5.86745e-08 0)
(1.56824e-07 -6.5511e-08 0)
(2.25936e-07 -4.79089e-08 0)
(2.98616e-07 -7.63407e-09 0)
(3.74911e-07 5.28265e-08 0)
(4.55851e-07 1.31051e-07 0)
(5.41498e-07 2.24473e-07 0)
(6.3275e-07 3.31061e-07 0)
(7.28686e-07 4.47974e-07 0)
(2.70516e-08 -3.0535e-08 0)
(8.48113e-08 -6.9292e-08 0)
(1.45363e-07 -7.99571e-08 0)
(2.06866e-07 -6.52553e-08 0)
(2.70925e-07 -2.76729e-08 0)
(3.38075e-07 3.0077e-08 0)
(4.09607e-07 1.05515e-07 0)
(4.85837e-07 1.96133e-07 0)
(5.67662e-07 2.99967e-07 0)
(6.54503e-07 4.14334e-07 0)
(2.81755e-08 -3.71562e-08 0)
(8.31069e-08 -8.13025e-08 0)
(1.36411e-07 -9.48683e-08 0)
(1.88543e-07 -8.23665e-08 0)
(2.42268e-07 -4.69043e-08 0)
(2.98732e-07 8.54019e-09 0)
(3.59497e-07 8.15003e-08 0)
(4.25088e-07 1.69558e-07 0)
(4.96404e-07 2.70847e-07 0)
(5.73139e-07 3.82848e-07 0)
(3.64023e-08 -4.91649e-08 0)
(8.64549e-08 -9.50014e-08 0)
(1.30638e-07 -1.08361e-07 0)
(1.70904e-07 -9.63109e-08 0)
(2.12315e-07 -6.22079e-08 0)
(2.56327e-07 -8.68961e-09 0)
(3.04818e-07 6.19511e-08 0)
(3.58403e-07 1.47508e-07 0)
(4.18005e-07 2.46238e-07 0)
(4.83475e-07 3.55815e-07 0)
)
;

boundaryField
{
    left
    {
        type            fixedDisplacement;
        value           uniform (0 0 0);
    }
    right
    {
        type            solidTraction;
        tractionSeries  
{
        file            "$FOAM_CASE/constant/timeVsTraction";
        outOfBounds     clamp;
}
        pressure        uniform 0;
        secondOrder     false;
        setEffectiveTraction false;
        relaxationFactor 1;
        value           nonuniform List<vector> 
30
(
(6.54655e-06 4.79827e-06 2.02978e-21)
(6.39404e-06 4.74324e-06 2.03782e-21)
(6.24018e-06 4.68859e-06 2.07896e-21)
(6.08455e-06 4.63332e-06 2.15887e-21)
(5.92715e-06 4.57681e-06 2.2752e-21)
(5.76836e-06 4.51847e-06 2.42483e-21)
(5.60873e-06 4.45795e-06 2.60247e-21)
(5.44893e-06 4.3951e-06 2.80249e-21)
(5.28964e-06 4.32989e-06 3.01863e-21)
(5.13157e-06 4.26251e-06 3.24368e-21)
(4.98205e-06 4.19622e-06 3.40066e-21)
(4.84028e-06 4.13105e-06 3.46347e-21)
(4.70053e-06 4.06492e-06 3.50633e-21)
(4.56306e-06 3.99814e-06 3.53009e-21)
(4.42801e-06 3.93119e-06 3.5311e-21)
(4.29507e-06 3.86448e-06 3.51075e-21)
(4.16446e-06 3.79828e-06 3.47247e-21)
(4.03592e-06 3.73306e-06 3.4162e-21)
(3.90916e-06 3.66909e-06 3.34519e-21)
(3.78385e-06 3.60665e-06 3.26233e-21)
(3.65961e-06 3.54591e-06 3.17133e-21)
(3.53602e-06 3.487e-06 3.07599e-21)
(3.41263e-06 3.42996e-06 2.98071e-21)
(3.28901e-06 3.37475e-06 2.88977e-21)
(3.16477e-06 3.32122e-06 2.8076e-21)
(3.03955e-06 3.26916e-06 2.73797e-21)
(2.91309e-06 3.21826e-06 2.68548e-21)