/*--------------------------------*- C++ -*----------------------------------*\
  =========                 |
  \\      /  F ield         | OpenFOAM: The Open Source CFD Toolbox
   \\    /   O peration     | Website:  https://openfoam.org
    \\  /    A nd           | Version:  9
     \\/     M anipulation  |
\*---------------------------------------------------------------------------*/
FoamFile
{
    format      ascii;
    class       volScalarField;
    location    "5";
    object      epsilonEq;
}
// * * * * * * * * * * * * * * * * * * * * * * * * * * * * * * * * * * * * * //

dimensions      [0 0 0 0 0 0 0];

internalField   nonuniform List<scalar> 
1000
(
3.40674e-06
3.23456e-06
3.18531e-06
3.20969e-06
3.21302e-06
3.20632e-06
3.18408e-06
3.15018e-06
3.11233e-06
3.06504e-06
3.97165e-06
3.60638e-06
3.42956e-06
3.37495e-06
3.32607e-06
3.28434e-06
3.23584e-06
3.18441e-06
3.12618e-06
3.07476e-06
4.52394e-06
3.96454e-06
3.65069e-06
3.50614e-06
3.39648e-06
3.31318e-06
3.23393e-06
3.16044e-06
3.08315e-06
3.02135e-06
5.05261e-06
4.3046e-06
3.84943e-06
3.60638e-06
3.4284e-06
3.29822e-06
3.18507e-06
3.08801e-06
2.99227e-06
2.91946e-06
5.5411e-06
4.61859e-06
4.02191e-06
3.67478e-06
3.42244e-06
3.24083e-06
3.09129e-06
2.96923e-06
2.85609e-06
2.77159e-06
5.99206e-06
4.90407e-06
4.16567e-06
3.71105e-06
3.38015e-06
3.14446e-06
2.95743e-06
2.81013e-06
2.68068e-06
2.58417e-06
6.38022e-06
5.14228e-06
4.26032e-06
3.69984e-06
3.29311e-06
3.00668e-06
2.78586e-06
2.61641e-06
2.47397e-06
2.36653e-06
6.74551e-06
5.32294e-06
4.28789e-06
3.63214e-06
3.16088e-06
2.83506e-06
2.59038e-06
2.40651e-06
2.25733e-06
2.14248e-06
6.99939e-06
5.34151e-06
4.15329e-06
3.44045e-06
2.95244e-06
2.62166e-06
2.37839e-06
2.19609e-06
2.05057e-06
1.93414e-06
7.21795e-06
5.03569e-06
3.83404e-06
3.16488e-06
2.7418e-06
2.44877e-06
2.23289e-06
2.06469e-06
1.92855e-06
1.81284e-06
1.16741e-08
2.48855e-08
1.21635e-07
2.54409e-07
4.0008e-07
5.50479e-07
6.96582e-07
8.35822e-07
9.63688e-07
1.08217e-06
2.98567e-08
1.6879e-07
3.62823e-07
5.53804e-07
7.23293e-07
8.73933e-07
1.00542e-06
1.12308e-06
1.22408e-06
1.31899e-06
1.387e-07
4.04826e-07
6.49472e-07
8.7105e-07
1.05588e-06
1.20955e-06
1.33448e-06
1.43934e-06
1.52149e-06
1.59922e-06
3.22116e-07
6.93302e-07
9.69089e-07
1.20279e-06
1.38892e-06
1.53826e-06
1.65433e-06
1.74732e-06
1.81398e-06
1.87811e-06
5.8262e-07
1.0184e-06
1.31223e-06
1.54778e-06
1.72525e-06
1.86273e-06
1.9651e-06
2.04347e-06
2.09425e-06
2.14455e-06
9.1914e-07
1.36447e-06
1.65861e-06
1.88745e-06
2.04998e-06
2.1709e-06
2.25636e-06
2.318e-06
2.35256e-06
2.3883e-06
1.32477e-06
1.72571e-06
1.99884e-06
2.21167e-06
2.35427e-06
2.45545e-06
2.52189e-06
2.5654e-06
2.58363e-06
2.60397e-06
1.78978e-06
2.09715e-06
2.32473e-06
2.51021e-06
2.62772e-06
2.70654e-06
2.75299e-06
2.77779e-06
2.78107e-06
2.78512e-06
2.30118e-06
2.47527e-06
2.63256e-06
2.77795e-06
2.86443e-06
2.91822e-06
2.94332e-06
2.94938e-06
2.93845e-06
2.92844e-06
2.84525e-06
2.85596e-06
2.91967e-06
3.01108e-06
3.0594e-06
3.08426e-06
3.08646e-06
3.07196e-06
3.05155e-06
3.01923e-06
1.18889e-06
1.28066e-06
1.36575e-06
1.4427e-06
1.51227e-06
1.57487e-06
1.63107e-06
1.68129e-06
1.72603e-06
1.76565e-06
1.8005e-06
1.83082e-06
1.85681e-06
1.8786e-06
1.89624e-06
1.90983e-06
1.91932e-06
1.925e-06
1.92681e-06
1.9257e-06
1.39246e-06
1.44603e-06
1.5001e-06
1.55033e-06
1.59746e-06
1.64125e-06
1.68172e-06
1.71885e-06
1.75277e-06
1.7835e-06
1.81118e-06
1.83588e-06
1.85767e-06
1.87663e-06
1.89275e-06
1.90605e-06
1.91633e-06
1.92347e-06
1.92652e-06
1.92483e-06
1.64275e-06
1.66e-06
1.68206e-06
1.70332e-06
1.72495e-06
1.74649e-06
1.76779e-06
1.78847e-06
1.80848e-06
1.82752e-06
1.84556e-06
1.86245e-06
1.87812e-06
1.8925e-06
1.90544e-06
1.91675e-06
1.92593e-06
1.9324e-06
1.93419e-06
1.93015e-06
1.89681e-06
1.88375e-06
1.8782e-06
1.87382e-06
1.8719e-06
1.87214e-06
1.8745e-06
1.87844e-06
1.88389e-06
1.89035e-06
1.8977e-06
1.9056e-06
1.91389e-06
1.92231e-06
1.93056e-06
1.93828e-06
1.94469e-06
1.94905e-06
1.94901e-06
1.94351e-06
2.14133e-06
2.1033e-06
2.07401e-06
2.04757e-06
2.02492e-06
2.00582e-06
1.9906e-06
1.97849e-06
1.96965e-06
1.96343e-06
1.95974e-06
1.95811e-06
1.95832e-06
1.95998e-06
1.9627e-06
1.96598e-06
1.96894e-06
1.97079e-06
1.96924e-06
1.96343e-06
2.36572e-06
2.3078e-06
2.25884e-06
2.21391e-06
2.1739e-06
2.13802e-06
2.10743e-06
2.0809e-06
2.05895e-06
2.04079e-06
2.02641e-06
2.01531e-06
2.00725e-06
2.00181e-06
1.99856e-06
1.997e-06
1.99629e-06
1.99568e-06
1.99337e-06
1.98859e-06
2.56459e-06
2.4917e-06
2.42781e-06
2.36762e-06
2.3138e-06
2.26358e-06
2.21969e-06
2.1803e-06
2.14643e-06
2.11724e-06
2.09282e-06
2.0727e-06
2.05663e-06
2.04422e-06
2.03508e-06
2.02872e-06
2.0245e-06
2.02178e-06
2.01947e-06
2.0168e-06
2.73237e-06
2.64901e-06
2.57602e-06
2.50327e-06
2.43933e-06
2.37798e-06
2.32354e-06
2.27367e-06
2.22961e-06
2.19069e-06
2.15709e-06
2.12848e-06
2.10471e-06
2.08548e-06
2.07052e-06
2.05944e-06
2.05191e-06
2.0474e-06
2.04572e-06
2.04602e-06
2.86853e-06
2.77583e-06
2.70294e-06
2.62142e-06
2.54974e-06
2.47934e-06
2.41555e-06
2.35668e-06
2.30377e-06
2.25647e-06
2.21491e-06
2.17889e-06
2.14832e-06
2.123e-06
2.10281e-06
2.08749e-06
2.07706e-06
2.07116e-06
2.07056e-06
2.0743e-06
2.96994e-06
2.87076e-06
2.80266e-06
2.72186e-06
2.64707e-06
2.57277e-06
2.50248e-06
2.43641e-06
2.37557e-06
2.32028e-06
2.27084e-06
2.22732e-06
2.18977e-06
2.15815e-06
2.13249e-06
2.11272e-06
2.0992e-06
2.09181e-06
2.09232e-06
2.09971e-06
3.00938e-06
2.91643e-06
2.84913e-06
2.77309e-06
2.69841e-06
2.62417e-06
2.55258e-06
2.48432e-06
2.42052e-06
2.36169e-06
2.30837e-06
2.26079e-06
2.21922e-06
2.18377e-06
2.15469e-06
2.13209e-06
2.11671e-06
2.10857e-06
2.11025e-06
2.1207e-06
2.93224e-06
2.88449e-06
2.82282e-06
2.75676e-06
2.68932e-06
2.62122e-06
2.55454e-06
2.49003e-06
2.42894e-06
2.37189e-06
2.31957e-06
2.27239e-06
2.23078e-06
2.195e-06
2.1655e-06
2.14258e-06
2.12723e-06
2.11966e-06
2.12303e-06
2.13616e-06
2.87017e-06
2.83392e-06
2.78669e-06
2.7301e-06
2.67138e-06
2.60984e-06
2.54857e-06
2.48818e-06
2.43022e-06
2.3754e-06
2.32459e-06
2.27832e-06
2.23717e-06
2.20156e-06
2.17209e-06
2.14923e-06
2.13418e-06
2.12719e-06
2.13179e-06
2.14673e-06
2.79618e-06
2.77441e-06
2.739e-06
2.69163e-06
2.64123e-06
2.58638e-06
2.53087e-06
2.47518e-06
2.42109e-06
2.36936e-06
2.32097e-06
2.27657e-06
2.23681e-06
2.20225e-06
2.17357e-06
2.1514e-06
2.13689e-06
2.13069e-06
2.13654e-06
2.15247e-06
2.71187e-06
2.70153e-06
2.67727e-06
2.63959e-06
2.59808e-06
2.55075e-06
2.50182e-06
2.4517e-06
2.40234e-06
2.35456e-06
2.30945e-06
2.26774e-06
2.23016e-06
2.19737e-06
2.17002e-06
2.14904e-06
2.13504e-06
2.13044e-06
2.13337e-06
2.15299e-06
2.62213e-06
2.62197e-06
2.60774e-06
2.57918e-06
2.54604e-06
2.50615e-06
2.4639e-06
2.41964e-06
2.37546e-06
2.33218e-06
2.29099e-06
2.25263e-06
2.21793e-06
2.18752e-06
2.16222e-06
2.14269e-06
2.13028e-06
2.12568e-06
2.13176e-06
2.14712e-06
2.52854e-06
2.53678e-06
2.53131e-06
2.51126e-06
2.48608e-06
2.45358e-06
2.41809e-06
2.37998e-06
2.34134e-06
2.30303e-06
2.26627e-06
2.23181e-06
2.20051e-06
2.17303e-06
2.15016e-06
2.13251e-06
2.12139e-06
2.11705e-06
2.12267e-06
2.1371e-06
2.43302e-06
2.44822e-06
2.45038e-06
2.43802e-06
2.42017e-06
2.39472e-06
2.36585e-06
2.33393e-06
2.30102e-06
2.26798e-06
2.23601e-06
2.20588e-06
2.17844e-06
2.15431e-06
2.13424e-06
2.11876e-06
2.10901e-06
2.10528e-06
2.1102e-06
2.12265e-06
2.33641e-06
2.35713e-06
2.36577e-06
2.36028e-06
2.34914e-06
2.33041e-06
2.30799e-06
2.28226e-06
2.25521e-06
2.22766e-06
2.20079e-06
2.17536e-06
2.15215e-06
2.13174e-06
2.11483e-06
2.10181e-06
2.09364e-06
2.09043e-06
2.0944e-06
2.10452e-06
2.23914e-06
2.26418e-06
2.2783e-06
2.27889e-06
2.27389e-06
2.2615e-06
2.24533e-06
2.22575e-06
2.20463e-06
2.18275e-06
2.16122e-06
2.14076e-06
2.12209e-06
2.10575e-06
2.09229e-06
2.08204e-06
2.07564e-06
2.07313e-06
2.07604e-06
2.08343e-06
2.14105e-06
2.16941e-06
2.18813e-06
2.19415e-06
2.19482e-06
2.18848e-06
2.17842e-06
2.16498e-06
2.14987e-06
2.13381e-06
2.11785e-06
2.10262e-06
2.08878e-06
2.07679e-06
2.06708e-06
2.05986e-06
2.0555e-06
2.05385e-06
2.05574e-06
2.06031e-06
2.04168e-06
2.07261e-06
2.09527e-06
2.10625e-06
2.11228e-06
2.11182e-06
2.10781e-06
2.10056e-06
2.09158e-06
2.08153e-06
2.07133e-06
2.06156e-06
2.0528e-06
2.04541e-06
2.03971e-06
2.0358e-06
2.03376e-06
2.03324e-06
2.03432e-06
2.03618e-06
1.94007e-06
1.97311e-06
1.99935e-06
2.01507e-06
2.02636e-06
2.0318e-06
2.03395e-06
2.03306e-06
2.03043e-06
2.02663e-06
2.02244e-06
2.01837e-06
2.0149e-06
2.01232e-06
2.01086e-06
2.01048e-06
2.01103e-06
2.01198e-06
2.01262e-06
2.01208e-06
1.83527e-06
1.87034e-06
1.90007e-06
1.92061e-06
1.93735e-06
1.94893e-06
1.95754e-06
1.96331e-06
1.96735e-06
1.97009e-06
1.97218e-06
1.97404e-06
1.97604e-06
1.97844e-06
1.98135e-06
1.98468e-06
1.98806e-06
1.99081e-06
1.99149e-06
1.98911e-06
1.72563e-06
1.76312e-06
1.79674e-06
1.82261e-06
1.84533e-06
1.86363e-06
1.87925e-06
1.89223e-06
1.90341e-06
1.9131e-06
1.92182e-06
1.92985e-06
1.9375e-06
1.94497e-06
1.95231e-06
1.9594e-06
1.96574e-06
1.97056e-06
1.97185e-06
1.96838e-06
1.61053e-06
1.65135e-06
1.68969e-06
1.7218e-06
1.75137e-06
1.77721e-06
1.80059e-06
1.82143e-06
1.84031e-06
1.85741e-06
1.87307e-06
1.88749e-06
1.90089e-06
1.91342e-06
1.9251e-06
1.93583e-06
1.94511e-06
1.95211e-06
1.95455e-06
1.95086e-06
1.48767e-06
1.5336e-06
1.57829e-06
1.61822e-06
1.65609e-06
1.69074e-06
1.72299e-06
1.75262e-06
1.77995e-06
1.80503e-06
1.82804e-06
1.8491e-06
1.86833e-06
1.88583e-06
1.90164e-06
1.91568e-06
1.92756e-06
1.93656e-06
1.94051e-06
1.93756e-06
1.35948e-06
1.4129e-06
1.46596e-06
1.51555e-06
1.56326e-06
1.608e-06
1.65011e-06
1.68928e-06
1.72561e-06
1.75901e-06
1.78956e-06
1.81728e-06
1.84222e-06
1.86445e-06
1.88398e-06
1.9008e-06
1.91466e-06
1.92509e-06
1.93045e-06
1.92889e-06
1.22336e-06
1.28828e-06
1.35305e-06
1.41507e-06
1.47487e-06
1.53142e-06
1.58473e-06
1.6344e-06
1.6804e-06
1.72257e-06
1.76091e-06
1.7954e-06
1.82603e-06
1.85278e-06
1.87563e-06
1.89453e-06
1.90933e-06
1.91991e-06
1.92553e-06
1.92542e-06
1.09512e-06
1.17483e-06
1.25358e-06
1.32933e-06
1.40201e-06
1.4706e-06
1.53502e-06
1.5948e-06
1.64991e-06
1.70021e-06
1.74568e-06
1.78629e-06
1.822e-06
1.85274e-06
1.87836e-06
1.89873e-06
1.91357e-06
1.92298e-06
1.92671e-06
1.92612e-06
1.71511e-06
1.83156e-06
2.02967e-06
2.24756e-06
2.46419e-06
2.65477e-06
2.80903e-06
2.91961e-06
2.98813e-06
3.00229e-06
1.6245e-06
1.73305e-06
1.91588e-06
2.12183e-06
2.33376e-06
2.52817e-06
2.69457e-06
2.8223e-06
2.91094e-06
2.9457e-06
1.54335e-06
1.64684e-06
1.81694e-06
2.00986e-06
2.21177e-06
2.40107e-06
2.56893e-06
2.70643e-06
2.81372e-06
2.87985e-06
1.46912e-06
1.56922e-06
1.72878e-06
1.91013e-06
2.10271e-06
2.28649e-06
2.45283e-06
2.59324e-06
2.70569e-06
2.79091e-06
1.39948e-06
1.49726e-06
1.64787e-06
1.81832e-06
2.00095e-06
2.17785e-06
2.34113e-06
2.48405e-06
2.60008e-06
2.69622e-06
1.33411e-06
1.43041e-06
1.57365e-06
1.73444e-06
1.90746e-06
2.07658e-06
2.23423e-06
2.37594e-06
2.49202e-06
2.59525e-06
1.2718e-06
1.36709e-06
1.50409e-06
1.65627e-06
1.82026e-06
1.98174e-06
2.13341e-06
2.27273e-06
2.38712e-06
2.49265e-06
1.21235e-06
1.30682e-06
1.43843e-06
1.58286e-06
1.73826e-06
1.89191e-06
2.03686e-06
2.17228e-06
2.28414e-06
2.38976e-06
1.15534e-06
1.24899e-06
1.37577e-06
1.51315e-06
1.66053e-06
1.80655e-06
1.94469e-06
2.07533e-06
2.18388e-06
2.28766e-06
1.10078e-06
1.19334e-06
1.31552e-06
1.44621e-06
1.58586e-06
1.72424e-06
1.85546e-06
1.98065e-06
2.08554e-06
2.18649e-06
1.0488e-06
1.13977e-06
1.25724e-06
1.3813e-06
1.51335e-06
1.64407e-06
1.76829e-06
1.88755e-06
1.98843e-06
2.08587e-06
9.9983e-07
1.0884e-06
1.20064e-06
1.31772e-06
1.44193e-06
1.56475e-06
1.68182e-06
1.7948e-06
1.89143e-06
1.98503e-06
9.54686e-07
1.03962e-06
1.14547e-06
1.25464e-06
1.37036e-06
1.48481e-06
1.59446e-06
1.70086e-06
1.79306e-06
1.88269e-06
9.14612e-07
9.94025e-07
1.09161e-06
1.19139e-06
1.29751e-06
1.40286e-06
1.50466e-06
1.60423e-06
1.69189e-06
1.77755e-06
8.81995e-07
9.52574e-07
1.03835e-06
1.12606e-06
1.22083e-06
1.31611e-06
1.40964e-06
1.50226e-06
1.58549e-06
1.6675e-06
8.59648e-07
9.1572e-07
9.84942e-07
1.05751e-06
1.13885e-06
1.22299e-06
1.30781e-06
1.39349e-06
1.4726e-06
1.55147e-06
8.53844e-07
8.84402e-07
9.27339e-07
9.79401e-07
1.0448e-06
1.11707e-06
1.19347e-06
1.27302e-06
1.34916e-06
1.42621e-06
8.65731e-07
8.52641e-07
8.6106e-07
8.89693e-07
9.37896e-07
9.98299e-07
1.06715e-06
1.14191e-06
1.21673e-06
1.29366e-06
9.11055e-07
8.12649e-07
7.65812e-07
7.65729e-07
7.98691e-07
8.50923e-07
9.1649e-07
9.9079e-07
1.06847e-06
1.14919e-06
9.30845e-07
7.13121e-07
6.35023e-07
6.12441e-07
6.37833e-07
6.87642e-07
7.55603e-07
8.34854e-07
9.20223e-07
1.00908e-06
)
;

boundaryField
{
    left
    {
        type            calculated;
        value           nonuniform List<scalar> 
30
(
1.69537e-06
1.60582e-06
1.52568e-06
1.45233e-06
1.38367e-06
1.31935e-06
1.2583e-06
1.20036e-06
1.1452e-06
1.09292e-06
1.04374e-06
9.98177e-07
9.57138e-07
9.21999e-07
8.95255e-07
8.80592e-07
8.85483e-07
9.19e-07
1.01242e-06
1.15825e-06
7.6859e-06
4.92977e-06
3.71007e-06
3.08328e-06
2.69302e-06
2.41612e-06
2.20858e-06
2.04375e-06
1.9092e-06
1.79304e-06
)
;
    }
    right
    {
        type            calculated;
        value           nonuniform List<scalar> 
30
(
1.92538e-06
1.92484e-06
1.92998e-06
1.94324e-06
1.9631e-06
1.98828e-06
2.01656e-06
2.04592e-06
2.07435e-06
2.09999e-06
2.12107e-06
2.13678e-06
2.14742e-06
2.1532e-06
2.15317e-06
2.14774e-06
2.13776e-06
2.1232e-06
2.10494e-06
2.0837e-06
2.06044e-06
2.03617e-06
2.01196e-06
1.98892e-06
1.96816e-06
1.95067e-06
1.93745e-06
1.92887e-06
1.92549e-06
1.92575e-06
)
;
    }
    down
    {
        type            calculated;
        value           nonuniform List<scalar> 
30
(
8.52376e-09
8.82956e-09
8.93133e-08
2.16932e-07
3.63981e-07
5.17733e-07
6.67956e-07
8.11192e-07
9.42598e-07
1.06434e-06
1.17395e-06
1.26947e-06
1.35721e-06
1.4361e-06
1.50727e-06
1.57105e-06
1.62822e-06
1.67918e-06
1.72453e-06
1.76462e-06
1.79984e-06
1.83043e-06
1.85663e-06
1.87856e-06
1.89628e-06
1.90988e-06
1.91933e-06
1.92498e-06
1.92679e-06
1.92617e-06
)
;
    }
    up
    {
        type            calculated;
        value           nonuniform List<scalar> 
30
(
9.17793e-07
7.05144e-07
6.30869e-07
6.07715e-07
6.32319e-07
6.81329e-07
7.48797e-07
8.27904e-07
9.13204e-07
1.00244e-06
1.08876e-06
1.16912e-06
1.24865e-06
1.32505e-06
1.3984e-06
1.46757e-06
1.53253e-06
1.5928e-06
1.64835e-06
1.69902e-06
1.74482e-06
1.78571e-06
1.82166e-06
1.85258e-06
1.87833e-06
1.89878e-06
1.91362e-06
1.92301e-06
1.92667e-06
1.92641e-06
)
;
    }
    hole
    {
        type            calculated;
        value           nonuniform List<scalar> 
20
(
3.43031e-06
4.02466e-06
4.60574e-06
5.16187e-06
5.67522e-06
6.14939e-06
6.55858e-06
6.95363e-06
7.25769e-06
7.61278e-06
3.55859e-09
3.76508e-09
6.76908e-08
2.30111e-07
4.83641e-07
8.26034e-07
1.246e-06
1.73172e-06
2.26802e-06
2.83974e-06
)
;
    }
    frontAndBack
    {
        type            empty;
    }
}


// ************************************************************************* //
