/*--------------------------------*- C++ -*----------------------------------*\
  =========                 |
  \\      /  F ield         | OpenFOAM: The Open Source CFD Toolbox
   \\    /   O peration     | Website:  https://openfoam.org
    \\  /    A nd           | Version:  9
     \\/     M anipulation  |
\*---------------------------------------------------------------------------*/
FoamFile
{
    format      ascii;
    class       volSymmTensorField;
    location    "5";
    object      epsilon;
}
// * * * * * * * * * * * * * * * * * * * * * * * * * * * * * * * * * * * * * //

dimensions      [0 0 0 0 0 0 0];

internalField   nonuniform List<symmTensor> 
1000
(
(2.10548e-06 -2.73215e-06 2.57421e-19 4.2465e-07 2.83038e-19 7.71375e-34)
(2.90463e-06 -2.10746e-06 -4.33981e-21 -5.19635e-07 2.43287e-21 0)
(3.29624e-06 -1.61443e-06 5.06355e-21 -9.7121e-07 -9.72331e-22 0)
(3.5158e-06 -1.2424e-06 1.30025e-21 -1.28816e-06 -9.29751e-22 0)
(3.62155e-06 -9.43101e-07 -5.49825e-21 -1.46379e-06 4.04786e-22 0)
(3.65702e-06 -7.09144e-07 -5.94912e-22 -1.57621e-06 6.53169e-22 0)
(3.65284e-06 -5.19041e-07 -4.99511e-21 -1.63704e-06 -2.6812e-21 0)
(3.61962e-06 -3.67914e-07 3.42837e-21 -1.6681e-06 1.60249e-21 0)
(3.57655e-06 -2.42301e-07 -1.76815e-21 -1.67943e-06 -2.01207e-21 0)
(3.51387e-06 -1.37818e-07 0 -1.68112e-06 0 0)
(2.84932e-06 -3.03833e-06 2.65084e-19 1.17643e-07 3.41681e-19 4.62421e-35)
(3.46919e-06 -2.17561e-06 0 -7.22486e-07 0 0)
(3.73453e-06 -1.55254e-06 4.0533e-21 -1.09466e-06 1.93132e-21 0)
(3.85743e-06 -1.10466e-06 -6.95518e-21 -1.35876e-06 -3.70974e-21 0)
(3.88795e-06 -7.63211e-07 -2.95628e-21 -1.4921e-06 -1.78281e-21 0)
(3.86397e-06 -5.07858e-07 2.05769e-21 -1.57502e-06 2.09865e-21 0)
(3.81157e-06 -3.08491e-07 2.30416e-21 -1.61236e-06 1.54436e-21 0)
(3.74074e-06 -1.5696e-07 5.41766e-21 -1.62925e-06 3.16239e-21 0)
(3.6611e-06 -3.41515e-08 0 -1.62386e-06 0 0)
(3.57696e-06 6.41088e-08 0 -1.62671e-06 0 0)
(3.68296e-06 -3.23194e-06 2.62382e-19 -2.89029e-07 3.92681e-19 0)
(4.05393e-06 -2.17303e-06 0 -9.51734e-07 0 0)
(4.15518e-06 -1.44503e-06 3.86358e-21 -1.20471e-06 1.99623e-21 0)
(4.15849e-06 -9.37839e-07 -1.1594e-21 -1.3922e-06 4.1014e-22 0)
(4.10017e-06 -5.66601e-07 -5.67854e-23 -1.46908e-06 2.53328e-23 0)
(4.00861e-06 -2.99109e-07 -1.91854e-21 -1.514e-06 -1.98552e-21 0)
(3.90371e-06 -9.81833e-08 2.61992e-21 -1.52278e-06 1.21157e-21 0)
(3.79216e-06 4.85524e-08 -1.9452e-21 -1.52171e-06 -1.43664e-21 0)
(3.67903e-06 1.62611e-07 -1.57046e-22 -1.50076e-06 2.70851e-22 0)
(3.56996e-06 2.55306e-07 -4.10965e-22 -1.49911e-06 -1.76945e-22 0)
(4.57524e-06 -3.28517e-06 2.32023e-19 -7.72336e-07 4.18353e-19 -2.67316e-35)
(4.64428e-06 -2.0911e-06 2.21301e-21 -1.19873e-06 -2.28497e-22 0)
(4.55159e-06 -1.29373e-06 -1.76599e-21 -1.29936e-06 -9.96484e-22 0)
(4.41635e-06 -7.50078e-07 -1.11916e-21 -1.39008e-06 2.16928e-22 0)
(4.2581e-06 -3.65323e-07 2.00329e-21 -1.39905e-06 1.9366e-21 0)
(4.09336e-06 -9.70922e-08 -2.41168e-21 -1.40022e-06 -1.59489e-21 0)
(3.93371e-06 9.68478e-08 -2.08361e-21 -1.37856e-06 -1.48286e-21 0)
(3.78206e-06 2.33386e-07 -4.64404e-21 -1.35923e-06 -3.39779e-21 0)
(3.63758e-06 3.34051e-07 -6.65537e-22 -1.32556e-06 -8.12999e-22 0)
(3.50697e-06 4.16014e-07 1.13735e-21 -1.318e-06 1.0061e-21 0)
(5.48204e-06 -3.17311e-06 1.8048e-19 -1.30101e-06 3.93801e-19 -4.60131e-34)
(5.22111e-06 -1.9188e-06 1.15741e-25 -1.45212e-06 5.53543e-27 0)
(4.91381e-06 -1.09632e-06 -5.71762e-21 -1.37462e-06 -2.80153e-21 0)
(4.62645e-06 -5.45398e-07 5.1974e-22 -1.35264e-06 -1.94632e-23 0)
(4.36067e-06 -1.68294e-07 -7.28567e-22 -1.28491e-06 7.68063e-23 0)
(4.11983e-06 8.57407e-08 1.73648e-21 -1.23854e-06 1.60394e-21 0)
(3.90584e-06 2.61878e-07 -1.94851e-22 -1.18616e-06 5.74066e-23 0)
(3.71599e-06 3.80818e-07 1.83308e-21 -1.14954e-06 1.22524e-21 0)
(3.54445e-06 4.62786e-07 -3.95789e-22 -1.10683e-06 -8.4823e-22 0)
(3.39526e-06 5.29602e-07 -7.24936e-22 -1.09459e-06 -5.85603e-22 0)
(6.37298e-06 -2.89004e-06 1.21578e-19 -1.84021e-06 3.39828e-19 -4.43762e-34)
(5.7706e-06 -1.6489e-06 1.05566e-25 -1.69519e-06 2.23217e-26 0)
(5.23582e-06 -8.49972e-07 -5.71226e-26 -1.4214e-06 -8.85933e-27 0)
(4.78728e-06 -3.27719e-07 4.59395e-22 -1.27734e-06 5.67275e-23 0)
(4.41024e-06 1.59211e-08 -2.4747e-21 -1.12936e-06 -1.50497e-21 0)
(4.09399e-06 2.37966e-07 2.82413e-23 -1.0363e-06 -2.16267e-25 0)
(3.8288e-06 3.84564e-07 1.84194e-21 -9.56302e-07 1.24754e-21 0)
(3.60493e-06 4.78428e-07 3.91641e-21 -9.05784e-07 2.86463e-21 0)
(3.4113e-06 5.37257e-07 7.09444e-22 -8.58528e-07 5.2065e-22 0)
(3.24744e-06 5.85285e-07 -1.23859e-21 -8.43714e-07 -9.75622e-22 0)
(7.18834e-06 -2.41788e-06 8.04913e-20 -2.34708e-06 2.64995e-19 -8.38706e-34)
(6.26067e-06 -1.26127e-06 1.65622e-21 -1.90232e-06 6.65008e-22 0)
(5.48957e-06 -5.47402e-07 1.75059e-21 -1.41908e-06 7.95491e-22 0)
(4.87983e-06 -9.94222e-08 -3.77698e-22 -1.15322e-06 -1.13084e-22 0)
(4.39771e-06 1.78753e-07 1.78887e-21 -9.31573e-07 1.19686e-21 0)
(4.01516e-06 3.4805e-07 -1.64631e-21 -8.00581e-07 -1.13389e-21 0)
(3.70837e-06 4.52791e-07 4.69117e-22 -7.01824e-07 2.97083e-23 0)
(3.4589e-06 5.14609e-07 -1.47011e-21 -6.44411e-07 -9.63728e-22 0)
(3.25067e-06 5.47566e-07 -1.01954e-22 -5.98753e-07 1.24492e-23 0)
(3.07711e-06 5.74984e-07 -7.45016e-22 -5.846e-07 -4.86498e-22 0)
(7.95241e-06 -1.75511e-06 4.24423e-20 -2.78452e-06 1.702e-19 -2.71014e-35)
(6.67361e-06 -7.36045e-07 -4.41558e-21 -2.02255e-06 -1.59156e-21 0)
(5.65718e-06 -1.84056e-07 3.42169e-23 -1.32643e-06 1.88066e-23 0)
(4.89928e-06 1.26531e-07 5.52425e-22 -9.61026e-07 2.80864e-22 0)
(4.32924e-06 3.02766e-07 4.091e-21 -6.8991e-07 2.0361e-21 0)
(3.89846e-06 3.99883e-07 -2.42173e-22 -5.42021e-07 -7.64859e-23 0)
(3.56523e-06 4.54713e-07 6.02945e-27 -4.40942e-07 1.21569e-27 0)
(3.30185e-06 4.8234e-07 -1.43854e-21 -3.87653e-07 -7.59542e-22 0)
(3.08768e-06 4.91338e-07 3.49905e-23 -3.51001e-07 1.64124e-24 0)
(2.91003e-06 5.00052e-07 1.07721e-22 -3.41254e-07 5.31533e-23 0)
(8.54291e-06 -8.19354e-07 1.16963e-20 -3.04161e-06 6.40378e-20 1.49245e-34)
(6.8753e-06 -7.17638e-08 -4.86468e-21 -1.92228e-06 -2.04415e-21 0)
(5.62571e-06 1.90944e-07 5.08695e-22 -1.05575e-06 4.33552e-22 0)
(4.77377e-06 2.892e-07 4.78083e-22 -6.61056e-07 3.78664e-22 0)
(4.17405e-06 3.3852e-07 -2.00054e-22 -4.03405e-07 -1.22455e-22 0)
(3.73692e-06 3.55418e-07 1.59329e-21 -2.79116e-07 5.79265e-22 0)
(3.40634e-06 3.63761e-07 8.71395e-23 -2.01636e-07 2.71088e-23 0)
(3.14691e-06 3.63715e-07 2.56985e-21 -1.66404e-07 9.84235e-22 0)
(2.93748e-06 3.57404e-07 5.6736e-22 -1.45589e-07 2.1953e-22 0)
(2.76146e-06 3.5422e-07 3.1787e-22 -1.42887e-07 1.27283e-22 0)
(9.06932e-06 7.38483e-07 9.76522e-22 -2.8068e-06 -3.8866e-20 -1.72152e-34)
(6.70332e-06 8.24512e-07 -3.72801e-22 -1.26522e-06 -6.4651e-22 0)
(5.38991e-06 5.44476e-07 1.68981e-21 -5.2949e-07 7.18668e-22 0)
(4.57169e-06 3.53252e-07 8.70025e-23 -2.61209e-07 1.22309e-22 0)
(4.02146e-06 2.78805e-07 2.9727e-27 -1.22815e-07 2.77332e-27 0)
(3.61595e-06 2.37278e-07 1.61567e-21 -6.73479e-08 2.9045e-22 0)
(3.30803e-06 2.2244e-07 2.50763e-23 -3.78118e-08 7.46917e-24 0)
(3.06076e-06 2.13787e-07 1.23814e-21 -2.79272e-08 2.34607e-22 0)
(2.85868e-06 2.06998e-07 -1.37102e-23 -2.35478e-08 -1.05425e-24 0)
(2.68387e-06 2.0239e-07 -2.08094e-23 -2.52305e-08 -4.39211e-24 0)
(-8.87447e-09 8.87271e-09 3.71113e-20 -1.06091e-09 2.26353e-20 1.79573e-34)
(1.04761e-08 -2.04487e-08 -9.39576e-23 -2.28805e-09 1.99633e-20 1.5232e-36)
(1.06046e-07 -6.95983e-08 -1.18257e-21 -4.85776e-08 1.63024e-20 1.9026e-35)
(2.56813e-07 -1.08989e-07 -2.12062e-24 -1.17619e-07 1.75824e-20 0)
(4.30506e-07 -1.33341e-07 -1.59808e-22 -1.94386e-07 1.5691e-20 -1.53217e-36)
(6.12111e-07 -1.47263e-07 -1.62085e-21 -2.73378e-07 1.73889e-20 3.20768e-35)
(7.89546e-07 -1.52799e-07 3.63822e-22 -3.49659e-07 1.93065e-20 1.53464e-36)
(9.58729e-07 -1.53345e-07 -1.07548e-21 -4.21708e-07 1.81723e-20 2.92062e-35)
(1.11394e-06 -1.49348e-07 8.68776e-22 -4.88022e-07 1.85328e-20 -1.26841e-35)
(1.25773e-06 -1.46274e-07 1.82492e-21 -5.4773e-07 1.8066e-20 -3.82794e-35)
(1.82549e-08 -2.21671e-08 3.79598e-20 -7.65465e-09 5.91921e-21 5.05973e-35)
(1.129e-07 -1.30783e-07 1.30748e-21 -3.86104e-10 1.43554e-21 0)
(2.85622e-07 -2.50821e-07 -1.22369e-21 -7.22999e-08 -1.23007e-21 0)
(4.77775e-07 -3.42619e-07 1.1751e-23 -1.69408e-07 -1.01869e-21 0)
(6.70595e-07 -3.99147e-07 0 -2.66255e-07 0 0)
(8.53499e-07 -4.30899e-07 -1.85674e-21 -3.57527e-07 -2.75508e-22 0)
(1.02203e-06 -4.42441e-07 3.135e-22 -4.39672e-07 1.59945e-21 0)
(1.17689e-06 -4.41811e-07 2.34031e-23 -5.1316e-07 8.60457e-23 0)
(1.31335e-06 -4.29677e-07 -1.00201e-21 -5.77761e-07 -2.90828e-21 0)
(1.44006e-06 -4.20014e-07 7.33396e-22 -6.32681e-07 1.13944e-22 0)
(2.86426e-08 -1.18616e-07 4.01983e-20 3.57745e-08 7.95813e-21 -2.2569e-36)
(2.09864e-07 -3.30216e-07 1.33729e-21 1.23047e-08 1.41801e-21 0)
(4.53751e-07 -4.78934e-07 1.39892e-21 -9.95161e-08 2.92878e-22 0)
(6.93232e-07 -5.78648e-07 7.17763e-23 -2.38373e-07 -9.82404e-22 0)
(9.13673e-07 -6.33676e-07 0 -3.66423e-07 0 0)
(1.10762e-06 -6.59648e-07 -2.07823e-21 -4.78792e-07 -5.42518e-22 0)
(1.27607e-06 -6.62952e-07 -2.83479e-21 -5.73209e-07 -7.93952e-22 0)
(1.4242e-06 -6.52493e-07 1.87567e-21 -6.52751e-07 1.14703e-21 0)
(1.54736e-06 -6.29484e-07 1.13984e-23 -7.17661e-07 3.66334e-23 0)
(1.66229e-06 -6.10142e-07 -1.68717e-21 -7.70473e-07 -1.06671e-21 0)
(4.43019e-08 -2.69771e-07 5.0036e-20 1.39011e-07 1.27169e-20 -4.30822e-35)
(3.42656e-07 -5.69268e-07 3.2965e-22 2.55797e-08 -1.19123e-21 0)
(6.52553e-07 -7.2568e-07 1.53743e-21 -1.3616e-07 3.00375e-22 0)
(9.3505e-07 -8.13481e-07 0 -3.16111e-07 0 0)
(1.17976e-06 -8.49963e-07 -2.62003e-21 -4.72793e-07 9.76852e-22 0)
(1.3844e-06 -8.56897e-07 3.20341e-23 -6.0541e-07 2.41702e-21 0)
(1.55369e-06 -8.42457e-07 -1.30655e-22 -7.12508e-07 -1.2984e-21 0)
(1.69673e-06 -8.1554e-07 -3.75946e-22 -7.99385e-07 -2.00407e-21 0)
(1.80828e-06 -7.78027e-07 8.55964e-22 -8.66534e-07 2.77761e-22 0)
(1.91341e-06 -7.46312e-07 1.59784e-21 -9.19368e-07 5.99339e-22 0)
(8.49791e-08 -4.83298e-07 5.30864e-20 2.82502e-07 2.26124e-20 1.1145e-34)
(5.29676e-07 -8.29549e-07 -2.69898e-21 2.26224e-08 1.81018e-21 0)
(9.05758e-07 -9.70199e-07 -1.63709e-21 -2.06827e-07 -4.81508e-22 0)
(1.22487e-06 -1.02882e-06 -4.4144e-22 -4.31358e-07 1.7719e-21 0)
(1.48566e-06 -1.03291e-06 -1.73084e-23 -6.14011e-07 1.09295e-22 0)
(1.69426e-06 -1.01027e-06 2.52411e-21 -7.62894e-07 -6.77991e-22 0)
(1.85935e-06 -9.70469e-07 1.09971e-21 -8.78736e-07 2.88586e-22 0)
(1.99358e-06 -9.21641e-07 0 -9.69549e-07 0 0)
(2.09129e-06 -8.66739e-07 -1.17477e-21 -1.03627e-06 -1.54506e-21 0)
(2.18487e-06 -8.20043e-07 4.68346e-22 -1.08709e-06 1.13659e-22 0)
(1.73687e-07 -7.63916e-07 7.51493e-20 4.43933e-07 3.28082e-20 -1.63839e-34)
(7.7726e-07 -1.09347e-06 1.10123e-21 2.83153e-09 -2.14745e-21 0)
(1.21588e-06 -1.1902e-06 -1.35231e-21 -3.03752e-07 -1.45874e-21 0)
(1.56239e-06 -1.2047e-06 2.97045e-22 -5.71881e-07 -8.25056e-22 0)
(1.82918e-06 -1.16768e-06 2.8605e-21 -7.75252e-07 9.56876e-22 0)
(2.03292e-06 -1.11019e-06 -2.75931e-21 -9.34611e-07 3.0774e-22 0)
(2.18687e-06 -1.04184e-06 -3.11693e-24 -1.05412e-06 7.32562e-23 0)
(2.30672e-06 -9.69209e-07 -2.15002e-21 -1.14462e-06 -1.4805e-21 0)
(2.38708e-06 -8.96414e-07 4.52907e-24 -1.2082e-06 2.87485e-23 0)
(2.46577e-06 -8.33983e-07 -2.34751e-21 -1.25455e-06 -1.07284e-21 0)
(3.36162e-07 -1.10859e-06 1.14099e-19 5.88969e-07 6.16412e-20 -1.70998e-34)
(1.08753e-06 -1.35056e-06 6.09631e-23 -4.07353e-08 -9.23664e-23 0)
(1.57724e-06 -1.37263e-06 -4.46645e-26 -4.24389e-07 7.62789e-26 0)
(1.93881e-06 -1.32808e-06 -2.92263e-21 -7.32141e-07 -2.04774e-21 0)
(2.20037e-06 -1.24307e-06 -4.95772e-22 -9.50177e-07 1.32689e-21 0)
(2.38954e-06 -1.14791e-06 -2.67813e-21 -1.11395e-06 -1.08959e-21 0)
(2.52476e-06 -1.05023e-06 4.81445e-21 -1.23162e-06 2.14567e-21 0)
(2.62391e-06 -9.54183e-07 -5.77624e-25 -1.31727e-06 5.75293e-23 0)
(2.68311e-06 -8.64711e-07 9.47473e-22 -1.37444e-06 -4.16359e-24 0)
(2.74265e-06 -7.87064e-07 -1.28416e-21 -1.41371e-06 -6.11305e-22 0)
(5.96236e-07 -1.50453e-06 1.62222e-19 6.8538e-07 1.02485e-19 -3.41413e-34)
(1.45942e-06 -1.59074e-06 1.57032e-21 -1.11023e-07 -1.87638e-21 0)
(1.97842e-06 -1.50879e-06 -6.06149e-22 -5.58334e-07 8.07865e-22 0)
(2.33838e-06 -1.39192e-06 3.70555e-22 -8.95819e-07 -5.7765e-22 0)
(2.58226e-06 -1.25425e-06 3.30409e-26 -1.12041e-06 -6.48814e-26 0)
(2.74714e-06 -1.12095e-06 3.10816e-21 -1.28206e-06 2.62646e-22 0)
(2.85657e-06 -9.95431e-07 2.33078e-22 -1.39305e-06 -1.01213e-21 0)
(2.92925e-06 -8.78592e-07 -7.77161e-23 -1.46967e-06 8.32859e-22 0)
(2.9646e-06 -7.75339e-07 1.09474e-23 -1.5189e-06 4.15896e-22 0)
(3.0007e-06 -6.84491e-07 9.81699e-22 -1.54831e-06 9.16929e-22 0)
(9.72768e-07 -1.92857e-06 2.00909e-19 7.02874e-07 1.5862e-19 4.61502e-34)
(1.89031e-06 -1.8041e-06 -5.05585e-22 -2.1303e-07 3.44018e-21 0)
(2.4071e-06 -1.5947e-06 -5.85991e-26 -6.98695e-07 6.14494e-26 0)
(2.74472e-06 -1.39554e-06 4.02175e-21 -1.05057e-06 9.43887e-22 0)
(2.95724e-06 -1.2027e-06 3.07191e-21 -1.27142e-06 1.53319e-21 0)
(3.08807e-06 -1.03263e-06 2.7715e-21 -1.42411e-06 1.38365e-21 0)
(3.16506e-06 -8.82036e-07 -3.02679e-22 -1.52309e-06 8.69959e-22 0)
(3.20601e-06 -7.48733e-07 -3.33748e-21 -1.58787e-06 -1.8645e-21 0)
(3.21557e-06 -6.35231e-07 2.04919e-21 -1.62673e-06 4.85194e-22 0)
(3.22545e-06 -5.33743e-07 9.19138e-22 -1.6489e-06 5.4611e-22 0)
(1.47599e-06 -2.34996e-06 2.33163e-19 6.19924e-07 2.15983e-19 6.72257e-35)
(2.37461e-06 -1.98016e-06 -1.01835e-21 -3.48907e-07 7.51831e-22 0)
(2.85005e-06 -1.62965e-06 -1.97502e-21 -8.37874e-07 -9.20558e-22 0)
(3.14113e-06 -1.34329e-06 8.55566e-21 -1.18379e-06 2.00378e-21 0)
(3.30732e-06 -1.09551e-06 5.23574e-23 -1.38864e-06 -5.95439e-23 0)
(3.39432e-06 -8.91267e-07 -2.72571e-21 -1.52454e-06 -1.54721e-21 0)
(3.43254e-06 -7.19534e-07 -2.92033e-21 -1.607e-06 -4.59749e-22 0)
(3.43711e-06 -5.74682e-07 -1.10051e-21 -1.65519e-06 -6.58074e-22 0)
(3.42202e-06 -4.57253e-07 1.21962e-22 -1.68635e-06 -9.11007e-22 0)
(3.39714e-06 -3.55416e-07 5.50912e-22 -1.68906e-06 1.15176e-21 0)
(1.38719e-06 -1.35689e-07 1.84334e-21 -6.03261e-07 1.92379e-20 -1.13995e-35)
(1.50001e-06 -1.21e-07 1.72858e-21 -6.49546e-07 1.79778e-20 -2.50582e-35)
(1.60364e-06 -1.08239e-07 -1.61515e-22 -6.92496e-07 1.57613e-20 -1.46221e-35)
(1.69683e-06 -9.6655e-08 1.74247e-22 -7.31356e-07 1.69715e-20 -6.4186e-37)
(1.78089e-06 -8.59139e-08 -8.60009e-22 -7.66315e-07 1.71393e-20 3.81298e-35)
(1.85622e-06 -7.62998e-08 5.81853e-22 -7.97826e-07 1.76217e-20 0)
(1.92375e-06 -6.7482e-08 5.48631e-22 -8.26026e-07 1.76067e-20 0)
(1.98394e-06 -5.95297e-08 1.06763e-21 -8.51255e-07 1.82702e-20 4.9554e-37)
(2.03751e-06 -5.22391e-08 9.71316e-22 -8.7371e-07 1.77604e-20 -1.29537e-35)
(2.08485e-06 -4.55585e-08 1.60805e-21 -8.93612e-07 1.89363e-20 8.4042e-37)
(2.12645e-06 -3.93431e-08 1.89734e-21 -9.11126e-07 1.81154e-20 -3.92341e-35)
(2.16259e-06 -3.35022e-08 -1.2066e-22 -9.26387e-07 1.73478e-20 1.3141e-35)
(2.19353e-06 -2.79215e-08 1.84878e-21 -9.39497e-07 1.81024e-20 -3.96133e-35)
(2.21943e-06 -2.25174e-08 -1.54666e-21 -9.50526e-07 1.53785e-20 -7.95339e-37)
(2.24036e-06 -1.72216e-08 3.84121e-22 -9.59505e-07 1.80301e-20 1.35588e-35)
(2.25643e-06 -1.20261e-08 2.34822e-22 -9.66472e-07 1.74952e-20 -3.20931e-45)
(2.26759e-06 -7.00581e-09 -4.33009e-22 -9.71405e-07 1.6752e-20 -1.44778e-37)
(2.27426e-06 -2.4462e-09 7.9445e-22 -9.74379e-07 1.82219e-20 1.03874e-37)
(2.2764e-06 1.05026e-09 4.33554e-22 -9.7529e-07 1.65633e-20 -4.09343e-35)
(2.27567e-06 1.87494e-09 1.21427e-20 -9.73974e-07 1.48946e-20 -2.26109e-35)
(1.5443e-06 -3.91088e-07 1.79561e-21 -6.82195e-07 2.20686e-21 0)
(1.62793e-06 -3.51942e-07 1.16328e-21 -7.17563e-07 3.18847e-22 0)
(1.70791e-06 -3.17468e-07 8.68691e-23 -7.50135e-07 -5.04308e-22 0)
(1.77964e-06 -2.85308e-07 2.64396e-21 -7.80034e-07 2.38307e-21 0)
(1.8457e-06 -2.55171e-07 -5.0778e-22 -8.06713e-07 -1.19982e-22 0)
(1.90534e-06 -2.27943e-07 -2.1564e-21 -8.31209e-07 -2.18471e-21 0)
(1.95965e-06 -2.02739e-07 1.09894e-21 -8.53191e-07 4.0668e-22 0)
(2.00854e-06 -1.79853e-07 0 -8.73174e-07 0 0)
(2.05268e-06 -1.58737e-07 5.2367e-22 -8.91148e-07 1.85493e-22 0)
(2.09216e-06 -1.39309e-07 1.07672e-21 -9.07351e-07 4.15008e-22 0)
(2.1274e-06 -1.21196e-07 3.22982e-21 -9.21853e-07 1.66864e-21 0)
(2.15856e-06 -1.04188e-07 1.45854e-23 -9.34774e-07 1.66681e-23 0)
(2.18586e-06 -8.80039e-08 4.18688e-22 -9.46167e-07 -3.258e-22 0)
(2.20946e-06 -7.24497e-08 6.16867e-22 -9.56067e-07 7.05394e-22 0)
(2.22944e-06 -5.73725e-08 6.32849e-22 -9.6445e-07 7.25547e-22 0)
(2.24594e-06 -4.2765e-08 -6.2692e-22 -9.71225e-07 -7.22404e-22 0)
(2.25883e-06 -2.8802e-08 -6.30476e-22 -9.76166e-07 -7.30597e-22 0)
(2.26828e-06 -1.60923e-08 -1.26616e-21 -9.78869e-07 -1.47583e-21 0)
(2.27354e-06 -5.55531e-09 -9.5799e-24 -9.78403e-07 -1.04825e-23 0)
(2.27485e-06 4.62216e-11 1.4684e-20 -9.73267e-07 1.05017e-21 3.32618e-35)
(1.74255e-06 -5.66738e-07 4.91414e-22 -8.11262e-07 6.71882e-22 0)
(1.79517e-06 -5.13351e-07 6.69819e-22 -8.32304e-07 2.39015e-22 0)
(1.84969e-06 -4.65462e-07 -1.55775e-21 -8.49968e-07 -1.96094e-21 0)
(1.89747e-06 -4.21007e-07 -1.39115e-22 -8.66736e-07 3.58048e-22 0)
(1.94327e-06 -3.78656e-07 2.84081e-21 -8.81043e-07 2.36474e-21 0)
(1.98477e-06 -3.40219e-07 -2.25698e-21 -8.94745e-07 -2.15425e-21 0)
(2.02367e-06 -3.04257e-07 -6.00995e-22 -9.07087e-07 -6.95748e-22 0)
(2.05914e-06 -2.71405e-07 1.14866e-21 -9.1874e-07 1.30595e-21 0)
(2.09193e-06 -2.40907e-07 4.19263e-24 -9.29532e-07 -8.4777e-22 0)
(2.1218e-06 -2.12752e-07 -1.21547e-21 -9.39675e-07 -1.36619e-21 0)
(2.14911e-06 -1.86474e-07 1.16471e-21 -9.49159e-07 1.30444e-21 0)
(2.17383e-06 -1.61848e-07 1.79978e-21 -9.58043e-07 2.0168e-21 0)
(2.19614e-06 -1.38533e-07 1.37709e-23 -9.6631e-07 1.51718e-23 0)
(2.2161e-06 -1.16295e-07 -6.16259e-22 -9.73914e-07 -6.9456e-22 0)
(2.23374e-06 -9.49258e-08 6.10064e-22 -9.80711e-07 6.91733e-22 0)
(2.24905e-06 -7.43449e-08 8.99296e-29 -9.86424e-07 1.00115e-28 0)
(2.26172e-06 -5.46015e-08 -6.28553e-22 -9.90508e-07 -7.21685e-22 0)
(2.2716e-06 -3.60066e-08 8.55704e-23 -9.92074e-07 5.21231e-22 0)
(2.27707e-06 -1.91328e-08 -2.06464e-21 -9.89271e-07 -2.66082e-22 0)
(2.27801e-06 -4.74089e-09 1.52139e-20 -9.8002e-07 2.17872e-22 2.51152e-38)
(1.97009e-06 -6.90712e-07 0 -9.52236e-07 0 0)
(1.99055e-06 -6.29532e-07 7.16186e-22 -9.60099e-07 2.60891e-22 0)
(2.01926e-06 -5.73112e-07 5.61018e-22 -9.63634e-07 6.40975e-22 0)
(2.04199e-06 -5.21659e-07 6.15745e-22 -9.68104e-07 7.1267e-22 0)
(2.06648e-06 -4.71575e-07 0 -9.7029e-07 0 0)
(2.08844e-06 -4.2612e-07 8.2773e-23 -9.73229e-07 -3.59753e-22 0)
(2.11056e-06 -3.83062e-07 -1.84191e-21 -9.75714e-07 -1.13103e-21 0)
(2.13114e-06 -3.43542e-07 -1.1761e-21 -9.78647e-07 -1.27763e-21 0)
(2.15117e-06 -3.06602e-07 -6.60743e-22 -9.81754e-07 -3.05001e-22 0)
(2.17001e-06 -2.72372e-07 -2.89867e-24 -9.85235e-07 8.17026e-22 0)
(2.188e-06 -2.40347e-07 -5.80727e-22 -9.89027e-07 1.79484e-22 0)
(2.20492e-06 -2.10319e-07 1.21582e-21 -9.93132e-07 5.2157e-22 0)
(2.22086e-06 -1.81932e-07 1.15375e-21 -9.97469e-07 5.73673e-23 0)
(2.23574e-06 -1.54922e-07 2.85452e-23 -1.00191e-06 4.3684e-22 0)
(2.24947e-06 -1.29024e-07 5.02648e-23 -1.0062e-06 4.63109e-22 0)
(2.26191e-06 -1.04039e-07 -6.21434e-22 -1.00994e-06 -6.98997e-22 0)
(2.27252e-06 -7.9838e-08 -1.32723e-28 -1.0124e-06 -1.49374e-28 0)
(2.28101e-06 -5.62619e-08 1.32563e-21 -1.01253e-06 1.94329e-21 0)
(2.28535e-06 -3.35123e-08 -6.77921e-23 -1.00825e-06 -5.11047e-22 0)
(2.28559e-06 -9.94194e-09 1.27623e-20 -9.9743e-07 -2.32181e-21 -5.01998e-35)
(2.21696e-06 -7.54943e-07 5.54335e-23 -1.10983e-06 8.95112e-22 0)
(2.20406e-06 -6.93502e-07 -7.78308e-22 -1.10419e-06 -3.40058e-22 0)
(2.20681e-06 -6.33573e-07 -1.95794e-21 -1.09241e-06 -1.59524e-21 0)
(2.20383e-06 -5.80817e-07 1.28888e-21 -1.08406e-06 8.77215e-22 0)
(2.20664e-06 -5.27809e-07 3.35406e-21 -1.07338e-06 2.20284e-21 0)
(2.20832e-06 -4.79911e-07 -6.1637e-22 -1.06471e-06 -6.44113e-22 0)
(2.21292e-06 -4.33844e-07 0 -1.05646e-06 0 0)
(2.21771e-06 -3.91333e-07 6.00275e-22 -1.0497e-06 6.24539e-22 0)
(2.22403e-06 -3.5127e-07 -1.93069e-21 -1.04415e-06 -8.2498e-22 0)
(2.23083e-06 -3.13944e-07 -1.25287e-21 -1.03999e-06 -9.23312e-22 0)
(2.23844e-06 -2.78879e-07 6.93448e-23 -1.03716e-06 -7.12701e-22 0)
(2.24647e-06 -2.45918e-07 -6.31998e-22 -1.0356e-06 -1.06765e-21 0)
(2.25491e-06 -2.14719e-07 -6.30556e-23 -1.03518e-06 1.12134e-21 0)
(2.26354e-06 -1.84994e-07 1.23502e-21 -1.03573e-06 1.73983e-21 0)
(2.27217e-06 -1.56424e-07 6.00758e-22 -1.03692e-06 2.56151e-22 0)
(2.28054e-06 -1.28651e-07 -2.30487e-23 -1.03828e-06 -4.33822e-22 0)
(2.28801e-06 -1.01356e-07 1.16453e-21 -1.03902e-06 4.79087e-22 0)
(2.2942e-06 -7.38587e-08 5.7276e-22 -1.0381e-06 2.29946e-22 0)
(2.29706e-06 -4.61328e-08 2.35163e-21 -1.03356e-06 1.85714e-21 0)
(2.29678e-06 -1.45193e-08 1.78311e-20 -1.02345e-06 2.35576e-21 5.19631e-35)
(2.47242e-06 -7.62737e-07 4.59263e-22 -1.26629e-06 6.3059e-22 0)
(2.42587e-06 -7.08975e-07 1.10637e-23 -1.24915e-06 2.42154e-23 0)
(2.40345e-06 -6.50354e-07 -1.41547e-21 -1.22294e-06 -9.80827e-22 0)
(2.3748e-06 -6.015e-07 -3.39936e-21 -1.20278e-06 -2.54354e-21 0)
(2.35632e-06 -5.49892e-07 1.32795e-21 -1.18019e-06 9.04569e-22 0)
(2.33773e-06 -5.0344e-07 1.25025e-21 -1.16049e-06 1.24089e-21 0)
(2.32476e-06 -4.57938e-07 -6.12569e-22 -1.14204e-06 -6.08907e-22 0)
(2.31355e-06 -4.15598e-07 -9.79942e-23 -1.12583e-06 2.72989e-22 0)
(2.30576e-06 -3.75327e-07 2.68648e-21 -1.11171e-06 1.60009e-21 0)
(2.3e-06 -3.37508e-07 -1.79642e-21 -1.0998e-06 -1.83235e-21 0)
(2.2966e-06 -3.01771e-07 -6.39011e-22 -1.09007e-06 -6.5994e-22 0)
(2.29499e-06 -2.67999e-07 1.73783e-21 -1.08245e-06 2.5727e-21 0)
(2.29508e-06 -2.35904e-07 -2.53606e-21 -1.07683e-06 -7.55401e-22 0)
(2.29659e-06 -2.0519e-07 -1.80875e-21 -1.07302e-06 -1.93178e-21 0)
(2.29922e-06 -1.75508e-07 4.09446e-24 -1.07072e-06 -3.9015e-22 0)
(2.30267e-06 -1.46366e-07 -2.4366e-21 -1.06947e-06 -1.86409e-21 0)
(2.30629e-06 -1.17296e-07 -1.774e-23 -1.06858e-06 -1.66742e-23 0)
(2.3097e-06 -8.71698e-08 2.39523e-21 -1.06716e-06 2.28894e-21 0)
(2.31118e-06 -5.5836e-08 3.80822e-23 -1.06363e-06 4.72361e-22 0)
(2.31079e-06 -1.80893e-08 1.86275e-20 -1.05635e-06 8.62308e-22 -3.96427e-37)
(2.72405e-06 -7.14062e-07 -4.81284e-22 -1.4135e-06 -6.17002e-22 0)
(2.64531e-06 -6.7657e-07 6.64854e-22 -1.38803e-06 6.0673e-22 0)
(2.60018e-06 -6.24284e-07 8.20479e-22 -1.34986e-06 4.28515e-22 0)
(2.54707e-06 -5.84281e-07 -6.48674e-22 -1.3193e-06 -6.08046e-22 0)
(2.50856e-06 -5.38699e-07 -1.53615e-21 -1.28647e-06 -7.67149e-22 0)
(2.47054e-06 -4.9741e-07 7.49911e-22 -1.25644e-06 3.72856e-22 0)
(2.44041e-06 -4.55971e-07 2.12268e-21 -1.22833e-06 1.36544e-21 0)
(2.41349e-06 -4.16673e-07 -3.41519e-21 -1.20287e-06 -2.29241e-21 0)
(2.39162e-06 -3.78785e-07 -2.10654e-21 -1.18027e-06 -1.38725e-21 0)
(2.37325e-06 -3.42728e-07 3.30633e-21 -1.16059e-06 2.2384e-21 0)
(2.3586e-06 -3.08359e-07 -1.3482e-21 -1.1439e-06 -6.4469e-22 0)
(2.34705e-06 -2.75624e-07 1.78719e-21 -1.13012e-06 1.82983e-21 0)
(2.33841e-06 -2.44333e-07 1.92374e-21 -1.11918e-06 1.25312e-21 0)
(2.33232e-06 -2.14205e-07 -1.12354e-21 -1.11089e-06 -1.56299e-21 0)
(2.32848e-06 -1.84887e-07 -7.32031e-22 -1.10503e-06 3.79841e-22 0)
(2.32653e-06 -1.55794e-07 3.47278e-23 -1.10124e-06 3.2025e-23 0)
(2.32595e-06 -1.26354e-07 -2.96911e-21 -1.09898e-06 -2.47011e-21 0)
(2.32633e-06 -9.51136e-08 5.89717e-22 -1.09761e-06 6.62175e-22 0)
(2.32659e-06 -6.1863e-08 1.16872e-21 -1.0961e-06 9.14245e-22 0)
(2.32643e-06 -2.03877e-08 1.918e-20 -1.0932e-06 7.08232e-22 -1.71531e-37)
(2.95864e-06 -6.12504e-07 5.77532e-24 -1.53853e-06 1.96583e-23 0)
(2.8515e-06 -5.99661e-07 -6.87372e-22 -1.50883e-06 -6.04425e-22 0)
(2.78749e-06 -5.59149e-07 1.47285e-22 -1.46374e-06 -1.60153e-22 0)
(2.71261e-06 -5.31321e-07 0 -1.42464e-06 0 0)
(2.6561e-06 -4.95892e-07 0 -1.38476e-06 0 0)
(2.60089e-06 -4.62666e-07 -2.05817e-21 -1.34675e-06 -1.61085e-21 0)
(2.55495e-06 -4.28494e-07 1.83141e-21 -1.31109e-06 1.70695e-21 0)
(2.51354e-06 -3.95033e-07 3.86089e-21 -1.27798e-06 3.36555e-21 0)
(2.47824e-06 -3.62153e-07 -2.92068e-21 -1.24794e-06 -2.80363e-21 0)
(2.44767e-06 -3.30181e-07 -2.55818e-21 -1.2211e-06 -2.17746e-21 0)
(2.4219e-06 -2.99227e-07 1.17989e-21 -1.19768e-06 1.17279e-21 0)
(2.40035e-06 -2.69326e-07 -1.15078e-22 -1.17775e-06 2.32382e-22 0)
(2.3828e-06 -2.40418e-07 2.01812e-21 -1.16132e-06 9.97318e-22 0)
(2.36887e-06 -2.12295e-07 3.14409e-21 -1.14835e-06 2.17432e-21 0)
(2.35827e-06 -1.84653e-07 4.29239e-23 -1.13873e-06 3.92056e-23 0)
(2.35064e-06 -1.56884e-07 1.42936e-21 -1.13226e-06 -3.90835e-22 0)
(2.34569e-06 -1.28388e-07 0 -1.1287e-06 0 0)
(2.34294e-06 -9.75286e-08 -1.20409e-21 -1.12767e-06 -5.31855e-22 0)
(2.34217e-06 -6.40921e-08 5.79293e-22 -1.12881e-06 2.45198e-22 0)
(2.34253e-06 -2.13546e-08 2.14475e-20 -1.13134e-06 1.20383e-21 -4.8009e-37)
(3.16618e-06 -4.6787e-07 -4.52538e-24 -1.6323e-06 -1.71945e-23 0)
(3.03472e-06 -4.84211e-07 8.53049e-22 -1.60134e-06 5.09699e-22 0)
(2.9575e-06 -4.63888e-07 -8.48468e-22 -1.55977e-06 -5.16624e-22 0)
(2.86583e-06 -4.50633e-07 -8.35071e-22 -1.51541e-06 -5.03153e-22 0)
(2.79309e-06 -4.29605e-07 2.29282e-21 -1.47103e-06 1.56356e-21 0)
(2.72323e-06 -4.06434e-07 1.63327e-21 -1.42647e-06 9.74856e-22 0)
(2.66285e-06 -3.81185e-07 -2.16944e-21 -1.38419e-06 -1.45162e-21 0)
(2.60848e-06 -3.54817e-07 2.87889e-22 -1.34444e-06 -3.0507e-22 0)
(2.56094e-06 -3.28059e-07 4.92634e-22 -1.30794e-06 4.56649e-22 0)
(2.51921e-06 -3.01315e-07 -2.6693e-22 -1.27498e-06 3.59732e-22 0)
(2.48312e-06 -2.7493e-07 -2.20233e-21 -1.24579e-06 -1.2075e-21 0)
(2.45218e-06 -2.49053e-07 1.97171e-23 -1.22054e-06 1.90108e-23 0)
(2.42612e-06 -2.23727e-07 -1.00824e-21 -1.19934e-06 -1.37085e-21 0)
(2.40457e-06 -1.98822e-07 -3.40452e-23 -1.18225e-06 -3.11292e-23 0)
(2.38733e-06 -1.74087e-07 1.28629e-21 -1.16931e-06 6.2637e-22 0)
(2.37405e-06 -1.48941e-07 -2.56675e-23 -1.16053e-06 -2.24242e-23 0)
(2.36472e-06 -1.22795e-07 1.56971e-21 -1.15595e-06 2.10331e-21 0)
(2.35884e-06 -9.3978e-08 -5.92162e-22 -1.15558e-06 -2.65017e-22 0)
(2.35713e-06 -6.22699e-08 -2.77603e-21 -1.15972e-06 -2.74643e-21 0)
(2.35809e-06 -2.09107e-08 1.91903e-20 -1.16817e-06 -1.01264e-21 -3.8024e-35)
(3.33142e-06 -2.82326e-07 -1.08759e-22 -1.69335e-06 -5.4833e-23 0)
(3.19522e-06 -3.18098e-07 -9.14577e-22 -1.65541e-06 -5.3905e-22 0)
(3.10698e-06 -3.26523e-07 7.42667e-22 -1.62671e-06 5.82933e-22 0)
(3.00885e-06 -3.2994e-07 -1.944e-21 -1.58632e-06 -1.76948e-21 0)
(2.92294e-06 -3.28302e-07 -1.99995e-21 -1.5443e-06 -1.66199e-21 0)
(2.84176e-06 -3.20809e-07 1.18349e-21 -1.49933e-06 1.2215e-21 0)
(2.76837e-06 -3.09245e-07 1.02888e-21 -1.45405e-06 1.22587e-21 0)
(2.70178e-06 -2.94293e-07 1.79282e-21 -1.40984e-06 1.61514e-21 0)
(2.64233e-06 -2.76992e-07 -2.10322e-21 -1.36787e-06 -1.56982e-21 0)
(2.58953e-06 -2.58124e-07 5.20723e-24 -1.32901e-06 4.30719e-23 0)
(2.54317e-06 -2.38314e-07 -2.56036e-23 -1.29384e-06 -1.28422e-22 0)
(2.50284e-06 -2.18012e-07 -1.64513e-21 -1.26282e-06 -1.60735e-21 0)
(2.46825e-06 -1.97487e-07 0 -1.23626e-06 0 0)
(2.43905e-06 -1.76801e-07 -1.48969e-21 -1.21443e-06 -4.84298e-22 0)
(2.41509e-06 -1.55854e-07 -6.989e-24 -1.19757e-06 -2.96677e-23 0)
(2.39605e-06 -1.34199e-07 -1.9235e-21 -1.18592e-06 -9.36632e-22 0)
(2.38221e-06 -1.11333e-07 5.27146e-22 -1.17989e-06 5.55882e-22 0)
(2.37306e-06 -8.57127e-08 1.21305e-21 -1.17984e-06 5.55225e-22 0)
(2.37033e-06 -5.71414e-08 1.50733e-23 -1.18684e-06 -1.22644e-24 0)
(2.37194e-06 -1.92681e-08 2.07388e-20 -1.20129e-06 -1.18099e-22 -1.67654e-37)
(3.41235e-06 -1.29498e-07 9.41142e-22 -1.69873e-06 8.27751e-22 0)
(3.2882e-06 -1.48612e-07 -8.70388e-22 -1.66681e-06 -5.47129e-22 0)
(3.1928e-06 -1.83875e-07 -5.04387e-22 -1.64668e-06 -4.18512e-22 0)
(3.09539e-06 -2.00594e-07 8.36333e-22 -1.6139e-06 5.11213e-22 0)
(3.00519e-06 -2.12362e-07 -1.65283e-21 -1.57549e-06 -7.51374e-22 0)
(2.91959e-06 -2.17638e-07 -1.11468e-21 -1.53337e-06 -5.26668e-22 0)
(2.84067e-06 -2.17799e-07 -1.38999e-21 -1.48928e-06 -1.00838e-21 0)
(2.7679e-06 -2.13756e-07 1.67267e-22 -1.44512e-06 -1.16291e-22 0)
(2.70188e-06 -2.06313e-07 2.80948e-21 -1.40218e-06 1.79065e-21 0)
(2.64236e-06 -1.96315e-07 -9.66694e-23 -1.36162e-06 -1.03871e-22 0)
(2.58933e-06 -1.84419e-07 1.50151e-21 -1.32425e-06 8.50449e-22 0)
(2.54254e-06 -1.71175e-07 -7.4121e-23 -1.29074e-06 -8.39129e-23 0)
(2.50182e-06 -1.56965e-07 5.48905e-36 -1.26163e-06 5.57143e-36 0)
(2.46694e-06 -1.41984e-07 -6.60048e-22 -1.23738e-06 -3.28931e-22 0)
(2.43786e-06 -1.26265e-07 6.45218e-22 -1.21846e-06 3.14253e-22 0)
(2.41436e-06 -1.09537e-07 -2.89963e-23 -1.20534e-06 -4.18401e-23 0)
(2.39698e-06 -9.14453e-08 1.02319e-22 -1.19875e-06 -2.72023e-22 0)
(2.38521e-06 -7.07927e-08 5.8603e-24 -1.1994e-06 1.94165e-23 0)
(2.38158e-06 -4.74418e-08 -5.95509e-24 -1.20897e-06 7.73321e-24 0)
(2.38351e-06 -1.59974e-08 2.26257e-20 -1.22847e-06 1.154e-22 2.01649e-37)
(3.34495e-06 2.04792e-08 8.7395e-22 -1.63703e-06 6.90907e-22 0)
(3.26212e-06 -1.47744e-09 0 -1.64607e-06 0 0)
(3.17578e-06 -4.4514e-08 -6.81771e-22 -1.63058e-06 -6.0045e-22 0)
(3.08942e-06 -7.27451e-08 8.91141e-36 -1.6057e-06 7.21181e-36 0)
(3.00708e-06 -9.49718e-08 2.04222e-36 -1.57283e-06 1.481e-36 0)
(2.92757e-06 -1.10702e-07 9.68544e-36 -1.5353e-06 7.2002e-36 0)
(2.85297e-06 -1.20856e-07 1.48573e-35 -1.49489e-06 1.20001e-35 0)
(2.78297e-06 -1.26357e-07 -5.97443e-22 -1.45351e-06 -5.59604e-22 0)
(2.71844e-06 -1.27924e-07 0 -1.41258e-06 0 0)
(2.65935e-06 -1.2636e-07 5.70903e-22 -1.37332e-06 5.5293e-22 0)
(2.60594e-06 -1.22298e-07 -8.178e-37 -1.3367e-06 -1.37207e-36 0)
(2.55816e-06 -1.16302e-07 -5.49181e-22 -1.30351e-06 -5.50732e-22 0)
(2.51607e-06 -1.08782e-07 5.40145e-22 -1.27443e-06 5.51043e-22 0)
(2.47957e-06 -1.00015e-07 7.75599e-36 -1.25006e-06 5.64815e-36 0)
(2.44883e-06 -9.0106e-08 -5.25709e-22 -1.23103e-06 -5.54172e-22 0)
(2.42375e-06 -7.89718e-08 -4.66016e-36 -1.21801e-06 -4.30682e-36 0)
(2.40512e-06 -6.63653e-08 5.16327e-22 -1.21194e-06 5.6074e-22 0)
(2.39251e-06 -5.1538e-08 5.1362e-22 -1.21373e-06 5.65637e-22 0)
(2.38906e-06 -3.45103e-08 -5.54355e-36 -1.2256e-06 -4.83321e-36 0)
(2.39184e-06 -1.15176e-08 2.3251e-20 -1.24868e-06 -4.90784e-36 -1.3716e-49)