/*--------------------------------*- C++ -*----------------------------------*\
  =========                 |
  \\      /  F ield         | OpenFOAM: The Open Source CFD Toolbox
   \\    /   O peration     | Website:  https://openfoam.org
    \\  /    A nd           | Version:  9
     \\/     M anipulation  |
\*---------------------------------------------------------------------------*/
FoamFile
{
    format      ascii;
    class       volSymmTensorField;
    location    "5";
    object      sigma;
}
// * * * * * * * * * * * * * * * * * * * * * * * * * * * * * * * * * * * * * //

dimensions      [1 -1 -2 0 0 0 0];

internalField   nonuniform List<symmTensor> 
1000
(
(614939 -420868 -2.26297e-10 357263 -3.08579e-10 86377)
(721354 -324562 -1.82725e-10 195112 -2.40845e-10 84832.2)
(774842 -248591 -1.42593e-10 118709 -1.88272e-10 84618.6)
(797483 -191299 -1.0978e-10 58682.6 -1.45088e-10 80678.1)
(805766 -145222 -8.12634e-11 23599.8 -1.09875e-10 77181.5)
(802402 -109204 -6.0315e-11 -2575.88 -8.33276e-11 74118.4)
(794309 -79934.9 -4.38965e-11 -19428.2 -6.27211e-11 71935.9)
(781821 -56666.3 -3.16538e-11 -31615.1 -4.69919e-11 70055.3)
(768952 -37324.7 -2.17554e-11 -39623.5 -3.43741e-11 68643.7)
(751911 -21236.5 -1.44502e-11 -47304.7 -2.42976e-11 67019.6)
(779741 -467925 -2.47459e-10 360429 -3.40301e-10 102086)
(849964 -334992 -1.8139e-10 205694 -2.4798e-10 97875.2)
(878635 -239037 -1.25283e-10 136126 -1.78734e-10 94140.6)
(881361 -170088 -8.41244e-11 79189.7 -1.26346e-10 87846.8)
(874282 -117520 -5.3656e-11 46823.8 -8.84604e-11 84027.1)
(858325 -78205.1 -3.2402e-11 21738.1 -6.09281e-11 80522.2)
(839962 -47508.3 -1.65182e-11 5647.44 -4.03363e-11 77945.1)
(818983 -24176.9 -5.45085e-12 -7067.94 -2.52237e-11 75571.7)
(798200 -5266.5 3.07506e-12 -14795.8 -1.35939e-11 73794.3)
(775244 9863.29 8.85866e-12 -25273.5 -4.32715e-12 71496.6)
(957259 -497638 -2.59296e-10 347124 -3.60036e-10 117868)
(980960 -334570 -1.67489e-10 211492 -2.41924e-10 107714)
(979224 -222485 -1.00212e-10 155123 -1.61479e-10 101883)
(958613 -144399 -5.64444e-11 105037 -1.05825e-10 95442.6)
(934142 -87238.9 -2.5411e-11 77636.8 -6.69552e-11 91463.7)
(904380 -46053.1 -4.85795e-12 54988.5 -3.96385e-11 87611.6)
(875180 -15115.1 9.7053e-12 40532.7 -1.99947e-11 84708.2)
(845311 7479.06 1.90687e-11 27951.4 -6.13781e-12 81896.8)
(817302 25042.7 2.57534e-11 20545.9 3.95273e-12 79780.6)
(788151 39315.4 3.00763e-11 8394.92 1.23224e-11 76942.8)
(1.14172e+06 -505805 -2.47241e-10 319938 -3.54017e-10 127441)
(1.11142e+06 -321965 -1.4125e-10 213162 -2.22738e-10 114640)
(1.07508e+06 -199189 -7.15837e-11 175478 -1.40328e-10 109661)
(1.02835e+06 -115481 -2.76662e-11 135487 -8.43427e-11 103307)
(984814 -56236.6 2.2063e-12 114854 -4.64941e-11 99284.1)
(940402 -14934.5 2.0883e-11 95546.6 -2.07286e-11 95135.2)
(899972 14929.2 3.3263e-11 82967.8 -2.96364e-12 91898.7)
(861412 35953.9 4.04394e-11 70673.6 9.08659e-12 88667.2)
(826427 51455.7 4.48577e-11 63068.5 1.72472e-11 86146.5)
(792154 64075.9 4.74047e-11 50018.9 2.41954e-11 82912.1)
(1.32487e+06 -488578 -2.12066e-10 282216 -3.22748e-10 131944)
(1.23753e+06 -295444 -1.07114e-10 211562 -1.94348e-10 121121)
(1.16398e+06 -168791 -3.94897e-11 197125 -1.15222e-10 117360)
(1.0893e+06 -83957 1.62865e-12 169947 -6.23458e-11 111291)
(1.02567e+06 -25885.9 2.82259e-11 157570 -2.79321e-11 107320)
(966257 13232.7 4.35738e-11 142282 -5.34653e-12 102912)
(914737 40356.9 5.27635e-11 131703 9.43723e-12 99341.6)
(867879 58670.3 5.73898e-11 119649 1.92346e-11 95541.5)
(826635 71272.7 6.21467e-11 111342 2.78532e-11 91043.7)
(787890 81545.6 6.47517e-11 97398 3.49928e-11 86341.3)
(1.50258e+06 -445018 -1.61498e-10 239862 -2.74003e-10 135946)
(1.3575e+06 -253894 -6.45416e-11 209610 -1.56506e-10 127462)
(1.24536e+06 -130855 -3.68053e-12 221817 -8.61268e-11 125186)
(1.14137e+06 -50428.9 3.10674e-11 208926 -4.03019e-11 119446)
(1.05704e+06 2494.24 5.18604e-11 205323 -1.20604e-11 115508)
(982700 36689 6.21884e-11 193904 5.55946e-12 110786)
(920564 59248.8 6.96307e-11 184840 1.85963e-11 105546)
(866132 73677.5 7.43272e-11 172588 2.85043e-11 99497.5)
(819456 82714.6 7.63574e-11 162946 3.4734e-11 94355.7)
(777050 90093.5 7.6798e-11 147994 3.99335e-11 89208)
(1.66373e+06 -372340 -9.5219e-11 197535 -2.07425e-10 139537)
(1.46565e+06 -194213 -1.23018e-11 210509 -1.08017e-10 133841)
(1.31404e+06 -84258.6 3.58912e-11 251876 -5.30068e-11 133198)
(1.1807e+06 -15262.3 5.99081e-11 253185 -1.88668e-11 127674)
(1.07656e+06 27583.9 7.19304e-11 257285 1.45644e-13 123604)
(988716 53637.2 7.84877e-11 248410 1.38145e-11 116867)
(917523 69730.6 8.38838e-11 239581 2.47802e-11 109486)
(856982 79222 8.49801e-11 226219 3.1369e-11 102738)
(806182 84274.3 8.39715e-11 214451 3.49405e-11 97014.3)
(761083 88478.7 8.20748e-11 198193 3.80159e-11 91489.5)
(1.81915e+06 -270304 -1.112e-11 168053 -1.23426e-10 144929)
(1.56311e+06 -113338 5.20618e-11 225969 -4.81182e-11 141881)
(1.36998e+06 -28297.7 7.99631e-11 296358 -1.64511e-11 142582)
(1.2082e+06 19547.2 8.7201e-11 307353 1.81918e-13 136595)
(1.08606e+06 46690.1 8.83344e-11 314604 8.10604e-12 131172)
(987146 61595 9.14281e-11 304681 1.82698e-11 121048)
(909085 70000.5 9.12496e-11 293406 2.40806e-11 112776)
(844311 74226.3 8.84018e-11 277314 2.71559e-11 105381)
(790865 75589.6 8.44744e-11 262422 2.82855e-11 99143.7)
(744151 76913.6 8.04319e-11 244498 2.94425e-11 93319.2)
(1.94874e+06 -126220 9.6376e-11 167226 -1.71542e-11 153355)
(1.6292e+06 -11035.5 1.26484e-10 276526 1.92113e-11 153222)
(1.39288e+06 29469.3 1.21356e-10 365849 1.55995e-11 153593)
(1.20909e+06 44618.3 1.05133e-10 373817 9.11682e-12 145645)
(1.07735e+06 52166.7 9.97755e-11 373956 1.08319e-11 134889)
(973970 54720.6 9.37916e-11 356911 1.27697e-11 123718)
(893888 55969.9 8.81063e-11 339565 1.38459e-11 114745)
(828088 55936.1 8.18753e-11 319051 1.41163e-11 106889)
(774086 54943.4 7.58964e-11 300432 1.37154e-11 100299)
(726991 54436 7.04281e-11 280791 1.36636e-11 94296.1)
(2.11807e+06 113695 2.73135e-10 291873 1.41254e-10 181461)
(1.65904e+06 127030 2.21622e-10 434153 9.46866e-11 177191)
(1.39027e+06 83947.1 1.58668e-10 480664 3.80617e-11 169178)
(1.20085e+06 54466.6 1.19385e-10 458337 1.10874e-11 153139)
(1.06862e+06 42944.4 1.01693e-10 431989 3.65441e-12 138411)
(965800 36508.8 8.79146e-11 400021 -2.34297e-13 126101)
(886279 34193.1 7.85324e-11 372356 -1.39668e-12 116373)
(820824 32836.5 7.07098e-11 346408 -1.93055e-12 108128)
(766904 31771.7 6.4181e-11 324204 -2.32165e-12 101274)
(719632 31045.3 5.84174e-11 303521 -2.50464e-12 95173)
(-2824.06 989.482 -4.01583e-11 -1595.44 -1.82785e-11 2650.16)
(2237.44 -3523.19 -4.25012e-11 305.715 -2.13534e-11 3250.42)
(22618.6 -11079.7 -4.64812e-11 -1136.91 -2.64191e-11 5042.56)
(55241.9 -17127.1 -4.88525e-11 -2328.41 -3.04629e-11 8034.61)
(93152.2 -20856.4 -4.94038e-11 -2947.44 -3.29472e-11 11590.7)
(132939 -22978.7 -4.87956e-11 -3249.06 -3.43504e-11 15360.8)
(171919 -23810.3 -4.73726e-11 -3299.98 -3.48871e-11 19080.8)
(209167 -23874.9 -4.55227e-11 -3162.2 -3.49096e-11 22654.3)
(243313 -23241.4 -4.33949e-11 -3093.76 -3.44618e-11 25930.4)
(275148 -22751.5 -4.14087e-11 -2563.56 -3.41198e-11 29019.5)
(3712.16 -3786.73 -4.26726e-11 -242.963 -2.15215e-11 3348.08)
(30008.8 -20502 -5.01449e-11 12643.9 -3.30011e-11 6738.23)
(68190.5 -38964.6 -5.98757e-11 13198.5 -4.54524e-11 10316.1)
(108705 -53075.9 -6.73678e-11 9210.72 -5.48902e-11 13799.2)
(149439 -61756.3 -7.13773e-11 5379.21 -6.06636e-11 17349.6)
(188154 -66623.7 -7.30146e-11 1910.12 -6.38694e-11 20758.6)
(224056 -68380.5 -7.27047e-11 -754.74 -6.49901e-11 23979.5)
(257282 -68265.3 -7.12316e-11 -2662.05 -6.48604e-11 27013.8)
(286578 -66381 -6.87944e-11 -4299.01 -6.35433e-11 29704)
(314369 -64878.4 -6.6465e-11 -4451.23 -6.25089e-11 32360.7)
(11494.4 -18638.5 -4.98899e-11 12653.3 -3.17546e-11 4979.5)
(57529.7 -51200.6 -6.61965e-11 27239.8 -5.39494e-11 10286.8)
(110262 -74070.1 -7.83541e-11 25255.1 -6.93259e-11 15035.6)
(158702 -89393.8 -8.70384e-11 15478 -7.94832e-11 18828.7)
(203274 -97839.2 -9.1445e-11 6423.84 -8.50105e-11 22350.5)
(242530 -101814 -9.31131e-11 -1457.82 -8.75417e-11 25481.1)
(276998 -102302 -9.2538e-11 -7440.5 -8.77524e-11 28320.4)
(307713 -100674 -9.05714e-11 -11758.2 -8.65635e-11 30940.8)
(333395 -97116.7 -8.74828e-11 -15015.1 -8.40926e-11 33172.6)
(358258 -94124.9 -8.44664e-11 -15959.8 -8.20416e-11 35498.4)
(27583.4 -41915.6 -5.96735e-11 42282.9 -4.79436e-11 8625.32)
(94754.8 -87995.6 -8.50247e-11 46129.7 -7.9078e-11 15051.8)
(159502 -112041 -9.8152e-11 38313.2 -9.51462e-11 20498.8)
(214787 -125525 -1.06187e-10 22428.8 -1.03957e-10 24493.8)
(262596 -131111 -1.0931e-10 8462.72 -1.07472e-10 27969.7)
(302399 -132153 -1.09686e-10 -3640.58 -1.07954e-10 30850.2)
(335633 -129908 -1.07906e-10 -12943.6 -1.06266e-10 33336.2)
(364137 -125746 -1.04804e-10 -19825 -1.03326e-10 35566)
(386440 -119956 -1.00741e-10 -25025.2 -9.93178e-11 37340.9)
(408663 -115060 -9.68098e-11 -27107.9 -9.59642e-11 39339.5)
(55037.7 -74795.6 -7.30416e-11 85653.1 -7.08337e-11 14342.9)
(144705 -128053 -1.05019e-10 66909.7 -1.06433e-10 21157.3)
(219466 -149663 -1.17597e-10 48486.8 -1.20677e-10 26770.8)
(279474 -158648 -1.23639e-10 24818.2 -1.26321e-10 30654)
(328626 -159244 -1.24252e-10 5713.44 -1.26381e-10 33899)
(367627 -155730 -1.22329e-10 -10312.6 -1.23724e-10 36433.3)
(398728 -149581 -1.18578e-10 -22455.1 -1.19355e-10 38523.9)
(424411 -142046 -1.13769e-10 -31412.5 -1.14105e-10 40347.4)
(443042 -133580 -1.08402e-10 -38094.4 -1.08269e-10 41675.1)
(462392 -126379 -1.03262e-10 -40964.9 -1.03348e-10 43353.7)
(97479 -118002 -9.07468e-11 139405 -1.00856e-10 22218.7)
(209022 -168666 -1.24295e-10 90155.2 -1.34193e-10 28821.3)
(291734 -183503 -1.34091e-10 58167.7 -1.43639e-10 34206.5)
(354103 -185689 -1.36911e-10 25917.9 -1.44551e-10 37705.9)
(402492 -179954 -1.34232e-10 1927.91 -1.40258e-10 40546.4)
(438985 -171076 -1.29505e-10 -17479.5 -1.33924e-10 42617.4)
(466671 -160531 -1.23456e-10 -31893.5 -1.26552e-10 44236.4)
(488525 -149332 -1.16735e-10 -42423.9 -1.18806e-10 45597.1)
(502850 -138112 -1.09998e-10 -50262.5 -1.11094e-10 46442.4)
(518708 -128490 -1.03568e-10 -53648.4 -1.04532e-10 47763)
(157875 -171063 -1.13229e-10 197254 -1.37588e-10 32061.4)
(287478 -208218 -1.42068e-10 114241 -1.61242e-10 37908.7)
(375078 -211552 -1.46415e-10 67390.3 -1.62676e-10 42703.7)
(436944 -204642 -1.44747e-10 26205.5 -1.57301e-10 45532.8)
(482244 -191518 -1.38173e-10 -2335.63 -1.47946e-10 47778.5)
(514317 -176841 -1.30391e-10 -24608.4 -1.37654e-10 49245.6)
(537179 -161782 -1.21953e-10 -40688.4 -1.2721e-10 50304.9)
(554024 -146979 -1.13347e-10 -52300 -1.17016e-10 51127)
(563394 -133195 -1.0533e-10 -60852 -1.07563e-10 51460.3)
(574920 -121232 -9.76748e-11 -64540.4 -9.94185e-11 52358.2)
(238930 -232007 -1.39942e-10 253265 -1.79599e-10 43690.4)
(379452 -245160 -1.57514e-10 138252 -1.86519e-10 48300.3)
(467620 -232472 -1.53603e-10 77640 -1.7691e-10 52204.3)
(525644 -214426 -1.46213e-10 28265 -1.63885e-10 54113.4)
(565443 -193194 -1.35305e-10 -4077.66 -1.48999e-10 55595)
(591227 -172647 -1.24425e-10 -28581.8 -1.3471e-10 56327.8)
(607926 -153305 -1.13742e-10 -45833.2 -1.21358e-10 56735.6)
(618689 -135304 -1.03498e-10 -58066.3 -1.08998e-10 56948.9)
(622555 -119403 -9.41715e-11 -67236 -9.78041e-11 56556.1)
(628907 -105415 -8.47374e-11 -70971.5 -8.75908e-11 56586.6)
(342231 -297262 -1.69382e-10 301453 -2.2438e-10 56825.4)
(483659 -277966 -1.69963e-10 160538 -2.08968e-10 59757)
(566843 -245652 -1.55333e-10 89352.8 -1.85939e-10 62504.4)
(617215 -214937 -1.41192e-10 33531.2 -1.6426e-10 63271.4)
(649015 -185215 -1.25661e-10 -1418.69 -1.43602e-10 63843.3)
(666672 -159014 -1.11141e-10 -27436 -1.24853e-10 63381.3)
(676018 -135830 -9.60679e-11 -45200.9 -1.06684e-10 61866.5)
(679601 -115307 -8.32816e-11 -57910.9 -9.13472e-11 60683.3)
(677722 -97832.5 -7.30385e-11 -67263.6 -7.88761e-11 59620.4)
(677851 -82206 -6.35028e-11 -72078.3 -6.79823e-11 59222.2)
(468060 -362091 -1.9918e-10 337201 -2.68657e-10 71171.8)
(598354 -305021 -1.78649e-10 179876 -2.27479e-10 72029.5)
(670062 -250984 -1.51595e-10 103049 -1.89698e-10 73387.6)
(708611 -206848 -1.30055e-10 43469.2 -1.58903e-10 72822.8)
(729788 -168689 -1.07054e-10 7486.53 -1.29948e-10 70948)
(737579 -137248 -8.73841e-11 -19070.5 -1.05436e-10 68328.5)
(738397 -110810 -7.14952e-11 -36857.6 -8.58357e-11 66430.2)
(734106 -88507.5 -5.87064e-11 -49296.1 -7.00218e-11 64913.5)
(726479 -70427.7 -4.89245e-11 -59423.4 -5.75482e-11 63470.6)
(719497 -54746.4 -4.03142e-11 -63007.2 -4.73632e-11 62877.5)
(303607 -21106.7 -3.89344e-11 -2562.93 -3.29916e-11 31752.7)
(328654 -18831.8 -3.61501e-11 -1992.37 -3.14492e-11 34206.8)
(351609 -16854.9 -3.36832e-11 -1585.67 -3.01069e-11 36446.4)
(372224 -15060.9 -3.14649e-11 -1284.73 -2.88876e-11 38452.9)
(390831 -13397.1 -2.94322e-11 -987.082 -2.77577e-11 40266.3)
(407484 -11908.2 -2.76184e-11 -769.872 -2.67453e-11 41885.5)
(422418 -10542.5 -2.59716e-11 -562.22 -2.58176e-11 43338.6)
(435719 -9311.17 -2.44977e-11 -402.246 -2.49802e-11 44631.1)
(447555 -8182.34 -2.31668e-11 -260.697 -2.42132e-11 45781.5)
(458010 -7148.38 -2.19682e-11 -150.26 -2.35102e-11 46796.7)
(467194 -6186.46 -2.08836e-11 -60.3712 -2.28566e-11 47688.2)
(475167 -5282.93 -1.98992e-11 5.30662 -2.22425e-11 48461.7)
(481988 -4420.3 -1.90019e-11 49.7998 -2.16563e-11 49123.2)
(487692 -3585.07 -1.81823e-11 72.418 -2.10895e-11 49675.9)
(492293 -2767.34 -1.74315e-11 72.6835 -2.05344e-11 50121.4)
(495819 -1965.25 -1.67478e-11 53.888 -1.99906e-11 50462.3)
(498257 -1191.08 -1.61389e-11 15.8724 -1.94655e-11 50697.6)
(499711 -488.417 -1.56233e-11 -13.5419 -1.89898e-11 50838.9)
(500184 50.2768 -1.52571e-11 -10.8872 -1.86256e-11 50887.8)
(500138 177.099 -1.51407e-11 259.31 -1.85445e-11 50904.7)
(336734 -60412.2 -6.26869e-11 -5742.22 -5.94584e-11 34430.6)
(355185 -54375 -5.7905e-11 -5598.28 -5.53731e-11 36245.1)
(372976 -49057.8 -5.3566e-11 -5123.03 -5.17794e-11 38017)
(388853 -44097.9 -4.95835e-11 -4881.61 -4.84245e-11 39585.8)
(403574 -39449.9 -4.5827e-11 -4428.08 -4.52845e-11 41058.2)
(416815 -35250.5 -4.24526e-11 -4130.22 -4.24459e-11 42374.3)
(428911 -31363.9 -3.93249e-11 -3770.61 -3.98198e-11 43583.6)
(439780 -27834.3 -3.64979e-11 -3498.56 -3.74341e-11 44666.5)
(449596 -24577.8 -3.3899e-11 -3236.16 -3.52335e-11 45646.3)
(458367 -21581.9 -3.15269e-11 -3033.55 -3.32085e-11 46519.8)
(466188 -18789 -2.93358e-11 -2864.61 -3.13207e-11 47298.7)
(473092 -16166.7 -2.73059e-11 -2741.48 -2.95477e-11 47985.2)
(479136 -13671.5 -2.54046e-11 -2651.91 -2.78607e-11 48586)
(484352 -11273.9 -2.36107e-11 -2588.78 -2.62396e-11 49105.1)
(488771 -8950.22 -2.19052e-11 -2534.25 -2.46689e-11 49546.8)
(492434 -6699.09 -2.02793e-11 -2450.63 -2.3148e-11 49917.9)
(495341 -4547.79 -1.87436e-11 -2288.06 -2.16963e-11 50222)
(497578 -2589.6 -1.73351e-11 -1921.01 -2.03786e-11 50476.3)
(499052 -966.973 -1.61262e-11 -1183.58 -1.92941e-11 50683.8)
(499998 -104.609 -1.53128e-11 354.456 -1.87363e-11 50896.8)
(375179 -87432.4 -7.96062e-11 -17667 -7.74844e-11 37029.8)
(386936 -79206.2 -7.37306e-11 -17243 -7.19296e-11 38239.1)
(399595 -71826.5 -6.81862e-11 -15688.3 -6.69643e-11 39615.3)
(410539 -64976.2 -6.3142e-11 -14673.2 -6.23487e-11 40783)
(421234 -58450.3 -5.82538e-11 -13223.2 -5.79594e-11 41958)
(430841 -52527.5 -5.38508e-11 -12108.4 -5.39725e-11 42999.5)
(439902 -46986 -4.97089e-11 -10928.6 -5.02442e-11 43991.4)
(448121 -41923.8 -4.59437e-11 -9959.94 -4.68372e-11 44883.4)
(455714 -37224.2 -4.24509e-11 -9069.86 -4.36737e-11 45707.5)
(462597 -32885.9 -3.92458e-11 -8342.89 -4.07521e-11 46448.8)
(468862 -28836.8 -3.62734e-11 -7736.61 -3.80239e-11 47120)
(474502 -25042.1 -3.35133e-11 -7266.72 -3.54658e-11 47719.4)
(479564 -21449.9 -3.09264e-11 -6909.66 -3.3043e-11 48253.7)
(484069 -18023.7 -2.84864e-11 -6645.78 -3.07312e-11 48726.5)
(488039 -14731.3 -2.61656e-11 -6434.2 -2.8509e-11 49143.3)
(491510 -11560.4 -2.39437e-11 -6198.67 -2.637e-11 49513.4)
(494458 -8519.37 -2.18119e-11 -5829.08 -2.43208e-11 49842.9)
(496941 -5654.98 -1.97649e-11 -5104.93 -2.23972e-11 50153.7)
(498743 -3056.53 -1.78266e-11 -3711.25 -2.06642e-11 50448.7)
(500068 -840.953 -1.59835e-11 -1103.09 -1.92097e-11 50787.9)
(420150 -106492 -9.11152e-11 -29403.9 -9.01346e-11 40318.2)
(424771 -97070 -8.48612e-11 -29142.7 -8.37741e-11 40840)
(432111 -88380 -7.86348e-11 -26760.9 -7.79407e-11 41778.5)
(437732 -80455.2 -7.31153e-11 -25323.9 -7.26097e-11 42476)
(444088 -72741.2 -6.75768e-11 -23068.2 -6.74342e-11 43304.7)
(449677 -65740.2 -6.25999e-11 -21308.4 -6.27323e-11 44017.7)
(455359 -59108.2 -5.78331e-11 -19409.5 -5.82817e-11 44747.9)
(460576 -53021.2 -5.34778e-11 -17809.4 -5.41945e-11 45407.3)
(465622 -47331.4 -4.93989e-11 -16321.1 -5.03736e-11 46039.5)
(470305 -42058.9 -4.56381e-11 -15071.5 -4.68312e-11 46616)
(474720 -37125.7 -4.21323e-11 -14005.5 -4.35151e-11 47150.9)
(478812 -32500.8 -3.88668e-11 -13147.8 -4.04036e-11 47637)
(482613 -28128.2 -3.58021e-11 -12466.2 -3.746e-11 48080.2)
(486116 -23967.8 -3.29077e-11 -11935.5 -3.46571e-11 48482.2)
(489324 -19978.5 -3.01514e-11 -11499.8 -3.19689e-11 48847.5)
(492250 -16130.3 -2.74986e-11 -11063.3 -2.93758e-11 49185.1)
(494831 -12403 -2.49198e-11 -10492.7 -2.68667e-11 49499.1)
(497110 -8771.95 -2.23636e-11 -9538.69 -2.44292e-11 49812.8)
(498778 -5268.9 -1.98199e-11 -7876.09 -2.209e-11 50121.1)
(500099 -1640.24 -1.70303e-11 -4924.51 -1.96871e-11 50495)
(468428 -116351 -9.69288e-11 -43372.5 -9.65337e-11 43811.6)
(465623 -106892 -9.10557e-11 -43328.8 -9.01498e-11 43606.7)
(467741 -97665.2 -8.45905e-11 -39817.4 -8.39754e-11 44135)
(467917 -89543 -7.91509e-11 -37896.5 -7.85224e-11 44349.6)
(469922 -81381.4 -7.34097e-11 -34676 -7.30629e-11 44838.2)
(471387 -74006.8 -6.82917e-11 -32132.2 -6.8124e-11 45218.8)
(473592 -66913.5 -6.32836e-11 -29362 -6.33786e-11 45685.4)
(475675 -60368 -5.86827e-11 -26973.3 -5.89963e-11 46108)
(478028 -54198.9 -5.43298e-11 -24736.2 -5.48662e-11 46542.5)
(480350 -48451.4 -5.02906e-11 -22819 -5.10151e-11 46947)
(482739 -43051.6 -4.65061e-11 -21164.6 -4.73945e-11 47335.7)
(485091 -37976.1 -4.29716e-11 -19805.9 -4.39882e-11 47696.3)
(487420 -33171.4 -3.96478e-11 -18710.7 -4.07604e-11 48032.9)
(489690 -28593.6 -3.65048e-11 -17851.3 -3.76823e-11 48344.6)
(491884 -24193.6 -3.35027e-11 -17167 -3.47211e-11 48634.5)
(493990 -19916.8 -3.05931e-11 -16558.6 -3.18417e-11 48909.5)
(495923 -15713.4 -2.77315e-11 -15889 -2.90133e-11 49172)
(497706 -11478.8 -2.48148e-11 -14916.8 -2.61689e-11 49443.4)
(499009 -7209.86 -2.18157e-11 -13353 -2.33112e-11 49714.1)
(500107 -2342.64 -1.82865e-11 -10651.1 -2.00682e-11 50055.7)
(519168 -117519 -9.69125e-11 -56026.4 -9.70849e-11 47695.8)
(508622 -109246 -9.22939e-11 -56777.7 -9.14935e-11 46682.2)
(505628 -100224 -8.60771e-11 -52285.9 -8.54764e-11 46794.8)
(500251 -92705.5 -8.1269e-11 -50150 -8.0438e-11 46490.6)
(497898 -84762.1 -7.57801e-11 -46180.3 -7.51408e-11 46617.9)
(495178 -77612.5 -7.09262e-11 -43006.5 -7.03669e-11 46644.5)
(493829 -70608.5 -6.60511e-11 -39516.1 -6.56954e-11 46825.6)
(492692 -64091.3 -6.15311e-11 -36430 -6.13457e-11 46992.9)
(492235 -57891.9 -5.72035e-11 -33512.7 -5.72079e-11 47210.5)
(492071 -52070.1 -5.31516e-11 -30955.5 -5.33186e-11 47426.3)
(492287 -46568.3 -4.93293e-11 -28715.9 -4.96401e-11 47652.3)
(492742 -41368.8 -4.57378e-11 -26838.7 -4.61598e-11 47871.7)
(493426 -36427.3 -4.23474e-11 -25304 -4.28479e-11 48085.3)
(494280 -31698.4 -3.91296e-11 -24094.5 -3.9674e-11 48289)
(495264 -27128 -3.60446e-11 -23160.1 -3.66026e-11 48483.3)
(496346 -22640.6 -3.30351e-11 -22417.6 -3.35843e-11 48671.7)
(497432 -18164.4 -3.00429e-11 -21752.1 -3.05719e-11 48854.7)
(498521 -13525.7 -2.69296e-11 -20966.5 -2.7452e-11 49048.1)
(499336 -8701.12 -2.36646e-11 -19836.5 -2.42122e-11 49242.6)
(500083 -2889.62 -1.96625e-11 -17908.1 -2.03193e-11 49497.7)
(569956 -109993 -9.10794e-11 -66616.4 -9.17994e-11 51796.7)
(551701 -104229 -8.86505e-11 -68847.2 -8.78827e-11 49917.1)
(543967 -96184.9 -8.32092e-11 -63758.6 -8.25386e-11 49615.4)
(533202 -90032.3 -7.95429e-11 -61650.6 -7.84253e-11 48785)
(526635 -83019.2 -7.47941e-11 -57237.3 -7.37662e-11 48537)
(519872 -76666.8 -7.05731e-11 -53524.6 -6.95416e-11 48212.8)
(515017 -70290.4 -6.61851e-11 -49414.8 -6.53062e-11 48101.5)
(510714 -64243.5 -6.20284e-11 -45653.4 -6.12874e-11 48014.4)
(507444 -58413 -5.7982e-11 -42077.1 -5.74108e-11 48010.7)
(504779 -52863.8 -5.41396e-11 -38884.2 -5.37175e-11 48033.9)
(502771 -47574 -5.04818e-11 -36066.3 -5.0193e-11 48089.7)
(501259 -42535.6 -4.70197e-11 -33678 -4.6831e-11 48158.7)
(500204 -37718.9 -4.37353e-11 -31717 -4.36114e-11 48237.6)
(499529 -33081.2 -4.06055e-11 -30180 -4.05054e-11 48319.4)
(499179 -28567.8 -3.75945e-11 -29036.2 -3.74768e-11 48401.6)
(499100 -24088.6 -3.46386e-11 -28230.5 -3.44653e-11 48483.8)
(499214 -19555.8 -3.16756e-11 -27681.2 -3.14137e-11 48565.3)
(499483 -14745.8 -2.85471e-11 -27259.5 -2.81725e-11 48653.6)
(499737 -9626.02 -2.52196e-11 -26814.1 -2.47228e-11 48744.3)
(500040 -3240.28 -2.10387e-11 -26041.3 -2.04235e-11 48872.6)
(618733 -94329.5 -7.93772e-11 -73182.1 -8.08721e-11 55947.2)
(593311 -92362 -8.02551e-11 -77562.5 -7.9702e-11 53310.2)
(581286 -86132.7 -7.62278e-11 -72795.2 -7.5581e-11 52562)
(565642 -81857 -7.40301e-11 -70902.9 -7.27346e-11 51236.5)
(555038 -76409.2 -7.05034e-11 -66672.9 -6.91318e-11 50578.3)
(544566 -71300.5 -6.72361e-11 -62796.4 -6.57518e-11 49903.9)
(536319 -66045 -6.37016e-11 -58484.7 -6.22787e-11 49476.3)
(528998 -60898.4 -6.02133e-11 -54334.2 -5.8876e-11 49124.4)
(522966 -55840.6 -5.67337e-11 -50306.1 -5.55302e-11 48885.9)
(517840 -50921.9 -5.33415e-11 -46595.5 -5.22727e-11 48709)
(513611 -46159.6 -5.00554e-11 -43252 -4.91141e-11 48589.1)
(510119 -41558.6 -4.68987e-11 -40358.9 -4.60568e-11 48504.3)
(507297 -37110.2 -4.38741e-11 -37950.9 -4.30943e-11 48445.8)
(505050 -32781.8 -4.09694e-11 -36057.1 -4.02041e-11 48402.3)
(503313 -28527.1 -3.81597e-11 -34680.8 -3.73547e-11 48367.9)
(502014 -24252.7 -3.53869e-11 -33811.5 -3.44837e-11 48336.9)
(501100 -19865.6 -3.25899e-11 -33414.8 -3.15283e-11 48307.5)
(500487 -15114.5 -2.96073e-11 -33448.7 -2.83202e-11 48276.5)
(500159 -9966.4 -2.64079e-11 -33836.1 -2.48379e-11 48248.2)
(499976 -3385.81 -2.23272e-11 -34468.7 -2.03847e-11 48224.4)
(663830 -72061.8 -5.92726e-11 -74438.8 -6.21938e-11 58357.4)
(632002 -74577.7 -6.55482e-11 -81296.7 -6.57572e-11 55836)
(616016 -71446.1 -6.57803e-11 -79008.1 -6.53073e-11 55378.1)
(596454 -69414.3 -6.55321e-11 -77643.4 -6.42043e-11 53750.5)
(581993 -66185.5 -6.37036e-11 -74080 -6.20912e-11 52658.6)
(568328 -62626.6 -6.15715e-11 -70137.1 -5.9761e-11 51673.8)
(556953 -58746.8 -5.90519e-11 -65709.6 -5.72205e-11 50947.1)
(546907 -54694 -5.63541e-11 -61269.9 -5.45628e-11 50349.5)
(538323 -50580.2 -5.35561e-11 -56917.7 -5.1861e-11 49885.5)
(530897 -46468.1 -5.07408e-11 -52846 -4.91554e-11 49510.9)
(524555 -42410.4 -4.79573e-11 -49140.7 -4.648e-11 49211.8)
(519144 -38430.2 -4.52428e-11 -45902.4 -4.38487e-11 48965.8)
(514579 -34534.3 -4.26131e-11 -43192.2 -4.1265e-11 48760)
(510757 -30702.4 -4.00714e-11 -41067.6 -3.87148e-11 48580.3)
(507613 -26896.2 -3.75988e-11 -39566 -3.61713e-11 48417.9)
(505058 -23026 -3.51497e-11 -38726 -3.35733e-11 48262)
(503081 -19001.4 -3.267e-11 -38565.9 -3.08596e-11 48110.5)
(501548 -14564.9 -3.00101e-11 -39138.4 -2.78559e-11 47948.6)
(500620 -9682.82 -2.71404e-11 -40445.4 -2.45387e-11 47791.3)
(499914 -3314.18 -2.34363e-11 -42605.3 -2.02038e-11 47599.8)
(701329 -43492.5 -3.61987e-11 -71749.7 -4.04532e-11 60990.2)
(669025 -49000 -4.43486e-11 -77277.8 -4.61873e-11 58575.5)
(648576 -50296.5 -4.8116e-11 -79745.4 -4.84901e-11 57212.4)
(626817 -50820.9 -5.15204e-11 -80198.4 -5.06269e-11 56056.9)
(608534 -50571.8 -5.31201e-11 -78801.1 -5.14553e-11 54937.7)
(591864 -49428 -5.28429e-11 -76059.5 -5.07381e-11 53558.6)
(577330 -47656.6 -5.19203e-11 -72330.4 -4.96119e-11 52463.2)
(564503 -45363 -5.05102e-11 -68106.2 -4.81399e-11 51571.9)
(553341 -42706.8 -4.87544e-11 -63657 -4.6426e-11 50859.5)
(543612 -39808.5 -4.67822e-11 -59277 -4.45465e-11 50280.4)
(535192 -36764.6 -4.46872e-11 -55148 -4.25636e-11 49808.2)
(527916 -33644.1 -4.25454e-11 -51439.3 -4.05213e-11 49414.2)
(521672 -30488.1 -4.04062e-11 -48271.2 -3.84459e-11 49077.8)
(516335 -27307 -3.82972e-11 -45754.1 -3.63424e-11 48778.9)
(511833 -24085 -3.62246e-11 -43973 -3.41986e-11 48504.2)
(508057 -20752.8 -3.41637e-11 -43028.3 -3.19666e-11 48236)
(505032 -17233.8 -3.20761e-11 -42996.7 -2.95928e-11 47971.3)
(502580 -13289.7 -2.98418e-11 -44036.6 -2.69146e-11 47682.6)
(501046 -8890.75 -2.74351e-11 -46233.2 -2.39095e-11 47396.7)
(499824 -3058.27 -2.4316e-11 -49936.7 -1.99117e-11 47035.1)
(722545 -19958.2 -1.83567e-11 -63799.4 -2.40278e-11 63421.2)
(692795 -22900.8 -2.45666e-11 -69554.2 -2.78252e-11 61141.3)
(669420 -28330.8 -3.14148e-11 -75169.6 -3.27418e-11 59163.3)
(646973 -30904.1 -3.62531e-11 -77596.8 -3.6062e-11 57687.3)
(627117 -32714.3 -4.01731e-11 -77670.6 -3.89315e-11 56658.1)
(608927 -33533.5 -4.19111e-11 -76210.8 -3.9993e-11 55280.5)
(592760 -33568 -4.23543e-11 -73449.8 -4.00712e-11 53943.6)
(578260 -32954.5 -4.21981e-11 -69952.4 -3.9723e-11 52826.4)
(565439 -31816.8 -4.15613e-11 -66006.3 -3.90271e-11 51907.3)
(554094 -30284.9 -4.05837e-11 -61946.7 -3.8066e-11 51140.5)
(544130 -28460.2 -3.93661e-11 -57997.3 -3.69044e-11 50499.3)
(535398 -26427.4 -3.8e-11 -54369.1 -3.55963e-11 49952.9)
(527797 -24244.4 -3.65503e-11 -51222.5 -3.41784e-11 49479)
(521206 -21942.3 -3.5064e-11 -48711.9 -3.26691e-11 49053.9)
(515564 -19525.8 -3.35649e-11 -46967.1 -3.10693e-11 48662.3)
(510753 -16953 -3.2056e-11 -46142.5 -2.93486e-11 48281.1)
(506838 -14169.6 -3.05168e-11 -46372.8 -2.74678e-11 47906.7)
(503599 -10990.5 -2.88769e-11 -47904.1 -2.52983e-11 47500.6)
(501524 -7394.81 -2.71216e-11 -50901.4 -2.28229e-11 47096.8)
(499803 -2552.32 -2.48438e-11 -55930.5 -1.94725e-11 46580.3)
(711566 3140.38 -5.28737e-12 -54912.5 -1.07269e-11 64356.4)
(688212 -242.657 -1.10834e-11 -66939.2 -1.3546e-11 61574.2)
(666741 -6869.75 -1.84121e-11 -72758.6 -1.90686e-11 59647.9)
(646351 -11216.2 -2.40887e-11 -76043.6 -2.32866e-11 58138)
(627969 -14637.3 -2.88199e-11 -76704.1 -2.70276e-11 57083.3)
(610885 -17067.5 -3.12927e-11 -75782.2 -2.88808e-11 55604.9)
(595453 -18640.2 -3.27455e-11 -73515 -2.99892e-11 54291.1)
(581377 -19495.6 -3.35629e-11 -70452.1 -3.06254e-11 53172)
(568722 -19745.2 -3.3851e-11 -66875.6 -3.086e-11 52231.9)
(557338 -19511.9 -3.37434e-11 -63122.1 -3.07708e-11 51429.8)
(547183 -18893.1 -3.33366e-11 -59419.9 -3.04196e-11 50743.9)
(538148 -17976.2 -3.27231e-11 -55992.1 -2.98618e-11 50146.1)
(530170 -16823.8 -3.19706e-11 -53014.4 -2.91373e-11 49616.8)
(523156 -15478.4 -3.11356e-11 -50660.5 -2.82716e-11 49133.4)
(517076 -13956.4 -3.02511e-11 -49082.5 -2.72736e-11 48681.4)
(511829 -12245.2 -2.93404e-11 -48467 -2.61312e-11 48237.1)
(507517 -10306.4 -2.83979e-11 -48981 -2.48163e-11 47797.8)
(503918 -8024.65 -2.74038e-11 -50921.9 -2.32463e-11 47320.2)
(501624 -5402.54 -2.63629e-11 -54518.3 -2.14189e-11 46843.7)
(499715 -1861.01 -2.50441e-11 -60419 -1.89326e-11 46234.6)
(703268 26307.1 8.25711e-12 -44414.2 2.65991e-12 65636.5)
(681762 20986.8 1.455e-12 -58382.9 -1.05766e-12 62666.4)
(663583 13173.6 -6.19275e-12 -65597.5 -6.92327e-12 60706.6)
(644803 7397.94 -1.25802e-11 -70387 -1.17751e-11 59061.2)
(627898 2616.25 -1.74447e-11 -72320.8 -1.56361e-11 57620.9)
(611713 -1191.35 -2.07079e-11 -72543.8 -1.82136e-11 56031.4)
(596942 -4099.84 -2.31131e-11 -71238.6 -2.02077e-11 54699)
(583244 -6261.16 -2.48552e-11 -68987 -2.17121e-11 53546.1)
(570790 -7762.58 -2.6022e-11 -66069.5 -2.27813e-11 52567.1)
(559447 -8721.03 -2.6744e-11 -62844 -2.34882e-11 51721.2)
(549220 -9225.65 -2.71132e-11 -59556.4 -2.38886e-11 50989.8)
(540025 -9362.36 -2.72228e-11 -56453.1 -2.40371e-11 50345.3)
(531826 -9197.05 -2.71447e-11 -53732.7 -2.39751e-11 49768.9)
(524551 -8782.24 -2.69439e-11 -51593.7 -2.37342e-11 49238.3)
(518185 -8147.46 -2.6666e-11 -50217.8 -2.33319e-11 48737.9)
(512654 -7307.68 -2.63535e-11 -49815.3 -2.2775e-11 48244.8)
(508074 -6244.32 -2.60189e-11 -50600.2 -2.2047e-11 47753.6)
(504233 -4928.13 -2.56965e-11 -52868.1 -2.11236e-11 47222)
(501798 -3345.59 -2.5382e-11 -56879.9 -1.99915e-11 46693.9)
(499697 -1155.27 -2.50248e-11 -63439.6 -1.84071e-11 46007.6)
(688691 44258 1.76281e-11 -35602.3 1.2264e-11 66308.7)
(670066 38821.5 1.11057e-11 -51148.7 8.89685e-12 63275.9)
(654959 30647.4 3.63694e-12 -59235.8 3.15379e-12 61351.1)
(638284 24192.5 -2.18353e-12 -65019.5 -1.17997e-12 59307)
(623252 18520.6 -6.93921e-12 -67831.2 -4.97333e-12 57619)
(608460 13728.9 -1.08742e-11 -68870.6 -8.20098e-12 56094.3)
(594812 9770.28 -1.39933e-11 -68299.7 -1.08917e-11 54806.9)
(581951 6538.25 -1.64669e-11 -66703.7 -1.31081e-11 53677.4)
(570120 3967.6 -1.83625e-11 -64359.2 -1.48895e-11 52707.6)
(559215 1962.36 -1.97972e-11 -61627.3 -1.62944e-11 51859.4)
(549280 445.978 -2.08536e-11 -58757.7 -1.73712e-11 51117.6)
(540258 -660.542 -2.16199e-11 -56006.2 -1.81687e-11 50456.9)
(532143 -1422.28 -2.21686e-11 -53579.9 -1.87277e-11 49860.2)
(524884 -1899.9 -2.25693e-11 -51692.7 -1.90853e-11 49306.3)
(518487 -2131.09 -2.28739e-11 -50533.6 -1.92644e-11 48781)
(512900 -2169.71 -2.3152e-11 -50341.4 -1.92972e-11 48260.9)
(508239 -1986.63 -2.34086e-11 -51319.6 -1.91604e-11 47741.7)
(504355 -1687.81 -2.37658e-11 -53806.4 -1.89205e-11 47182.9)
(501878 -1134.42 -2.41568e-11 -58177 -1.84773e-11 46616.8)
(499685 -372.419 -2.47594e-11 -65078.5 -1.78516e-11 45886.8)
(670345 59162.8 2.70386e-11 -26878.5 2.18307e-11 65498.2)
(654648 53656.1 2.0462e-11 -43061.6 1.83663e-11 62730.2)
(642604 45533.2 1.34702e-11 -51727.9 1.30153e-11 60867.1)
(628233 38785.6 7.51776e-12 -58397.9 8.55877e-12 58941.9)
(615281 32604.7 2.42317e-12 -62057.1 4.43731e-12 57385.1)
(602127 27166.7 -1.95954e-12 -63948 7.88104e-13 55948.3)
(589864 22452.5 -5.59959e-12 -64156.2 -2.39931e-12 54729.3)
(578110 18401.5 -8.6386e-12 -63271.5 -5.1561e-12 53646.4)
(567183 14973.7 -1.11213e-11 -61554.2 -7.50527e-12 52709.9)
(556993 12098.8 -1.3151e-11 -59369.8 -9.48868e-12 51883)
(547626 9714.69 -1.47959e-11 -56968.7 -1.11431e-11 51154.4)
(539047 7754.76 -1.61386e-11 -54612.7 -1.25103e-11 50500.4)
(531268 6157.12 -1.72474e-11 -52517.5 -1.3628e-11 49905.5)