/*--------------------------------*- C++ -*----------------------------------*\
  =========                 |
  \\      /  F ield         | OpenFOAM: The Open Source CFD Toolbox
   \\    /   O peration     | Website:  https://openfoam.org
    \\  /    A nd           | Version:  9
     \\/     M anipulation  |
\*---------------------------------------------------------------------------*/
FoamFile
{
    format      ascii;
    class       volScalarField;
    location    "5";
    object      sigmaEq;
}
// * * * * * * * * * * * * * * * * * * * * * * * * * * * * * * * * * * * * * //

dimensions      [1 -1 -2 0 0 0 0];

internalField   nonuniform List<scalar> 
1000
(
860795
814338
799645
799903
797505
792408
784435
773916
762990
749532
1.00387e+06
912596
869295
850529
834697
820063
804835
789100
772573
756979
1.14352e+06
1.00922e+06
935067
894107
863008
837367
813880
791873
770074
750936
1.27988e+06
1.10275e+06
995916
931115
883236
845457
812987
784373
757347
734679
1.40802e+06
1.18972e+06
1.0506e+06
961109
895412
844660
802755
767329
736081
710271
1.52663e+06
1.26967e+06
1.09875e+06
984137
900004
835889
785142
743856
708001
678600
1.62913e+06
1.33815e+06
1.13562e+06
996565
894920
819371
761127
714020
674340
641700
1.72743e+06
1.39499e+06
1.15923e+06
997824
881389
797612
733211
681954
639794
604807
1.8018e+06
1.41848e+06
1.14911e+06
972782
853366
766824
701312
649243
606837
570945
1.89409e+06
1.38908e+06
1.10855e+06
938075
826995
744389
681694
630973
589407
553303
5261.95
6629.72
28705.3
60869.9
96718
133952
170241
204886
236702
266276
7573.21
41230.6
88009.4
133846
174968
211773
244170
273345
298487
322324
33068.5
97892.2
157030
209805
254138
291172
321573
347347
367720
387310
78261.7
167544
234142
289617
334032
369712
397673
420313
436692
452849
143605
246775
317199
372700
414778
447339
471756
490659
502997
515704
228803
332455
402174
455431
493583
521862
541957
556614
564820
573900
331847
423232
486969
535515
568403
591533
606752
616786
620814
626030
450116
517953
569895
610846
637104
654344
664359
669560
669713
670941
580150
615567
650055
680299
698418
709121
713968
714431
710838
708125
718357
714842
726760
743041
751848
755339
753956
748860
742322
733925
292827
315804
337065
356266
373628
389233
403241
415752
426897
436760
445433
452974
459436
464849
469227
472594
474937
476340
476787
476579
340727
354526
368413
381221
393249
404363
414629
424016
432578
440317
447277
453473
458933
463674
467703
471033
473628
475491
476427
476388
398454
403528
409913
415891
421988
427912
433737
439313
444660
449697
454429
458820
462866
466551
469853
472748
475134
476925
477712
477348
457862
455452
455239
455018
455530
456391
457759
459391
461329
463423
465660
467958
470285
472587
474805
476876
478641
479975
480376
479729
515298
506579
500668
495040
490599
486825
484027
481866
480446
479567
479222
479293
479732
480454
481376
482402
483349
484073
484081
483290
568664
554697
544005
533735
525068
517206
510704
505085
500541
496829
493957
491794
490284
489330
488838
488701
488743
488822
488543
487819
616573
598396
583985
569799
557685
546289
536538
527813
520404
514057
508794
504485
501071
498453
496540
495227
494374
493848
493414
492945
657851
636390
619516
602048
587274
573055
560640
549322
539417
530713
523240
516901
511648
507398
504080
501602
499886
498815
498351
498306
692976
668184
650408
630520
613585
597051
582265
568708
556615
545857
536443
528302
521396
515660
511051
507500
505004
503464
503067
503546
719949
693714
676054
655630
637233
619416
602803
587351
573250
560519
549192
539250
530676
523432
517507
512857
509557
507540
507224
508288
731901
707245
689089
669437
650620
632446
615284
599104
584130
570421
558059
547063
537457
529235
522432
517036
513203
510886
510691
512249
714371
699801
683094
665810
648714
632004
615952
600601
586205
572852
560668
549706
540031
531677
524717
519182
515284
513014
513112
515165
700666
688618
675336
660180
645154
629893
615001
600514
586763
573852
561949
551137
541515
533148
526143
520569
516681
514483
514799
517176
683410
674715
664312
651467
638488
624753
611167
597735
584842
572607
561226
550806
541470
533309
526449
521000
517204
515154
515710
518268
663889
657887
650243
639668
628760
616754
604677
592509
580687
569340
558693
548871
540016
532242
525671
520483
516776
515094
514943
518417
642816
639297
634103
625703
616790
606538
596026
585226
574605
564298
554552
545500
537303
530076
523981
519126
515811
514117
514768
517252
620591
619216
616201
609873
602882
594395
585492
576143
566826
557684
548971
540832
533432
526892
521371
516974
513985
512410
513003
515332
597670
598149
597067
592656
587468
580698
573392
565529
557579
549689
542115
535002
528518
522778
517937
514079
511459
510084
510595
512593
574293
576332
576937
574279
570773
565663
559937
553579
547043
540474
534124
528133
522665
517827
513756
510522
508332
507168
507566
509171
550583
553935
556008
554947
553011
549497
545322
540476
535388
530195
525137
520348
515980
512129
508913
506381
504681
503781
504063
505217
526540
530994
534351
534754
534298
532330
529691
526370
522762
518996
515291
511774
508579
505793
503506
501747
500605
500020
500210
500916
502077
507478
511984
513760
514726
514282
513180
511410
509323
507035
504743
502559
500601
498943
497649
496731
496213
496012
496165
496461
477015
483274
488852
491964
494345
495442
495915
495746
495240
494493
493676
492884
492220
491741
491492
491467
491636
491889
492088
492051
451135
458245
464894
469376
473224
475930
478056
479570
480726
481596
482322
482981
483655
484392
485220
486121
487025
487796
488142
487882
424137
432196
440011
445987
451433
455884
459796
463118
466048
468633
470980
473146
475197
477170
479082
480913
482567
483898
484495
484149
395804
405039
414227
421918
429175
435571
441450
446740
451579
455985
460034
463758
467209
470413
473383
476106
478485
480373
481304
481015
365826
376638
387559
397322
406708
415334
423422
430882
437792
444143
449977
455310
460170
464581
468551
472076
475082
477448
478743
478644
334411
347380
360525
372803
384695
395859
406405
416223
425342
433731
441403
448358
454610
460171
465047
469241
472714
475393
476962
477102
301659
317642
333718
349092
363951
378003
391266
403623
415071
425568
435112
443694
451312
457963
463639
468337
472022
474693
476208
476481
269821
289659
309273
328129
346226
363300
379335
394215
407932
420449
431766
441870
450755
458400
464770
469832
473512
475842
476760
476659
522806
539935
572587
609170
646799
679997
706462
724664
734657
733430
494748
510878
541588
577022
615023
650405
680816
703581
718563
721839
469454
484765
513470
546874
583416
618314
649622
675182
694662
706215
446268
461071
488279
520084
555490
590018
621716
648548
669532
685351
424509
438879
464673
494749
528622
562245
593834
621833
644172
663214
404055
418146
442831
471433
503851
536382
567259
595482
618190
639351
384502
398357
422059
449286
480266
511647
541693
569883
592636
614828
365755
379414
402285
428285
457893
488046
517051
544805
567355
589982
347625
361078
383190
408058
436366
465297
493228
520330
542514
565091
330057
343266
364653
388444
415490
443169
469973
496243
517968
540217
313006
325886
346515
369224
395014
421418
447070
472384
493572
515307
296505
308922
328684
350232
374706
399768
424224
448488
469084
490205
280673
292410
311071
331268
354284
377899
401095
424238
444200
464662
265736
276438
293605
312136
333456
355462
377307
399267
418574
438378
252158
261201
276144
292468
311719
331911
352311
373064
391743
410956
240599
246788
258440
271875
288602
306745
325615
345175
363309
382060
232376
233448
239752
249202
262874
278819
296220
314767
332610
351198
228355
219973
218841
223515
233830
247581
263735
281602
299564
318412
232062
204559
191735
190695
198139
210532
226372
244504
263487
283435
233617
175754
155875
150046
156271
168590
185445
205131
226324
248441
)
;

boundaryField
{
    left
    {
        type            calculated;
        value           nonuniform List<scalar> 
30
(
518282
490328
465122
441978
420276
399892
380448
361859
343954
326695
310052
294080
278918
264822
252288
242188
236219
237303
254222
292785
2.0132e+06
1.35199e+06
1.07199e+06
915486
814192
736270
676066
626335
585212
548937
)
;
    }
    right
    {
        type            calculated;
        value           nonuniform List<scalar> 
30
(
476483
476389
477296
479647
483192
487728
492876
498278
503562
508370
512354
515339
517370
518475
518470
517432
515526
512759
509304
505311
500971
496478
492036
487845
484101
480970
478619
477101
476504
476549
)
;
    }
    down
    {
        type            calculated;
        value           nonuniform List<scalar> 
30
(
4320.81
2846.5
20992.6
52557.8
89018.9
127159
164430
199969
232573
262781
289978
313679
335450
355027
372687
388512
402699
415344
426597
436543
445282
452875
459375
464816
469213
472590
474934
476335
476785
476631
)
;
    }
    up
    {
        type            calculated;
        value           nonuniform List<scalar> 
30
(
226419
173656
155228
149483
155588
167748
184487
204115
225280
247422
268840
288779
308514
327471
345671
362836
378955
393910
407693
420267
431632
441778
450697
458371
464761
469835
473518
475846
476756
476690
)
;
    }
    hole
    {
        type            calculated;
        value           nonuniform List<scalar> 
20
(
855629
1.00295e+06
1.14669e+06
1.28442e+06
1.41638e+06
1.53844e+06
1.64384e+06
1.7452e+06
1.82289e+06
1.91274e+06
3274.52
3271.72
16129.4
56818.1
120445
206288
311430
432824
566605
708929
)
;
    }
    frontAndBack
    {
        type            empty;
    }
}


// ************************************************************************* //
