/*--------------------------------*- C++ -*----------------------------------*\
  =========                 |
  \\      /  F ield         | OpenFOAM: The Open Source CFD Toolbox
   \\    /   O peration     | Website:  https://openfoam.org
    \\  /    A nd           | Version:  9
     \\/     M anipulation  |
\*---------------------------------------------------------------------------*/
FoamFile
{
    format      ascii;
    class       volVectorField;
    location    "15";
    object      D;
}
// * * * * * * * * * * * * * * * * * * * * * * * * * * * * * * * * * * * * * //

dimensions      [0 1 0 0 0 0 0];

internalField   nonuniform List<vector> 
1000
(
(1.0186e-05 3.43631e-06 0)
(9.50288e-06 3.79869e-06 0)
(9.00529e-06 4.10412e-06 0)
(8.64498e-06 4.3421e-06 0)
(8.38751e-06 4.54742e-06 0)
(8.20547e-06 4.7239e-06 0)
(8.08195e-06 4.88285e-06 0)
(8.00317e-06 5.02768e-06 0)
(7.95849e-06 5.16272e-06 0)
(7.94254e-06 5.2906e-06 0)
(9.18504e-06 3.09794e-06 0)
(8.47443e-06 3.3612e-06 0)
(7.96033e-06 3.59422e-06 0)
(7.58907e-06 3.77288e-06 0)
(7.32446e-06 3.92971e-06 0)
(7.13666e-06 4.06436e-06 0)
(7.00783e-06 4.18641e-06 0)
(6.92328e-06 4.29802e-06 0)
(6.87202e-06 4.40157e-06 0)
(6.84642e-06 4.5025e-06 0)
(8.16322e-06 2.756e-06 0)
(7.44418e-06 2.91581e-06 0)
(6.92689e-06 3.07311e-06 0)
(6.55512e-06 3.19222e-06 0)
(6.29136e-06 3.30129e-06 0)
(6.1042e-06 3.39602e-06 0)
(5.97509e-06 3.48359e-06 0)
(5.88888e-06 3.56476e-06 0)
(5.83439e-06 3.63995e-06 0)
(5.8037e-06 3.71517e-06 0)
(7.12563e-06 2.415e-06 0)
(6.4181e-06 2.47213e-06 0)
(5.9121e-06 2.55244e-06 0)
(5.55098e-06 2.61379e-06 0)
(5.29681e-06 2.67746e-06 0)
(5.1172e-06 2.73538e-06 0)
(4.99342e-06 2.79189e-06 0)
(4.91005e-06 2.846e-06 0)
(4.85651e-06 2.8965e-06 0)
(4.82409e-06 2.94891e-06 0)
(6.07781e-06 2.0805e-06 0)
(5.40033e-06 2.04108e-06 0)
(4.91906e-06 2.04553e-06 0)
(4.58155e-06 2.05316e-06 0)
(4.34627e-06 2.07562e-06 0)
(4.18171e-06 2.10148e-06 0)
(4.06885e-06 2.13167e-06 0)
(3.99272e-06 2.16326e-06 0)
(3.94352e-06 2.19356e-06 0)
(3.91231e-06 2.22683e-06 0)
(5.02e-06 1.76216e-06 0)
(4.39014e-06 1.62319e-06 0)
(3.95121e-06 1.56184e-06 0)
(3.65041e-06 1.52259e-06 0)
(3.44421e-06 1.51176e-06 0)
(3.30209e-06 1.51235e-06 0)
(3.20556e-06 1.52262e-06 0)
(3.14063e-06 1.53734e-06 0)
(3.09867e-06 1.5528e-06 0)
(3.071e-06 1.5716e-06 0)
(3.93664e-06 1.46301e-06 0)
(3.38007e-06 1.23051e-06 0)
(3.00796e-06 1.1136e-06 0)
(2.75854e-06 1.03853e-06 0)
(2.59186e-06 1.0044e-06 0)
(2.479e-06 9.88326e-07 0)
(2.4034e-06 9.85954e-07 0)
(2.35275e-06 9.90023e-07 0)
(2.32006e-06 9.96218e-07 0)
(2.2976e-06 1.00546e-06 0)
(2.8527e-06 1.15929e-06 0)
(2.37933e-06 8.59925e-07 0)
(2.09611e-06 7.09886e-07 0)
(1.91121e-06 6.16393e-07 0)
(1.79238e-06 5.72667e-07 0)
(1.71346e-06 5.50293e-07 0)
(1.66144e-06 5.43239e-07 0)
(1.62663e-06 5.42992e-07 0)
(1.60412e-06 5.45282e-07 0)
(1.58785e-06 5.49775e-07 0)
(1.71803e-06 8.33926e-07 0)
(1.38786e-06 5.08488e-07 0)
(1.21377e-06 3.58475e-07 0)
(1.10473e-06 2.73279e-07 0)
(1.03955e-06 2.36587e-07 0)
(9.9672e-07 2.18783e-07 0)
(9.69071e-07 2.13845e-07 0)
(9.50215e-07 2.13936e-07 0)
(9.37775e-07 2.15832e-07 0)
(9.28007e-07 2.18771e-07 0)
(5.88307e-07 4.35531e-07 0)
(4.41737e-07 1.94155e-07 0)
(3.88177e-07 9.53542e-08 0)
(3.58465e-07 5.3029e-08 0)
(3.41089e-07 3.733e-08 0)
(3.29046e-07 3.18031e-08 0)
(3.21083e-07 3.16206e-08 0)
(3.15301e-07 3.32031e-08 0)
(3.11313e-07 3.50898e-08 0)
(3.07825e-07 3.70664e-08 0)
(1.79632e-05 5.57589e-06 0)
(1.79337e-05 6.26931e-06 0)
(1.79131e-05 6.91599e-06 0)
(1.79134e-05 7.50822e-06 0)
(1.79397e-05 8.05177e-06 0)
(1.7994e-05 8.55335e-06 0)
(1.80768e-05 9.02076e-06 0)
(1.81862e-05 9.4608e-06 0)
(1.83214e-05 9.87882e-06 0)
(1.8479e-05 1.02808e-05 0)
(1.73973e-05 5.53006e-06 0)
(1.73174e-05 6.22155e-06 0)
(1.72625e-05 6.8604e-06 0)
(1.72378e-05 7.44079e-06 0)
(1.72458e-05 7.96989e-06 0)
(1.7285e-05 8.45489e-06 0)
(1.73541e-05 8.90425e-06 0)
(1.74498e-05 9.32515e-06 0)
(1.7571e-05 9.72325e-06 0)
(1.77128e-05 1.01053e-05 0)
(1.67978e-05 5.43704e-06 0)
(1.66582e-05 6.12693e-06 0)
(1.65569e-05 6.75286e-06 0)
(1.64954e-05 7.31458e-06 0)
(1.64744e-05 7.82319e-06 0)
(1.64892e-05 8.28683e-06 0)
(1.6537e-05 8.71465e-06 0)
(1.6613e-05 9.11394e-06 0)
(1.67154e-05 9.49046e-06 0)
(1.68375e-05 9.85124e-06 0)
(1.61505e-05 5.30174e-06 0)
(1.59439e-05 5.98852e-06 0)
(1.57887e-05 6.59854e-06 0)
(1.56838e-05 7.1374e-06 0)
(1.56272e-05 7.62127e-06 0)
(1.5612e-05 8.05959e-06 0)
(1.56338e-05 8.4623e-06 0)
(1.56859e-05 8.83679e-06 0)
(1.57661e-05 9.1891e-06 0)
(1.5866e-05 9.52613e-06 0)
(1.5448e-05 5.12547e-06 0)
(1.51681e-05 5.80369e-06 0)
(1.49552e-05 6.39277e-06 0)
(1.48044e-05 6.90351e-06 0)
(1.47105e-05 7.35777e-06 0)
(1.46638e-05 7.76634e-06 0)
(1.46581e-05 8.14019e-06 0)
(1.46851e-05 8.48666e-06 0)
(1.47422e-05 8.81208e-06 0)
(1.48191e-05 9.12291e-06 0)
(1.46894e-05 4.91221e-06 0)
(1.43319e-05 5.57265e-06 0)
(1.406e-05 6.1347e-06 0)
(1.38638e-05 6.61241e-06 0)
(1.37332e-05 7.03308e-06 0)
(1.36553e-05 7.40838e-06 0)
(1.36225e-05 7.75029e-06 0)
(1.36249e-05 8.06594e-06 0)
(1.36592e-05 8.36208e-06 0)
(1.37139e-05 8.64437e-06 0)
(1.38765e-05 4.66516e-06 0)
(1.34403e-05 5.29528e-06 0)
(1.3111e-05 5.82269e-06 0)
(1.28717e-05 6.26217e-06 0)
(1.27066e-05 6.64538e-06 0)
(1.25998e-05 6.98435e-06 0)
(1.25417e-05 7.29178e-06 0)
(1.25214e-05 7.57446e-06 0)
(1.25346e-05 7.8394e-06 0)
(1.25688e-05 8.09134e-06 0)
(1.30138e-05 4.38888e-06 0)
(1.25017e-05 4.97426e-06 0)
(1.21188e-05 5.45843e-06 0)
(1.18402e-05 5.85456e-06 0)
(1.1644e-05 6.19703e-06 0)
(1.15116e-05 6.49731e-06 0)
(1.14312e-05 6.7685e-06 0)
(1.13908e-05 7.01665e-06 0)
(1.13853e-05 7.24906e-06 0)
(1.14018e-05 7.46911e-06 0)
(1.21068e-05 4.08802e-06 0)
(1.15257e-05 4.61351e-06 0)
(1.10956e-05 5.04586e-06 0)
(1.07828e-05 5.3935e-06 0)
(1.05604e-05 5.69231e-06 0)
(1.04064e-05 5.9521e-06 0)
(1.03073e-05 6.18587e-06 0)
(1.02501e-05 6.39888e-06 0)
(1.02284e-05 6.59795e-06 0)
(1.02304e-05 6.78567e-06 0)
(1.11619e-05 3.76824e-06 0)
(1.05228e-05 4.21897e-06 0)
(1.00538e-05 4.59143e-06 0)
(9.71324e-06 4.8861e-06 0)
(9.46999e-06 5.13898e-06 0)
(9.29913e-06 5.35722e-06 0)
(9.18528e-06 5.5534e-06 0)
(9.11497e-06 5.73129e-06 0)
(9.08049e-06 5.89748e-06 0)
(9.07202e-06 6.05088e-06 0)
(1.86677e-05 1.06675e-05 0)
(1.88846e-05 1.1051e-05 0)
(1.91182e-05 1.14282e-05 0)
(1.93667e-05 1.18011e-05 0)
(1.96289e-05 1.21713e-05 0)
(1.99031e-05 1.25402e-05 0)
(2.01882e-05 1.29089e-05 0)
(2.0483e-05 1.32783e-05 0)
(2.07866e-05 1.36492e-05 0)
(2.10978e-05 1.40222e-05 0)
(2.14158e-05 1.4398e-05 0)
(2.17398e-05 1.4777e-05 0)
(2.20688e-05 1.51596e-05 0)
(2.24022e-05 1.55461e-05 0)
(2.27392e-05 1.59367e-05 0)
(2.3079e-05 1.63315e-05 0)
(2.34209e-05 1.67305e-05 0)
(2.37641e-05 1.71333e-05 0)
(2.41081e-05 1.75392e-05 0)
(2.4452e-05 1.79471e-05 0)
(1.791e-05 1.04774e-05 0)
(1.81542e-05 1.08547e-05 0)
(1.84115e-05 1.1226e-05 0)
(1.86799e-05 1.15936e-05 0)
(1.89589e-05 1.19594e-05 0)
(1.92472e-05 1.23244e-05 0)
(1.95443e-05 1.26901e-05 0)
(1.98491e-05 1.3057e-05 0)
(2.01611e-05 1.34261e-05 0)
(2.04793e-05 1.37979e-05 0)
(2.08032e-05 1.4173e-05 0)
(2.11322e-05 1.45518e-05 0)
(2.14656e-05 1.49348e-05 0)
(2.18029e-05 1.53221e-05 0)
(2.21435e-05 1.57141e-05 0)
(2.24869e-05 1.61108e-05 0)
(2.28325e-05 1.65121e-05 0)
(2.31798e-05 1.69177e-05 0)
(2.35283e-05 1.7327e-05 0)
(2.38772e-05 1.7739e-05 0)
(1.7046e-05 1.02125e-05 0)
(1.73252e-05 1.05905e-05 0)
(1.76138e-05 1.09628e-05 0)
(1.79092e-05 1.13312e-05 0)
(1.82121e-05 1.16982e-05 0)
(1.85212e-05 1.20644e-05 0)
(1.88364e-05 1.24315e-05 0)
(1.91572e-05 1.28e-05 0)
(1.94831e-05 1.3171e-05 0)
(1.98138e-05 1.3545e-05 0)
(2.01487e-05 1.39226e-05 0)
(2.04876e-05 1.43042e-05 0)
(2.08301e-05 1.46902e-05 0)
(2.11758e-05 1.50809e-05 0)
(2.15243e-05 1.54766e-05 0)
(2.18753e-05 1.58774e-05 0)
(2.22285e-05 1.62834e-05 0)
(2.25834e-05 1.66943e-05 0)
(2.29395e-05 1.71099e-05 0)
(2.3296e-05 1.75296e-05 0)
(1.60884e-05 9.87863e-06 0)
(1.6409e-05 1.02629e-05 0)
(1.67354e-05 1.06418e-05 0)
(1.70641e-05 1.1016e-05 0)
(1.73968e-05 1.13887e-05 0)
(1.77324e-05 1.17603e-05 0)
(1.80714e-05 1.21328e-05 0)
(1.84133e-05 1.25066e-05 0)
(1.87582e-05 1.28829e-05 0)
(1.9106e-05 1.32621e-05 0)
(1.94565e-05 1.36451e-05 0)
(1.98096e-05 1.40322e-05 0)
(2.01651e-05 1.44238e-05 0)
(2.0523e-05 1.48204e-05 0)
(2.0883e-05 1.52223e-05 0)
(2.1245e-05 1.56296e-05 0)
(2.16088e-05 1.60426e-05 0)
(2.1974e-05 1.64614e-05 0)
(2.23403e-05 1.68859e-05 0)
(2.27067e-05 1.73161e-05 0)
(1.50579e-05 9.46966e-06 0)
(1.54247e-05 9.86645e-06 0)
(1.57939e-05 1.02581e-05 0)
(1.61603e-05 1.06436e-05 0)
(1.65276e-05 1.10273e-05 0)
(1.68939e-05 1.14092e-05 0)
(1.72608e-05 1.17914e-05 0)
(1.76279e-05 1.21745e-05 0)
(1.79957e-05 1.25598e-05 0)
(1.83642e-05 1.29478e-05 0)
(1.87336e-05 1.33393e-05 0)
(1.91042e-05 1.37349e-05 0)
(1.94758e-05 1.41349e-05 0)
(1.98487e-05 1.454e-05 0)
(2.02229e-05 1.49505e-05 0)
(2.05983e-05 1.53667e-05 0)
(2.0975e-05 1.57891e-05 0)
(2.13526e-05 1.62179e-05 0)
(2.1731e-05 1.66538e-05 0)
(2.21094e-05 1.70967e-05 0)
(1.39713e-05 8.98812e-06 0)
(1.43877e-05 9.40315e-06 0)
(1.48033e-05 9.8134e-06 0)
(1.52109e-05 1.02156e-05 0)
(1.56161e-05 1.06152e-05 0)
(1.60165e-05 1.10118e-05 0)
(1.64146e-05 1.14079e-05 0)
(1.68099e-05 1.18043e-05 0)
(1.72035e-05 1.22022e-05 0)
(1.75956e-05 1.26023e-05 0)
(1.79867e-05 1.30055e-05 0)
(1.83772e-05 1.34124e-05 0)
(1.87674e-05 1.38236e-05 0)
(1.91575e-05 1.42398e-05 0)
(1.95478e-05 1.46613e-05 0)
(1.99385e-05 1.50886e-05 0)
(2.03297e-05 1.55225e-05 0)
(2.07214e-05 1.59634e-05 0)
(2.11135e-05 1.64123e-05 0)
(2.15055e-05 1.68697e-05 0)
(1.28465e-05 8.43506e-06 0)
(1.33141e-05 8.8741e-06 0)
(1.37784e-05 9.30864e-06 0)
(1.42294e-05 9.73279e-06 0)
(1.46746e-05 1.0153e-05 0)
(1.51115e-05 1.05689e-05 0)
(1.5543e-05 1.09831e-05 0)
(1.59688e-05 1.13965e-05 0)
(1.63904e-05 1.18105e-05 0)
(1.68081e-05 1.22261e-05 0)
(1.72228e-05 1.26441e-05 0)
(1.76351e-05 1.30653e-05 0)
(1.80454e-05 1.34904e-05 0)
(1.84543e-05 1.39201e-05 0)
(1.88622e-05 1.4355e-05 0)
(1.92695e-05 1.47957e-05 0)
(1.96765e-05 1.5243e-05 0)
(2.00834e-05 1.56976e-05 0)
(2.04903e-05 1.61611e-05 0)
(2.08971e-05 1.66339e-05 0)
(1.17002e-05 7.81561e-06 0)
(1.22191e-05 8.28406e-06 0)
(1.27326e-05 8.74743e-06 0)
(1.3228e-05 9.1984e-06 0)
(1.37143e-05 9.64352e-06 0)
(1.4189e-05 1.0083e-05 0)
(1.46552e-05 1.05192e-05 0)
(1.51131e-05 1.09534e-05 0)
(1.55641e-05 1.1387e-05 0)
(1.6009e-05 1.18212e-05 0)
(1.64487e-05 1.2257e-05 0)
(1.6884e-05 1.26953e-05 0)
(1.73157e-05 1.31368e-05 0)
(1.77445e-05 1.35824e-05 0)
(1.8171e-05 1.40329e-05 0)
(1.85957e-05 1.44888e-05 0)
(1.90193e-05 1.49513e-05 0)
(1.94421e-05 1.54212e-05 0)
(1.98645e-05 1.59001e-05 0)
(2.02869e-05 1.6389e-05 0)
(1.05496e-05 7.13564e-06 0)
(1.11183e-05 7.6392e-06 0)
(1.16797e-05 8.13489e-06 0)
(1.22197e-05 8.61721e-06 0)
(1.2747e-05 9.09078e-06 0)
(1.326e-05 9.55723e-06 0)
(1.37613e-05 1.00186e-05 0)
(1.42517e-05 1.04768e-05 0)
(1.47327e-05 1.09331e-05 0)
(1.52054e-05 1.13888e-05 0)
(1.56707e-05 1.18453e-05 0)
(1.61298e-05 1.23033e-05 0)
(1.65836e-05 1.27639e-05 0)
(1.70328e-05 1.32278e-05 0)
(1.74784e-05 1.3696e-05 0)
(1.79212e-05 1.41692e-05 0)
(1.83617e-05 1.46484e-05 0)
(1.88009e-05 1.51347e-05 0)
(1.92391e-05 1.563e-05 0)
(1.96775e-05 1.61351e-05 0)
(9.40755e-06 6.40577e-06 0)
(1.00239e-05 6.94787e-06 0)
(1.0628e-05 7.47688e-06 0)
(1.12116e-05 7.99382e-06 0)
(1.17791e-05 8.49959e-06 0)
(1.23305e-05 8.99662e-06 0)
(1.28675e-05 9.48674e-06 0)
(1.33911e-05 9.97185e-06 0)
(1.39028e-05 1.04536e-05 0)
(1.44038e-05 1.09336e-05 0)
(1.48954e-05 1.1413e-05 0)
(1.53786e-05 1.18931e-05 0)
(1.58547e-05 1.23747e-05 0)
(1.63247e-05 1.28589e-05 0)
(1.67896e-05 1.33466e-05 0)
(1.72503e-05 1.38385e-05 0)
(1.77079e-05 1.43358e-05 0)
(1.81633e-05 1.48396e-05 0)
(1.86174e-05 1.53517e-05 0)
(1.90718e-05 1.58731e-05 0)
(8.52646e-06 5.85901e-06 0)
(9.16911e-06 6.42911e-06 0)
(9.79577e-06 6.9769e-06 0)
(1.0403e-05 7.51353e-06 0)
(1.09934e-05 8.03895e-06 0)
(1.15668e-05 8.55544e-06 0)
(1.2125e-05 9.0647e-06 0)
(1.26686e-05 9.56839e-06 0)
(1.31991e-05 1.00681e-05 0)
(1.37176e-05 1.05651e-05 0)
(1.42254e-05 1.10608e-05 0)
(1.47237e-05 1.15562e-05 0)
(1.52135e-05 1.20523e-05 0)
(1.56961e-05 1.25499e-05 0)
(1.61725e-05 1.305e-05 0)
(1.66439e-05 1.35534e-05 0)
(1.71112e-05 1.4061e-05 0)
(1.75759e-05 1.45738e-05 0)
(1.80387e-05 1.50934e-05 0)
(1.85021e-05 1.56208e-05 0)
(7.93836e-06 5.53266e-06 0)
(8.58109e-06 6.10258e-06 0)
(9.20792e-06 6.6547e-06 0)
(9.81715e-06 7.19726e-06 0)
(1.04105e-05 7.73005e-06 0)
(1.09877e-05 8.25466e-06 0)
(1.155e-05 8.77244e-06 0)
(1.20982e-05 9.2847e-06 0)
(1.26333e-05 9.79274e-06 0)
(1.31562e-05 1.02977e-05 0)
(1.36682e-05 1.08007e-05 0)
(1.41703e-05 1.13027e-05 0)
(1.46637e-05 1.18046e-05 0)
(1.51493e-05 1.23071e-05 0)
(1.56283e-05 1.28109e-05 0)
(1.6102e-05 1.33169e-05 0)
(1.65712e-05 1.38258e-05 0)
(1.70375e-05 1.43385e-05 0)
(1.75018e-05 1.48561e-05 0)
(1.79668e-05 1.53793e-05 0)
(7.41929e-06 5.21956e-06 0)
(8.05039e-06 5.78764e-06 0)
(8.67076e-06 6.3412e-06 0)
(9.27526e-06 6.88733e-06 0)
(9.8661e-06 7.4254e-06 0)
(1.04422e-05 7.95641e-06 0)
(1.10046e-05 8.48135e-06 0)
(1.15535e-05 9.00114e-06 0)
(1.20899e-05 9.51678e-06 0)
(1.26145e-05 1.00292e-05 0)
(1.31283e-05 1.05392e-05 0)
(1.36322e-05 1.10476e-05 0)
(1.41273e-05 1.15551e-05 0)
(1.46146e-05 1.20624e-05 0)
(1.50951e-05 1.257e-05 0)
(1.557e-05 1.30785e-05 0)
(1.60404e-05 1.35886e-05 0)
(1.65078e-05 1.41009e-05 0)
(1.69731e-05 1.4616e-05 0)
(1.74393e-05 1.51346e-05 0)
(6.95418e-06 4.91831e-06 0)
(7.57006e-06 5.48166e-06 0)
(8.17922e-06 6.03457e-06 0)
(8.77461e-06 6.58271e-06 0)
(9.35872e-06 7.12475e-06 0)
(9.9297e-06 7.66113e-06 0)
(1.04884e-05 8.19235e-06 0)
(1.10348e-05 8.71894e-06 0)
(1.15696e-05 9.24159e-06 0)
(1.20932e-05 9.76091e-06 0)
(1.26065e-05 1.02775e-05 0)
(1.31103e-05 1.07921e-05 0)
(1.36055e-05 1.1305e-05 0)
(1.4093e-05 1.18169e-05 0)
(1.45739e-05 1.23281e-05 0)
(1.50492e-05 1.28391e-05 0)
(1.552e-05 1.33502e-05 0)
(1.59878e-05 1.38618e-05 0)
(1.64537e-05 1.43743e-05 0)
(1.69204e-05 1.48878e-05 0)
(6.53765e-06 4.63203e-06 0)
(7.1349e-06 5.18894e-06 0)
(7.729e-06 5.7394e-06 0)
(8.31162e-06 6.28772e-06 0)
(8.88544e-06 6.83203e-06 0)
(9.44798e-06 7.37227e-06 0)
(9.99998e-06 7.90846e-06 0)
(1.0541e-05 8.44075e-06 0)
(1.10715e-05 8.96948e-06 0)
(1.15919e-05 9.49497e-06 0)
(1.21027e-05 1.00176e-05 0)
(1.26046e-05 1.05378e-05 0)
(1.30983e-05 1.10558e-05 0)
(1.35848e-05 1.15719e-05 0)
(1.4065e-05 1.20865e-05 0)
(1.45397e-05 1.25997e-05 0)
(1.50103e-05 1.31117e-05 0)
(1.54776e-05 1.36226e-05 0)
(1.59438e-05 1.4132e-05 0)
(1.64108e-05 1.46401e-05 0)
(6.16168e-06 4.36056e-06 0)
(6.73843e-06 4.90946e-06 0)
(7.31495e-06 5.45592e-06 0)
(7.88227e-06 6.00293e-06 0)
(8.44309e-06 6.54811e-06 0)
(8.99457e-06 7.09095e-06 0)
(9.53728e-06 7.63096e-06 0)
(1.00705e-05 8.16793e-06 0)
(1.05946e-05 8.70183e-06 0)
(1.11096e-05 9.2327e-06 0)
(1.16161e-05 9.76067e-06 0)
(1.21145e-05 1.02859e-05 0)
(1.26055e-05 1.08084e-05 0)
(1.30898e-05 1.13285e-05 0)
(1.35682e-05 1.18461e-05 0)
(1.40417e-05 1.23613e-05 0)
(1.45112e-05 1.28739e-05 0)
(1.49781e-05 1.33837e-05 0)
(1.54432e-05 1.38902e-05 0)
(1.59094e-05 1.43934e-05 0)
(5.81972e-06 4.10405e-06 0)
(6.3748e-06 4.64403e-06 0)
(6.93198e-06 5.18536e-06 0)
(7.48213e-06 5.72979e-06 0)
(8.0279e-06 6.27458e-06 0)
(8.56626e-06 6.81876e-06 0)
(9.09764e-06 7.36143e-06 0)
(9.62113e-06 7.902e-06 0)
(1.01369e-05 8.4401e-06 0)
(1.06449e-05 8.97548e-06 0)
(1.11455e-05 9.508e-06 0)
(1.1639e-05 1.00376e-05 0)
(1.2126e-05 1.05641e-05 0)
(1.26071e-05 1.10876e-05 0)
(1.30829e-05 1.16079e-05 0)
(1.35543e-05 1.21247e-05 0)
(1.40222e-05 1.26378e-05 0)
(1.44878e-05 1.31466e-05 0)
(1.49518e-05 1.36504e-05 0)
(1.54168e-05 1.41486e-05 0)
(5.50536e-06 3.86184e-06 0)
(6.0382e-06 4.39233e-06 0)
(6.57496e-06 4.92769e-06 0)
(7.10671e-06 5.46859e-06 0)
(7.63597e-06 6.01195e-06 0)
(8.15966e-06 6.55644e-06 0)
(8.67812e-06 7.10073e-06 0)
(9.19032e-06 7.64392e-06 0)
(9.6963e-06 8.18528e-06 0)
(1.01959e-05 8.72431e-06 0)
(1.06893e-05 9.2606e-06 0)
(1.11768e-05 9.79385e-06 0)
(1.16587e-05 1.03238e-05 0)
(1.21356e-05 1.08501e-05 0)
(1.2608e-05 1.13726e-05 0)
(1.30768e-05 1.18908e-05 0)
(1.35425e-05 1.24042e-05 0)
(1.40063e-05 1.29121e-05 0)
(1.44688e-05 1.34132e-05 0)
(1.49323e-05 1.3907e-05 0)
(5.21284e-06 3.63317e-06 0)
(5.72324e-06 4.15401e-06 0)
(6.23896e-06 4.68293e-06 0)
(6.75148e-06 5.2196e-06 0)
(7.2632e-06 5.76073e-06 0)
(7.7711e-06 6.30464e-06 0)
(8.27544e-06 6.84963e-06 0)
(8.77513e-06 7.39449e-06 0)
(9.27014e-06 7.93822e-06 0)
(9.76018e-06 8.48004e-06 0)
(1.02454e-05 9.0193e-06 0)
(1.07258e-05 9.55549e-06 0)
(1.12018e-05 1.00881e-05 0)
(1.16738e-05 1.06168e-05 0)
(1.21422e-05 1.11411e-05 0)
(1.26077e-05 1.16603e-05 0)
(1.30708e-05 1.21738e-05 0)
(1.35324e-05 1.26808e-05 0)
(1.39931e-05 1.31797e-05 0)
(1.44545e-05 1.36697e-05 0)
(4.93685e-06 3.41712e-06 0)
(5.42482e-06 3.92845e-06 0)
(5.91917e-06 4.45071e-06 0)
(6.41198e-06 4.98272e-06 0)
(6.90546e-06 5.52102e-06 0)
(7.39679e-06 6.06361e-06 0)
(7.88614e-06 6.60852e-06 0)
(8.37244e-06 7.15424e-06 0)
(8.85557e-06 7.6995e-06 0)
(9.33519e-06 8.24329e-06 0)
(9.81133e-06 8.78474e-06 0)
(1.0284e-05 9.32314e-06 0)
(1.07534e-05 9.85786e-06 0)
(1.12199e-05 1.03883e-05 0)
(1.16838e-05 1.09138e-05 0)
(1.21456e-05 1.14338e-05 0)
(1.26056e-05 1.19473e-05 0)
(1.30648e-05 1.24535e-05 0)
(1.35232e-05 1.29505e-05 0)
(1.39824e-05 1.34374e-05 0)
(4.67251e-06 3.21283e-06 0)
(5.13814e-06 3.71503e-06 0)
(5.61098e-06 4.23063e-06 0)
(6.08377e-06 4.75775e-06 0)
(6.5586e-06 5.29279e-06 0)
(7.03282e-06 5.83351e-06 0)
(7.5066e-06 6.37765e-06 0)
(7.97888e-06 6.92349e-06 0)
(8.44951e-06 7.46952e-06 0)
(8.91811e-06 8.0145e-06 0)
(9.38461e-06 8.55738e-06 0)
(9.84898e-06 9.09728e-06 0)
(1.03113e-05 9.6334e-06 0)
(1.07719e-05 1.0165e-05 0)
(1.12308e-05 1.06914e-05 0)
(1.16885e-05 1.12118e-05 0)
(1.21453e-05 1.17252e-05 0)
(1.26016e-05 1.22306e-05 0)
(1.30577e-05 1.27261e-05 0)
(1.35144e-05 1.32109e-05 0)
(4.41522e-06 3.01953e-06 0)
(4.8586e-06 3.51314e-06 0)
(5.30988e-06 4.02225e-06 0)
(5.76249e-06 4.5444e-06 0)
(6.2184e-06 5.07591e-06 0)
(6.67522e-06 5.6143e-06 0)
(7.13306e-06 6.15711e-06 0)
(7.59096e-06 6.70241e-06 0)
(8.04871e-06 7.24849e-06 0)
(8.5059e-06 7.79394e-06 0)
(8.9624e-06 8.33753e-06 0)
(9.41812e-06 8.87823e-06 0)
(9.87308e-06 9.41511e-06 0)
(1.03274e-05 9.94733e-06 0)
(1.07811e-05 1.04741e-05 0)
(1.12345e-05 1.09945e-05 0)
(1.16878e-05 1.15076e-05 0)
(1.21412e-05 1.20124e-05 0)
(1.25948e-05 1.25071e-05 0)
(1.30488e-05 1.29906e-05 0)
(4.16056e-06 2.83654e-06 0)
(4.5817e-06 3.32221e-06 0)
(5.01137e-06 3.82511e-06 0)
(5.44373e-06 4.34233e-06 0)
(5.88062e-06 4.87012e-06 0)
(6.31989e-06 5.40582e-06 0)
(6.76167e-06 5.94681e-06 0)
(7.20503e-06 6.49098e-06 0)
(7.64974e-06 7.03647e-06 0)
(8.09538e-06 7.5817e-06 0)
(8.54176e-06 8.12532e-06 0)
(8.9887e-06 8.66615e-06 0)
(9.43615e-06 9.20316e-06 0)
(9.88408e-06 9.73544e-06 0)
(1.03325e-05 1.02621e-05 0)
(1.07816e-05 1.07823e-05 0)
(1.12313e-05 1.1295e-05 0)
(1.16817e-05 1.17992e-05 0)
(1.21327e-05 1.22934e-05 0)
(1.25841e-05 1.27766e-05 0)
(3.90417e-06 2.66357e-06 0)
(4.30298e-06 3.14194e-06 0)
(4.71097e-06 3.63893e-06 0)
(5.12307e-06 4.1513e-06 0)
(5.54092e-06 4.67521e-06 0)
(5.96269e-06 5.20791e-06 0)
(6.38844e-06 5.74661e-06 0)
(6.81733e-06 6.28911e-06 0)
(7.2491e-06 6.83338e-06 0)
(7.68328e-06 7.37775e-06 0)
(8.11964e-06 7.92073e-06 0)
(8.55791e-06 8.46105e-06 0)
(8.99793e-06 8.9976e-06 0)
(9.43959e-06 9.52939e-06 0)
(9.88281e-06 1.00555e-05 0)
(1.03275e-05 1.05751e-05 0)
(1.07737e-05 1.10872e-05 0)
(1.12211e-05 1.1591e-05 0)
(1.16696e-05 1.2085e-05 0)
(1.21185e-05 1.25687e-05 0)
(3.64149e-06 2.50012e-06 0)
(4.01777e-06 2.97184e-06 0)
(4.40399e-06 3.46323e-06 0)
(4.79584e-06 3.97081e-06 0)
(5.19479e-06 4.49073e-06 0)
(5.59923e-06 5.02012e-06 0)
(6.00921e-06 5.55612e-06 0)
(6.42394e-06 6.09642e-06 0)
(6.8431e-06 6.6389e-06 0)
(7.26619e-06 7.18179e-06 0)
(7.69288e-06 7.72352e-06 0)
(8.12283e-06 8.26274e-06 0)
(8.55578e-06 8.79826e-06 0)
(8.99147e-06 9.32906e-06 0)
(9.42973e-06 9.85419e-06 0)
(9.87036e-06 1.03728e-05 0)
(1.03131e-05 1.08842e-05 0)
(1.07578e-05 1.13875e-05 0)
(1.12039e-05 1.18817e-05 0)
(1.16505e-05 1.23665e-05 0)
(3.36785e-06 2.34668e-06 0)
(3.72129e-06 2.81221e-06 0)
(4.08563e-06 3.29815e-06 0)
(4.45732e-06 3.8009e-06 0)
(4.83759e-06 4.31659e-06 0)
(5.2251e-06 4.84229e-06 0)
(5.61978e-06 5.37509e-06 0)
(6.0209e-06 5.91262e-06 0)
(6.42805e-06 6.4527e-06 0)
(6.84068e-06 6.99348e-06 0)
(7.25836e-06 7.53334e-06 0)
(7.68063e-06 8.07087e-06 0)
(8.1071e-06 8.60483e-06 0)
(8.5374e-06 9.13416e-06 0)
(8.9712e-06 9.65791e-06 0)
(9.40815e-06 1.01753e-05 0)
(9.84792e-06 1.06856e-05 0)
(1.02901e-05 1.11884e-05 0)
(1.0734e-05 1.16829e-05 0)
(1.11787e-05 1.21693e-05 0)
(3.07783e-06 2.20245e-06 0)
(3.40806e-06 2.66217e-06 0)
(3.75043e-06 3.14274e-06 0)
(4.10217e-06 3.64058e-06 0)
(4.46421e-06 4.15178e-06 0)
(4.83539e-06 4.67341e-06 0)
(5.21553e-06 5.20255e-06 0)
(5.60389e-06 5.73678e-06 0)
(5.99997e-06 6.2739e-06 0)
(6.40311e-06 6.81201e-06 0)
(6.81277e-06 7.34946e-06 0)
(7.22835e-06 7.88478e-06 0)
(7.6493e-06 8.41671e-06 0)
(8.07511e-06 8.94415e-06 0)
(8.50526e-06 9.46618e-06 0)
(8.93925e-06 9.98205e-06 0)
(9.37661e-06 1.04912e-05 0)
(9.81673e-06 1.09932e-05 0)
(1.0259e-05 1.1488e-05 0)
(1.07021e-05 1.19761e-05 0)
(2.76605e-06 2.0696e-06 0)
(3.07269e-06 2.52337e-06 0)
(3.39312e-06 2.99822e-06 0)
(3.72528e-06 3.49063e-06 0)
(4.06973e-06 3.99674e-06 0)
(4.42545e-06 4.51363e-06 0)
(4.79211e-06 5.03838e-06 0)
(5.16888e-06 5.56859e-06 0)
(5.55514e-06 6.10202e-06 0)
(5.95012e-06 6.63677e-06 0)
(6.35309e-06 7.17115e-06 0)
(6.76331e-06 7.70368e-06 0)
(7.18006e-06 8.23309e-06 0)
(7.60262e-06 8.75825e-06 0)
(8.0303e-06 9.27824e-06 0)
(8.46239e-06 9.79234e-06 0)
(8.89823e-06 1.03e-05 0)
(9.33707e-06 1.08012e-05 0)
(9.77816e-06 1.12961e-05 0)
(1.02203e-05 1.17857e-05 0)
(2.42473e-06 1.94498e-06 0)
(2.70753e-06 2.3927e-06 0)
(3.00631e-06 2.86155e-06 0)
(3.3196e-06 3.34817e-06 0)
(3.64753e-06 3.84874e-06 0)
(3.98911e-06 4.3604e-06 0)
(4.34379e-06 4.88024e-06 0)
(4.71063e-06 5.40588e-06 0)
(5.08882e-06 5.9351e-06 0)
(5.47742e-06 6.46599e-06 0)
(5.87555e-06 6.99686e-06 0)
(6.28226e-06 7.52621e-06 0)
(6.69664e-06 8.05275e-06 0)
(7.11776e-06 8.57536e-06 0)
(7.5447e-06 9.09312e-06 0)
(7.97651e-06 9.60531e-06 0)
(8.41229e-06 1.01115e-05 0)
(8.85103e-06 1.06116e-05 0)
(9.29185e-06 1.11063e-05 0)
(9.73357e-06 1.1597e-05 0)
(2.0494e-06 1.83571e-06 0)
(2.30829e-06 2.27596e-06 0)
(2.58601e-06 2.73735e-06 0)
(2.8814e-06 3.21673e-06 0)
(3.19418e-06 3.71038e-06 0)
(3.52321e-06 4.21548e-06 0)
(3.86771e-06 4.72918e-06 0)
(4.22655e-06 5.2491e-06 0)
(4.59869e-06 5.77304e-06 0)
(4.983e-06 6.29912e-06 0)
(5.37839e-06 6.82562e-06 0)
(5.78371e-06 7.35107e-06 0)
(6.19784e-06 7.87417e-06 0)
(6.61963e-06 8.39382e-06 0)
(7.04792e-06 8.90909e-06 0)
(7.48148e-06 9.41928e-06 0)
(7.9191e-06 9.92398e-06 0)
(8.35943e-06 1.04232e-05 0)
(8.80133e-06 1.09174e-05 0)
(9.24333e-06 1.14083e-05 0)
(2.97522e-07 3.603e-08 0)
(8.98056e-07 2.08134e-07 0)
(1.53555e-06 5.22357e-07 0)
(2.21891e-06 9.58304e-07 0)
(2.96157e-06 1.50465e-06 0)
(3.76802e-06 2.14225e-06 0)
(4.64154e-06 2.85057e-06 0)
(5.58055e-06 3.60813e-06 0)
(6.58223e-06 4.39318e-06 0)
(7.64097e-06 5.18791e-06 0)
(2.80223e-07 3.28984e-08 0)
(8.46546e-07 1.8879e-07 0)
(1.4463e-06 4.74969e-07 0)
(2.08632e-06 8.74928e-07 0)
(2.77881e-06 1.38022e-06 0)
(3.52791e-06 1.97485e-06 0)
(4.33704e-06 2.64113e-06 0)
(5.2048e-06 3.36015e-06 0)
(6.12802e-06 4.11109e-06 0)
(7.101e-06 4.87984e-06 0)
(2.64673e-07 2.90848e-08 0)
(8.00314e-07 1.69029e-07 0)
(1.36663e-06 4.28999e-07 0)
(1.96823e-06 7.95446e-07 0)
(2.61594e-06 1.26209e-06 0)
(3.31325e-06 1.81546e-06 0)
(4.06385e-06 2.44021e-06 0)
(4.86722e-06 3.12016e-06 0)
(5.72222e-06 3.83643e-06 0)
(6.62282e-06 4.579e-06 0)
(2.50446e-07 2.45803e-08 0)
(7.58187e-07 1.49041e-07 0)
(1.29491e-06 3.85335e-07 0)
(1.86317e-06 7.22028e-07 0)
(2.47263e-06 1.15441e-06 0)
(3.12587e-06 1.67091e-06 0)
(3.82631e-06 2.25791e-06 0)
(4.57307e-06 2.90097e-06 0)
(5.36638e-06 3.58225e-06 0)
(6.19902e-06 4.29315e-06 0)
(2.37144e-07 1.93497e-08 0)
(7.18852e-07 1.28154e-07 0)
(1.22838e-06 3.41988e-07 0)
(1.76644e-06 6.50992e-07 0)
(2.34166e-06 1.0516e-06 0)
(2.95577e-06 1.53377e-06 0)
(3.61217e-06 2.08535e-06 0)
(4.30956e-06 2.69358e-06 0)
(5.04959e-06 3.34215e-06 0)
(5.82279e-06 4.02235e-06 0)
(2.24658e-07 1.34927e-08 0)
(6.81975e-07 1.06526e-07 0)
(1.16644e-06 2.99196e-07 0)
(1.67712e-06 5.828e-07 0)
(2.22175e-06 9.54584e-07 0)
(2.80114e-06 1.40559e-06 0)
(3.41854e-06 1.92474e-06 0)
(4.07206e-06 2.50034e-06 0)
(4.76462e-06 3.11756e-06 0)
(5.48523e-06 3.7671e-06 0)
(2.12734e-07 6.98796e-09 0)
(6.46778e-07 8.3865e-08 0)
(1.10761e-06 2.56076e-07 0)
(1.59283e-06 5.15787e-07 0)
(2.10946e-06 8.60832e-07 0)
(2.65749e-06 1.28309e-06 0)
(3.24008e-06 1.77242e-06 0)
(3.85474e-06 2.31791e-06 0)
(4.50527e-06 2.90618e-06 0)
(5.17962e-06 3.52692e-06 0)
(2.01278e-07 -7.40958e-11 0)
(6.12964e-07 6.02773e-08 0)
(1.05132e-06 2.12664e-07 0)
(1.51263e-06 4.49897e-07 0)
(2.00329e-06 7.70212e-07 0)
(2.52257e-06 1.16607e-06 0)
(3.07352e-06 1.62803e-06 0)
(3.65317e-06 2.14569e-06 0)
(4.26593e-06 2.70702e-06 0)
(4.89934e-06 3.30086e-06 0)
(1.9014e-07 -7.69137e-09 0)
(5.80092e-07 3.56555e-08 0)
(9.96749e-07 1.68574e-07 0)
(1.43523e-06 3.84376e-07 0)
(1.90139e-06 6.81567e-07 0)
(2.39391e-06 1.05301e-06 0)
(2.9157e-06 1.48985e-06 0)
(3.4635e-06 1.98202e-06 0)
(4.04195e-06 2.51861e-06 0)
(4.63878e-06 3.0878e-06 0)
(1.79227e-07 -1.58046e-08 0)
(5.47913e-07 1.00477e-08 0)
(9.43424e-07 1.2377e-07 0)
(1.35983e-06 3.19065e-07 0)
(1.80251e-06 5.94581e-07 0)
(2.26966e-06 9.43419e-07 0)
(2.76407e-06 1.35717e-06 0)
(3.28236e-06 1.82597e-06 0)
(3.82919e-06 2.33984e-06 0)
(4.39285e-06 2.88659e-06 0)
(1.68468e-07 -2.44074e-08 0)
(5.16179e-07 -1.65826e-08 0)
(8.90868e-07 7.80716e-08 0)
(1.28565e-06 2.5361e-07 0)
(1.70547e-06 5.08704e-07 0)
(2.14815e-06 8.36567e-07 0)
(2.61636e-06 1.22909e-06 0)
(3.10681e-06 1.67655e-06 0)
(3.62396e-06 2.16968e-06 0)
(4.15702e-06 2.69615e-06 0)
(1.57808e-07 -3.34983e-08 0)
(4.84704e-07 -4.42483e-08 0)
(8.38748e-07 3.1435e-08 0)
(1.21209e-06 1.87911e-07 0)
(1.60928e-06 4.23749e-07 0)
(2.02789e-06 7.32149e-07 0)
(2.47053e-06 1.10516e-06 0)
(2.93412e-06 1.53316e-06 0)
(3.4229e-06 2.0074e-06 0)
(3.92711e-06 2.51562e-06 0)
(1.4719e-07 -4.30956e-08 0)
(4.53376e-07 -7.30293e-08 0)
(7.86826e-07 -1.62862e-08 0)
(1.13864e-06 1.21786e-07 0)
(1.51305e-06 3.39477e-07 0)
(1.90754e-06 6.29848e-07 0)
(2.32467e-06 9.84963e-07 0)
(2.76176e-06 1.39526e-06 0)
(3.22277e-06 1.85239e-06 0)
(3.69911e-06 2.34427e-06 0)
(1.36603e-07 -5.32798e-08 0)
(4.22241e-07 -1.0302e-07 0)
(7.35007e-07 -6.51175e-08 0)
(1.06494e-06 5.53089e-08 0)
(1.41602e-06 2.56022e-07 0)
(1.7858e-06 5.29798e-07 0)
(2.17693e-06 8.68583e-07 0)
(2.58723e-06 1.26285e-06 0)
(3.02042e-06 1.70452e-06 0)
(3.46914e-06 2.18181e-06 0)
(1.26134e-07 -6.41983e-08 0)
(3.91655e-07 -1.34488e-07 0)
(6.8349e-07 -1.15293e-07 0)
(9.90853e-07 -1.16492e-08 0)
(1.31751e-06 1.73324e-07 0)
(1.6614e-06 4.31952e-07 0)
(2.02537e-06 7.55929e-07 0)
(2.40791e-06 1.13573e-06 0)
(2.81252e-06 1.5635e-06 0)
(3.23314e-06 2.02781e-06 0)
(1.15958e-07 -7.63173e-08 0)
(3.62148e-07 -1.67757e-07 0)
(6.32621e-07 -1.66689e-07 0)
(9.16292e-07 -7.8478e-08 0)
(1.21683e-06 9.2322e-08 0)
(1.53299e-06 3.37386e-07 0)
(1.86797e-06 6.48083e-07 0)
(2.22105e-06 1.01492e-06 0)
(2.59563e-06 1.43019e-06 0)
(2.98693e-06 1.88294e-06 0)
(1.06773e-07 -9.02525e-08 0)
(3.35483e-07 -2.03586e-07 0)
(5.83844e-07 -2.19783e-07 0)
(8.41764e-07 -1.4547e-07 0)
(1.11346e-06 1.28482e-08 0)
(1.39902e-06 2.45954e-07 0)
(1.70226e-06 5.44848e-07 0)
(2.02334e-06 9.00062e-07 0)
(2.3656e-06 1.30411e-06 0)
(2.72556e-06 1.74654e-06 0)
(1.00068e-07 -1.08386e-07 0)
(3.13741e-07 -2.42958e-07 0)
(5.3852e-07 -2.73441e-07 0)
(7.67427e-07 -2.09953e-07 0)
(1.00651e-06 -6.17005e-08 0)
(1.25763e-06 1.6126e-07 0)
(1.52554e-06 4.49751e-07 0)
(1.8113e-06 7.94521e-07 0)
(2.11822e-06 1.18832e-06 0)
(2.44407e-06 1.62128e-06 0)
(1.03122e-07 -1.32741e-07 0)
(3.04716e-07 -2.87332e-07 0)
(5.01548e-07 -3.28648e-07 0)
(6.94926e-07 -2.73401e-07 0)
(8.95065e-07 -1.33117e-07 0)
(1.10607e-06 8.12057e-08 0)
(1.33361e-06 3.60415e-07 0)
(1.57951e-06 6.95585e-07 0)
(1.84709e-06 1.07987e-06 0)
(2.13512e-06 1.50403e-06 0)
(1.31388e-07 -1.76037e-07 0)
(3.13255e-07 -3.37307e-07 0)
(4.75141e-07 -3.78222e-07 0)
(6.23899e-07 -3.24932e-07 0)
(7.77871e-07 -1.89915e-07 0)
(9.42258e-07 1.70799e-08 0)
(1.12385e-06 2.87558e-07 0)
(1.32484e-06 6.13368e-07 0)
(1.54855e-06 9.88067e-07 0)
(1.79442e-06 1.40315e-06 0)
)
;

boundaryField
{
    left
    {
        type            fixedDisplacement;
        value           uniform (0 0 0);
    }
    right
    {
        type            solidTraction;
        tractionSeries  
{
        file            "$FOAM_CASE/constant/timeVsTraction";
        outOfBounds     clamp;
}
        pressure        uniform 0;
        secondOrder     false;
        setEffectiveTraction false;
        relaxationFactor 1;
        value           nonuniform List<vector> 
30
(
(2.46233e-05 1.81506e-05 -9.96833e-21)
(2.40495e-05 1.79446e-05 -1.00272e-20)
(2.34706e-05 1.774e-05 -1.01392e-20)
(2.2885e-05 1.75329e-05 -1.02994e-20)
(2.22928e-05 1.7321e-05 -1.05079e-20)
(2.16952e-05 1.71021e-05 -1.07645e-20)
(2.10943e-05 1.68749e-05 -1.10696e-20)
(2.04927e-05 1.66387e-05 -1.14231e-20)
(1.98928e-05 1.63936e-05 -1.18251e-20)
(1.92974e-05 1.61402e-05 -1.22754e-20)
(1.8734e-05 1.58907e-05 -1.25187e-20)
(1.81995e-05 1.56455e-05 -1.2495e-20)
(1.76725e-05 1.53967e-05 -1.24799e-20)
(1.7154e-05 1.51453e-05 -1.24731e-20)
(1.66444e-05 1.48934e-05 -1.24758e-20)
(1.61427e-05 1.46424e-05 -1.24874e-20)
(1.56496e-05 1.43934e-05 -1.25065e-20)
(1.51642e-05 1.41481e-05 -1.25329e-20)
(1.46854e-05 1.39077e-05 -1.2565e-20)
(1.42121e-05 1.3673e-05 -1.26017e-20)
(1.37428e-05 1.34449e-05 -1.26413e-20)
(1.32759e-05 1.32238e-05 -1.26822e-20)
(1.28098e-05 1.30098e-05 -1.27225e-20)
(1.2343e-05 1.28028e-05 -1.27604e-20)
(1.18738e-05 1.26022e-05 -1.27941e-20)
(1.1401e-05 1.24071e-05 -1.28221e-20)
(1.09237e-05 1.22165e-05 -1.28426e-20)