/*--------------------------------*- C++ -*----------------------------------*\
  =========                 |
  \\      /  F ield         | OpenFOAM: The Open Source CFD Toolbox
   \\    /   O peration     | Website:  https://openfoam.org
    \\  /    A nd           | Version:  9
     \\/     M anipulation  |
\*---------------------------------------------------------------------------*/
FoamFile
{
    format      ascii;
    class       volVectorField;
    location    "15";
    object      D_0;
}
// * * * * * * * * * * * * * * * * * * * * * * * * * * * * * * * * * * * * * //

dimensions      [0 1 0 0 0 0 0];

internalField   nonuniform List<vector> 
1000
(
(9.49219e-06 3.19866e-06 0)
(8.85337e-06 3.53895e-06 0)
(8.38962e-06 3.82379e-06 0)
(8.05432e-06 4.04639e-06 0)
(7.81509e-06 4.23799e-06 0)
(7.6463e-06 4.40284e-06 0)
(7.53203e-06 4.5512e-06 0)
(7.45949e-06 4.68633e-06 0)
(7.41859e-06 4.81236e-06 0)
(7.4042e-06 4.93181e-06 0)
(8.55669e-06 2.88113e-06 0)
(7.89331e-06 3.13041e-06 0)
(7.41438e-06 3.34714e-06 0)
(7.06945e-06 3.51474e-06 0)
(6.82368e-06 3.6612e-06 0)
(6.64968e-06 3.78722e-06 0)
(6.53046e-06 3.90129e-06 0)
(6.45247e-06 4.00564e-06 0)
(6.40529e-06 4.10242e-06 0)
(6.38201e-06 4.19676e-06 0)
(7.60265e-06 2.56145e-06 0)
(6.93166e-06 2.71432e-06 0)
(6.45045e-06 2.86045e-06 0)
(6.10539e-06 2.9725e-06 0)
(5.86055e-06 3.07468e-06 0)
(5.68719e-06 3.16357e-06 0)
(5.56769e-06 3.24567e-06 0)
(5.48811e-06 3.32174e-06 0)
(5.43795e-06 3.39217e-06 0)
(5.40989e-06 3.46261e-06 0)
(6.63414e-06 2.24475e-06 0)
(5.97458e-06 2.30045e-06 0)
(5.5042e-06 2.37486e-06 0)
(5.1696e-06 2.43281e-06 0)
(4.9337e-06 2.49286e-06 0)
(4.7674e-06 2.54747e-06 0)
(4.65278e-06 2.60074e-06 0)
(4.57576e-06 2.65166e-06 0)
(4.5264e-06 2.69916e-06 0)
(4.49666e-06 2.74837e-06 0)
(5.65761e-06 1.93672e-06 0)
(5.02363e-06 1.89725e-06 0)
(4.57898e-06 1.90286e-06 0)
(4.26625e-06 1.90982e-06 0)
(4.0482e-06 1.93194e-06 0)
(3.8958e-06 1.95657e-06 0)
(3.79129e-06 1.98545e-06 0)
(3.7209e-06 2.01538e-06 0)
(3.67549e-06 2.04412e-06 0)
(3.64677e-06 2.07551e-06 0)
(4.67081e-06 1.64108e-06 0)
(4.08138e-06 1.508e-06 0)
(3.6776e-06 1.45288e-06 0)
(3.39896e-06 1.41574e-06 0)
(3.20815e-06 1.40689e-06 0)
(3.07644e-06 1.40787e-06 0)
(2.98704e-06 1.41816e-06 0)
(2.92693e-06 1.43235e-06 0)
(2.88815e-06 1.44724e-06 0)
(2.86262e-06 1.46513e-06 0)
(3.65906e-06 1.35926e-06 0)
(3.14144e-06 1.14108e-06 0)
(2.79939e-06 1.03536e-06 0)
(2.56838e-06 9.65143e-07 0)
(2.41437e-06 9.34626e-07 0)
(2.30973e-06 9.20044e-07 0)
(2.23974e-06 9.18497e-07 0)
(2.1928e-06 9.22697e-07 0)
(2.16256e-06 9.28896e-07 0)
(2.14179e-06 9.37832e-07 0)
(2.63886e-06 1.07627e-06 0)
(2.21268e-06 7.95939e-07 0)
(1.95099e-06 6.59328e-07 0)
(1.77976e-06 5.72575e-07 0)
(1.67e-06 5.32888e-07 0)
(1.5967e-06 5.1244e-07 0)
(1.54851e-06 5.0638e-07 0)
(1.5162e-06 5.06473e-07 0)
(1.49533e-06 5.08932e-07 0)
(1.48025e-06 5.13369e-07 0)
(1.58595e-06 7.75157e-07 0)
(1.29166e-06 4.73179e-07 0)
(1.13004e-06 3.33354e-07 0)
(1.02907e-06 2.54596e-07 0)
(9.68811e-07 2.20565e-07 0)
(9.28978e-07 2.0421e-07 0)
(9.03347e-07 1.99796e-07 0)
(8.8581e-07 2.00046e-07 0)
(8.74266e-07 2.01974e-07 0)
(8.65188e-07 2.04852e-07 0)
(5.40821e-07 4.04096e-07 0)
(4.10984e-07 1.81223e-07 0)
(3.61284e-07 8.87974e-08 0)
(3.33929e-07 4.97684e-08 0)
(3.17864e-07 3.50727e-08 0)
(3.06686e-07 2.99867e-08 0)
(2.99307e-07 2.98399e-08 0)
(2.93934e-07 3.13494e-08 0)
(2.90233e-07 3.31457e-08 0)
(2.8699e-07 3.50231e-08 0)
(1.6751e-05 5.19979e-06 0)
(1.67237e-05 5.84704e-06 0)
(1.67044e-05 6.45069e-06 0)
(1.67047e-05 7.00344e-06 0)
(1.67291e-05 7.51063e-06 0)
(1.67797e-05 7.97855e-06 0)
(1.68567e-05 8.41447e-06 0)
(1.69587e-05 8.82477e-06 0)
(1.70846e-05 9.21442e-06 0)
(1.72314e-05 9.58905e-06 0)
(1.62231e-05 5.15691e-06 0)
(1.61486e-05 5.80238e-06 0)
(1.60974e-05 6.39873e-06 0)
(1.60743e-05 6.94043e-06 0)
(1.60817e-05 7.43414e-06 0)
(1.61181e-05 7.88658e-06 0)
(1.61824e-05 8.3057e-06 0)
(1.62715e-05 8.69814e-06 0)
(1.63843e-05 9.06918e-06 0)
(1.65166e-05 9.42523e-06 0)
(1.56638e-05 5.06996e-06 0)
(1.55336e-05 5.71399e-06 0)
(1.5439e-05 6.2983e-06 0)
(1.53815e-05 6.82256e-06 0)
(1.53618e-05 7.29714e-06 0)
(1.53754e-05 7.72965e-06 0)
(1.54198e-05 8.12862e-06 0)
(1.54906e-05 8.50093e-06 0)
(1.5586e-05 8.85189e-06 0)
(1.57e-05 9.18808e-06 0)
(1.50599e-05 4.94351e-06 0)
(1.48671e-05 5.58472e-06 0)
(1.47221e-05 6.15419e-06 0)
(1.46241e-05 6.65712e-06 0)
(1.4571e-05 7.10859e-06 0)
(1.45565e-05 7.51745e-06 0)
(1.45768e-05 7.89301e-06 0)
(1.46255e-05 8.24214e-06 0)
(1.47004e-05 8.5705e-06 0)
(1.47937e-05 8.88456e-06 0)
(1.44045e-05 4.7788e-06 0)
(1.41431e-05 5.41212e-06 0)
(1.39442e-05 5.96206e-06 0)
(1.38032e-05 6.43873e-06 0)
(1.37153e-05 6.86254e-06 0)
(1.36716e-05 7.24363e-06 0)
(1.36663e-05 7.5922e-06 0)
(1.36917e-05 7.9152e-06 0)
(1.37451e-05 8.21849e-06 0)
(1.38172e-05 8.50813e-06 0)
(1.36965e-05 4.57951e-06 0)
(1.33626e-05 5.19636e-06 0)
(1.31086e-05 5.72104e-06 0)
(1.29251e-05 6.16692e-06 0)
(1.28031e-05 6.55934e-06 0)
(1.27305e-05 6.90934e-06 0)
(1.27e-05 7.22812e-06 0)
(1.27026e-05 7.52237e-06 0)
(1.27349e-05 7.79836e-06 0)
(1.27863e-05 8.06141e-06 0)
(1.29379e-05 4.34861e-06 0)
(1.25304e-05 4.93732e-06 0)
(1.22226e-05 5.42965e-06 0)
(1.1999e-05 5.83983e-06 0)
(1.18449e-05 6.19727e-06 0)
(1.17456e-05 6.51338e-06 0)
(1.16917e-05 6.79998e-06 0)
(1.16731e-05 7.06348e-06 0)
(1.16859e-05 7.31041e-06 0)
(1.17183e-05 7.5452e-06 0)
(1.21327e-05 4.09037e-06 0)
(1.1654e-05 4.63747e-06 0)
(1.12962e-05 5.08942e-06 0)
(1.10361e-05 5.45916e-06 0)
(1.08534e-05 5.77854e-06 0)
(1.07302e-05 6.05856e-06 0)
(1.06557e-05 6.31136e-06 0)
(1.06186e-05 6.54268e-06 0)
(1.06139e-05 6.75937e-06 0)
(1.06297e-05 6.96448e-06 0)
(1.1286e-05 3.80902e-06 0)
(1.07427e-05 4.30047e-06 0)
(1.03409e-05 4.70397e-06 0)
(1.00492e-05 5.02852e-06 0)
(9.84212e-06 5.30718e-06 0)
(9.69907e-06 5.54948e-06 0)
(9.60726e-06 5.76741e-06 0)
(9.55461e-06 5.96601e-06 0)
(9.53494e-06 6.15164e-06 0)
(9.53725e-06 6.32669e-06 0)
(1.04037e-05 3.50987e-06 0)
(9.80601e-06 3.93186e-06 0)
(9.36832e-06 4.27937e-06 0)
(9.05111e-06 4.55461e-06 0)
(8.82485e-06 4.79045e-06 0)
(8.6663e-06 4.9941e-06 0)
(8.561e-06 5.177e-06 0)
(8.49628e-06 5.34289e-06 0)
(8.46459e-06 5.49799e-06 0)
(8.45723e-06 5.64113e-06 0)
(1.74072e-05 9.94928e-06 0)
(1.76094e-05 1.03066e-05 0)
(1.78272e-05 1.0658e-05 0)
(1.8059e-05 1.10053e-05 0)
(1.83034e-05 1.13502e-05 0)
(1.85592e-05 1.16937e-05 0)
(1.88252e-05 1.20371e-05 0)
(1.91002e-05 1.23811e-05 0)
(1.93834e-05 1.27265e-05 0)
(1.96738e-05 1.30739e-05 0)
(1.99705e-05 1.34238e-05 0)
(2.02727e-05 1.37768e-05 0)
(2.05798e-05 1.4133e-05 0)
(2.08908e-05 1.44929e-05 0)
(2.12053e-05 1.48567e-05 0)
(2.15223e-05 1.52243e-05 0)
(2.18413e-05 1.55958e-05 0)
(2.21616e-05 1.59709e-05 0)
(2.24826e-05 1.63489e-05 0)
(2.28035e-05 1.67287e-05 0)
(1.67004e-05 9.77198e-06 0)
(1.69282e-05 1.01234e-05 0)
(1.71682e-05 1.04693e-05 0)
(1.74185e-05 1.08117e-05 0)
(1.76788e-05 1.11525e-05 0)
(1.79479e-05 1.14924e-05 0)
(1.8225e-05 1.18329e-05 0)
(1.85095e-05 1.21746e-05 0)
(1.88005e-05 1.25184e-05 0)
(1.90974e-05 1.28646e-05 0)
(1.93997e-05 1.32139e-05 0)
(1.97067e-05 1.35667e-05 0)
(2.00178e-05 1.39233e-05 0)
(2.03325e-05 1.42841e-05 0)
(2.06503e-05 1.46491e-05 0)
(2.09707e-05 1.50185e-05 0)
(2.12933e-05 1.53922e-05 0)
(2.16173e-05 1.57699e-05 0)
(2.19425e-05 1.6151e-05 0)
(2.22681e-05 1.65347e-05 0)
(1.58945e-05 9.52468e-06 0)
(1.6155e-05 9.87689e-06 0)
(1.64243e-05 1.02237e-05 0)
(1.67e-05 1.05669e-05 0)
(1.69826e-05 1.09087e-05 0)
(1.7271e-05 1.12498e-05 0)
(1.75652e-05 1.15917e-05 0)
(1.78645e-05 1.19349e-05 0)
(1.81687e-05 1.22804e-05 0)
(1.84772e-05 1.26287e-05 0)
(1.87898e-05 1.29803e-05 0)
(1.9106e-05 1.33357e-05 0)
(1.94256e-05 1.36952e-05 0)
(1.97482e-05 1.4059e-05 0)
(2.00734e-05 1.44275e-05 0)
(2.0401e-05 1.48008e-05 0)
(2.07306e-05 1.51788e-05 0)
(2.10617e-05 1.55615e-05 0)
(2.1394e-05 1.59485e-05 0)
(2.17267e-05 1.63393e-05 0)
(1.50013e-05 9.21305e-06 0)
(1.53005e-05 9.57116e-06 0)
(1.56052e-05 9.92411e-06 0)
(1.59119e-05 1.02727e-05 0)
(1.62225e-05 1.06199e-05 0)
(1.65357e-05 1.09661e-05 0)
(1.68521e-05 1.1313e-05 0)
(1.71711e-05 1.16612e-05 0)
(1.74931e-05 1.20116e-05 0)
(1.78176e-05 1.23648e-05 0)
(1.81447e-05 1.27215e-05 0)
(1.84742e-05 1.3082e-05 0)
(1.8806e-05 1.34467e-05 0)
(1.914e-05 1.38161e-05 0)
(1.94759e-05 1.41903e-05 0)
(1.98138e-05 1.45697e-05 0)
(2.01532e-05 1.49543e-05 0)
(2.0494e-05 1.53442e-05 0)
(2.08358e-05 1.57396e-05 0)
(2.11778e-05 1.61402e-05 0)
(1.40402e-05 8.83128e-06 0)
(1.43826e-05 9.20107e-06 0)
(1.47273e-05 9.56599e-06 0)
(1.50693e-05 9.92525e-06 0)
(1.54121e-05 1.02827e-05 0)
(1.5754e-05 1.06385e-05 0)
(1.60965e-05 1.09945e-05 0)
(1.64391e-05 1.13514e-05 0)
(1.67823e-05 1.17102e-05 0)
(1.71263e-05 1.20716e-05 0)
(1.74711e-05 1.24362e-05 0)
(1.78169e-05 1.28046e-05 0)
(1.81637e-05 1.31773e-05 0)
(1.85117e-05 1.35545e-05 0)
(1.88609e-05 1.39368e-05 0)
(1.92113e-05 1.43244e-05 0)
(1.95627e-05 1.47178e-05 0)
(1.99151e-05 1.51171e-05 0)
(2.02683e-05 1.5523e-05 0)
(2.06214e-05 1.59355e-05 0)
(1.30268e-05 8.3818e-06 0)
(1.34155e-05 8.76864e-06 0)
(1.38036e-05 9.15099e-06 0)
(1.41841e-05 9.52579e-06 0)
(1.45623e-05 9.89808e-06 0)
(1.49361e-05 1.02676e-05 0)
(1.53076e-05 1.06367e-05 0)
(1.56766e-05 1.10059e-05 0)
(1.6044e-05 1.13765e-05 0)
(1.641e-05 1.17492e-05 0)
(1.6775e-05 1.21248e-05 0)
(1.71394e-05 1.25038e-05 0)
(1.75036e-05 1.28869e-05 0)
(1.78677e-05 1.32744e-05 0)
(1.82319e-05 1.3667e-05 0)
(1.85965e-05 1.4065e-05 0)
(1.89616e-05 1.44691e-05 0)
(1.93271e-05 1.48797e-05 0)
(1.96931e-05 1.52978e-05 0)
(2.00588e-05 1.57237e-05 0)
(1.19777e-05 7.86561e-06 0)
(1.24143e-05 8.2749e-06 0)
(1.28478e-05 8.67994e-06 0)
(1.32689e-05 9.07524e-06 0)
(1.36845e-05 9.46683e-06 0)
(1.40924e-05 9.85439e-06 0)
(1.44951e-05 1.02403e-05 0)
(1.48926e-05 1.06255e-05 0)
(1.52861e-05 1.10112e-05 0)
(1.5676e-05 1.13983e-05 0)
(1.60631e-05 1.17877e-05 0)
(1.64478e-05 1.218e-05 0)
(1.68308e-05 1.2576e-05 0)
(1.72124e-05 1.29762e-05 0)
(1.75931e-05 1.33813e-05 0)
(1.79732e-05 1.37918e-05 0)
(1.83531e-05 1.42084e-05 0)
(1.87328e-05 1.46318e-05 0)
(1.91125e-05 1.50634e-05 0)
(1.94922e-05 1.55037e-05 0)
(1.09087e-05 7.2875e-06 0)
(1.13932e-05 7.72427e-06 0)
(1.18726e-05 8.15623e-06 0)
(1.23351e-05 8.57661e-06 0)
(1.27891e-05 8.99146e-06 0)
(1.32323e-05 9.40102e-06 0)
(1.36675e-05 9.80748e-06 0)
(1.40949e-05 1.02121e-05 0)
(1.45159e-05 1.06161e-05 0)
(1.49311e-05 1.10206e-05 0)
(1.53415e-05 1.14266e-05 0)
(1.57478e-05 1.18348e-05 0)
(1.61508e-05 1.22462e-05 0)
(1.6551e-05 1.26613e-05 0)
(1.6949e-05 1.30808e-05 0)
(1.73454e-05 1.35056e-05 0)
(1.77407e-05 1.39363e-05 0)
(1.81353e-05 1.43739e-05 0)
(1.85296e-05 1.482e-05 0)
(1.89238e-05 1.52752e-05 0)
(9.8355e-06 6.65304e-06 0)
(1.03666e-05 7.12254e-06 0)
(1.08907e-05 7.5847e-06 0)
(1.13949e-05 8.03434e-06 0)
(1.18872e-05 8.47577e-06 0)
(1.23661e-05 8.91051e-06 0)
(1.28341e-05 9.34052e-06 0)
(1.32919e-05 9.76741e-06 0)
(1.37409e-05 1.01926e-05 0)
(1.41821e-05 1.06173e-05 0)
(1.46164e-05 1.10425e-05 0)
(1.50449e-05 1.14692e-05 0)
(1.54684e-05 1.18983e-05 0)
(1.58878e-05 1.23305e-05 0)
(1.63037e-05 1.27666e-05 0)
(1.67169e-05 1.32074e-05 0)
(1.7128e-05 1.36538e-05 0)
(1.75379e-05 1.41067e-05 0)
(1.79469e-05 1.4568e-05 0)
(1.83561e-05 1.50384e-05 0)
(8.77075e-06 5.97206e-06 0)
(9.34611e-06 6.47756e-06 0)
(9.91008e-06 6.97081e-06 0)
(1.04549e-05 7.45276e-06 0)
(1.09847e-05 7.92424e-06 0)
(1.14994e-05 8.38753e-06 0)
(1.20007e-05 8.84432e-06 0)
(1.24895e-05 9.29642e-06 0)
(1.29672e-05 9.74538e-06 0)
(1.34349e-05 1.01926e-05 0)
(1.38937e-05 1.06393e-05 0)
(1.43448e-05 1.10866e-05 0)
(1.47891e-05 1.15353e-05 0)
(1.52278e-05 1.19864e-05 0)
(1.56617e-05 1.24407e-05 0)
(1.60918e-05 1.28989e-05 0)
(1.65188e-05 1.33622e-05 0)
(1.69439e-05 1.38315e-05 0)
(1.73677e-05 1.43084e-05 0)
(1.77918e-05 1.4794e-05 0)
(7.94952e-06 5.462e-06 0)
(8.54938e-06 5.99361e-06 0)
(9.13431e-06 6.50436e-06 0)
(9.70116e-06 7.00466e-06 0)
(1.02522e-05 7.49446e-06 0)
(1.07876e-05 7.97589e-06 0)
(1.13086e-05 8.45054e-06 0)
(1.18161e-05 8.91997e-06 0)
(1.23113e-05 9.38562e-06 0)
(1.27953e-05 9.8488e-06 0)
(1.32693e-05 1.03107e-05 0)
(1.37344e-05 1.07722e-05 0)
(1.41916e-05 1.12344e-05 0)
(1.4642e-05 1.16981e-05 0)
(1.50867e-05 1.2164e-05 0)
(1.55266e-05 1.26329e-05 0)
(1.59628e-05 1.31058e-05 0)
(1.63966e-05 1.35835e-05 0)
(1.68286e-05 1.40675e-05 0)
(1.72611e-05 1.45586e-05 0)
(7.40166e-06 5.1576e-06 0)
(8.00154e-06 5.68899e-06 0)
(8.58661e-06 6.20373e-06 0)
(9.15528e-06 6.70953e-06 0)
(9.7091e-06 7.20618e-06 0)
(1.02479e-05 7.69517e-06 0)
(1.07729e-05 8.17775e-06 0)
(1.12845e-05 8.65517e-06 0)
(1.1784e-05 9.12862e-06 0)
(1.22722e-05 9.5992e-06 0)
(1.27501e-05 1.00679e-05 0)
(1.32188e-05 1.05357e-05 0)
(1.36792e-05 1.10033e-05 0)
(1.41325e-05 1.14714e-05 0)
(1.45797e-05 1.19408e-05 0)
(1.50217e-05 1.24122e-05 0)
(1.54597e-05 1.28863e-05 0)
(1.5895e-05 1.33639e-05 0)
(1.63283e-05 1.3846e-05 0)
(1.67624e-05 1.43334e-05 0)
(6.91812e-06 4.86561e-06 0)
(7.50712e-06 5.39523e-06 0)
(8.08614e-06 5.91127e-06 0)
(8.65037e-06 6.42035e-06 0)
(9.20188e-06 6.9219e-06 0)
(9.7396e-06 7.41684e-06 0)
(1.02646e-05 7.90609e-06 0)
(1.07769e-05 8.39051e-06 0)
(1.12776e-05 8.87105e-06 0)
(1.17673e-05 9.34854e-06 0)
(1.22469e-05 9.82379e-06 0)
(1.27173e-05 1.02975e-05 0)
(1.31794e-05 1.07704e-05 0)
(1.36342e-05 1.1243e-05 0)
(1.40828e-05 1.1716e-05 0)
(1.45261e-05 1.21898e-05 0)
(1.49651e-05 1.2665e-05 0)
(1.54014e-05 1.31422e-05 0)
(1.58357e-05 1.36221e-05 0)
(1.62708e-05 1.41051e-05 0)
(6.48484e-06 4.58475e-06 0)
(7.05963e-06 5.10989e-06 0)
(7.62816e-06 5.62527e-06 0)
(8.18389e-06 6.13619e-06 0)
(8.72909e-06 6.64141e-06 0)
(9.26205e-06 7.14132e-06 0)
(9.7836e-06 7.63641e-06 0)
(1.02936e-05 8.12717e-06 0)
(1.07928e-05 8.61423e-06 0)
(1.12815e-05 9.09818e-06 0)
(1.17607e-05 9.5796e-06 0)
(1.22309e-05 1.0059e-05 0)
(1.26932e-05 1.0537e-05 0)
(1.31482e-05 1.10139e-05 0)
(1.35971e-05 1.14903e-05 0)
(1.40407e-05 1.19663e-05 0)
(1.44802e-05 1.24425e-05 0)
(1.49168e-05 1.29192e-05 0)
(1.53516e-05 1.33966e-05 0)
(1.57873e-05 1.38749e-05 0)
(6.09682e-06 4.31788e-06 0)
(6.6542e-06 4.83695e-06 0)
(7.20868e-06 5.35e-06 0)
(7.75247e-06 5.86104e-06 0)
(8.28806e-06 6.36834e-06 0)
(8.81314e-06 6.87183e-06 0)
(9.3284e-06 7.37153e-06 0)
(9.8334e-06 7.86759e-06 0)
(1.03286e-05 8.36031e-06 0)
(1.08143e-05 8.85e-06 0)
(1.12911e-05 9.33702e-06 0)
(1.17596e-05 9.82171e-06 0)
(1.22205e-05 1.03044e-05 0)
(1.26746e-05 1.07853e-05 0)
(1.31228e-05 1.12648e-05 0)
(1.35659e-05 1.1743e-05 0)
(1.40051e-05 1.222e-05 0)
(1.44413e-05 1.26959e-05 0)
(1.48764e-05 1.31705e-05 0)
(1.53124e-05 1.36439e-05 0)
(5.74656e-06 4.06485e-06 0)
(6.28481e-06 4.57639e-06 0)
(6.82288e-06 5.08565e-06 0)
(7.35239e-06 5.59544e-06 0)
(7.87584e-06 6.10351e-06 0)
(8.3906e-06 6.60939e-06 0)
(8.89718e-06 7.11263e-06 0)
(9.39491e-06 7.61303e-06 0)
(9.88411e-06 8.11057e-06 0)
(1.03649e-05 8.60527e-06 0)
(1.08376e-05 9.09725e-06 0)
(1.13028e-05 9.58665e-06 0)
(1.17611e-05 1.00736e-05 0)
(1.22132e-05 1.05582e-05 0)
(1.26597e-05 1.10405e-05 0)
(1.31017e-05 1.15205e-05 0)
(1.35399e-05 1.19981e-05 0)
(1.39757e-05 1.24731e-05 0)
(1.44099e-05 1.2945e-05 0)
(1.4845e-05 1.34138e-05 0)
(5.42798e-06 3.82578e-06 0)
(5.94601e-06 4.32895e-06 0)
(6.46602e-06 4.83338e-06 0)
(6.97951e-06 5.34072e-06 0)
(7.48892e-06 5.84838e-06 0)
(7.99142e-06 6.3555e-06 0)
(8.48742e-06 6.86119e-06 0)
(8.97607e-06 7.36493e-06 0)
(9.45752e-06 7.86637e-06 0)
(9.93173e-06 8.36527e-06 0)
(1.0399e-05 8.8615e-06 0)
(1.08597e-05 9.35497e-06 0)
(1.13142e-05 9.84563e-06 0)
(1.17632e-05 1.03334e-05 0)
(1.22074e-05 1.08182e-05 0)
(1.26474e-05 1.12997e-05 0)
(1.30841e-05 1.17778e-05 0)
(1.35187e-05 1.2252e-05 0)
(1.39518e-05 1.27213e-05 0)
(1.43859e-05 1.31855e-05 0)
(5.13509e-06 3.60004e-06 0)
(5.63237e-06 4.09431e-06 0)
(6.13334e-06 4.59314e-06 0)
(6.62965e-06 5.09715e-06 0)
(7.12365e-06 5.60345e-06 0)
(7.61247e-06 6.11082e-06 0)
(8.0964e-06 6.61801e-06 0)
(8.5745e-06 7.12417e-06 0)
(9.04681e-06 7.62863e-06 0)
(9.51314e-06 8.13092e-06 0)
(9.97371e-06 8.63066e-06 0)
(1.04287e-05 9.12756e-06 0)
(1.08786e-05 9.62136e-06 0)
(1.13237e-05 1.01118e-05 0)
(1.17647e-05 1.05987e-05 0)
(1.22022e-05 1.10815e-05 0)
(1.26369e-05 1.15599e-05 0)
(1.30698e-05 1.20331e-05 0)
(1.35015e-05 1.25001e-05 0)
(1.39341e-05 1.29602e-05 0)
(4.86254e-06 3.38691e-06 0)
(5.33889e-06 3.87215e-06 0)
(5.82021e-06 4.36494e-06 0)
(6.29858e-06 4.86497e-06 0)
(6.77621e-06 5.36917e-06 0)
(7.2503e-06 5.87597e-06 0)
(7.72105e-06 6.38379e-06 0)
(8.18748e-06 6.8915e-06 0)
(8.64954e-06 7.39816e-06 0)
(9.10695e-06 7.90303e-06 0)
(9.55983e-06 8.40553e-06 0)
(1.00083e-05 8.90517e-06 0)
(1.04526e-05 9.40151e-06 0)
(1.08932e-05 9.89415e-06 0)
(1.13304e-05 1.03826e-05 0)
(1.17649e-05 1.08665e-05 0)
(1.21971e-05 1.1345e-05 0)
(1.2628e-05 1.18174e-05 0)
(1.30579e-05 1.22823e-05 0)
(1.34887e-05 1.27389e-05 0)
(4.60537e-06 3.18555e-06 0)
(5.06079e-06 3.66189e-06 0)
(5.52219e-06 4.14844e-06 0)
(5.98216e-06 4.64409e-06 0)
(6.44277e-06 5.14562e-06 0)
(6.90138e-06 5.65118e-06 0)
(7.35815e-06 6.15889e-06 0)
(7.81208e-06 6.66739e-06 0)
(8.26305e-06 7.17546e-06 0)
(8.71074e-06 7.68217e-06 0)
(9.15517e-06 8.1867e-06 0)
(9.59639e-06 8.6884e-06 0)
(1.00346e-05 9.18666e-06 0)
(1.047e-05 9.68093e-06 0)
(1.0903e-05 1.01706e-05 0)
(1.1334e-05 1.06552e-05 0)
(1.17634e-05 1.11337e-05 0)
(1.21919e-05 1.16053e-05 0)
(1.26198e-05 1.20685e-05 0)
(1.30484e-05 1.25223e-05 0)
(4.35903e-06 2.99513e-06 0)
(4.79362e-06 3.46293e-06 0)
(5.23495e-06 3.94324e-06 0)
(5.67624e-06 4.43431e-06 0)
(6.11944e-06 4.93279e-06 0)
(6.56209e-06 5.43657e-06 0)
(7.00433e-06 5.94357e-06 0)
(7.44517e-06 6.45216e-06 0)
(7.88447e-06 6.96093e-06 0)
(8.32187e-06 7.46874e-06 0)
(8.75731e-06 7.9746e-06 0)
(9.19076e-06 8.47769e-06 0)
(9.62232e-06 8.97726e-06 0)
(1.00522e-05 9.47263e-06 0)
(1.04806e-05 9.96312e-06 0)
(1.09078e-05 1.0448e-05 0)
(1.13341e-05 1.09264e-05 0)
(1.176e-05 1.13974e-05 0)
(1.21857e-05 1.18593e-05 0)
(1.26119e-05 1.23111e-05 0)
(4.11926e-06 2.81494e-06 0)
(4.53308e-06 3.27471e-06 0)
(4.95429e-06 3.74896e-06 0)
(5.37676e-06 4.23538e-06 0)
(5.80231e-06 4.73054e-06 0)
(6.22871e-06 5.23214e-06 0)
(6.65608e-06 5.73787e-06 0)
(7.08349e-06 6.24595e-06 0)
(7.51076e-06 6.75476e-06 0)
(7.93751e-06 7.263e-06 0)
(8.36362e-06 7.76951e-06 0)
(8.789e-06 8.27334e-06 0)
(9.21366e-06 8.77361e-06 0)
(9.63768e-06 9.26955e-06 0)
(1.00612e-05 9.7604e-06 0)
(1.04844e-05 1.02454e-05 0)
(1.09075e-05 1.07235e-05 0)
(1.13307e-05 1.1194e-05 0)
(1.1754e-05 1.1655e-05 0)
(1.21777e-05 1.21057e-05 0)
(3.88191e-06 2.64433e-06 0)
(4.27499e-06 3.09669e-06 0)
(4.67603e-06 3.56513e-06 0)
(5.07961e-06 4.04694e-06 0)
(5.48741e-06 4.53863e-06 0)
(5.89744e-06 5.03771e-06 0)
(6.3098e-06 5.54173e-06 0)
(6.72365e-06 6.04875e-06 0)
(7.13875e-06 6.557e-06 0)
(7.55472e-06 7.06503e-06 0)
(7.97138e-06 7.57156e-06 0)
(8.38856e-06 8.0755e-06 0)
(8.8062e-06 8.5759e-06 0)
(9.22429e-06 9.07189e-06 0)
(9.64287e-06 9.56265e-06 0)
(1.0062e-05 1.00474e-05 0)
(1.04817e-05 1.05252e-05 0)
(1.09021e-05 1.09951e-05 0)
(1.1323e-05 1.14557e-05 0)
(1.17443e-05 1.19061e-05 0)
(3.64292e-06 2.48305e-06 0)
(4.01517e-06 2.9286e-06 0)
(4.396e-06 3.39152e-06 0)
(4.78066e-06 3.8688e-06 0)
(5.1707e-06 4.35686e-06 0)
(5.56439e-06 4.85313e-06 0)
(5.9618e-06 5.35502e-06 0)
(6.36214e-06 5.86046e-06 0)
(6.76516e-06 6.36757e-06 0)
(7.17044e-06 6.87478e-06 0)
(7.57774e-06 7.38072e-06 0)
(7.98682e-06 7.88419e-06 0)
(8.39753e-06 8.38415e-06 0)
(8.80976e-06 8.87968e-06 0)
(9.22345e-06 9.36994e-06 0)
(9.63854e-06 9.85411e-06 0)
(1.00549e-05 1.03314e-05 0)
(1.04725e-05 1.08009e-05 0)
(1.08911e-05 1.12614e-05 0)
(1.131e-05 1.17122e-05 0)
(3.39804e-06 2.33061e-06 0)
(3.74928e-06 2.76996e-06 0)
(4.1098e-06 3.22766e-06 0)
(4.47557e-06 3.70047e-06 0)
(4.84796e-06 4.18481e-06 0)
(5.2255e-06 4.67798e-06 0)
(5.60819e-06 5.17735e-06 0)
(5.99531e-06 5.68073e-06 0)
(6.38656e-06 6.18617e-06 0)
(6.78149e-06 6.692e-06 0)
(7.17977e-06 7.19676e-06 0)
(7.58108e-06 7.6992e-06 0)
(7.98518e-06 8.19821e-06 0)
(8.39185e-06 8.69282e-06 0)
(8.8009e-06 9.18217e-06 0)
(9.21214e-06 9.66548e-06 0)
(9.6254e-06 1.0142e-05 0)
(1.00404e-05 1.06111e-05 0)
(1.04567e-05 1.10718e-05 0)
(1.08735e-05 1.15237e-05 0)
(3.14292e-06 2.18749e-06 0)
(3.47286e-06 2.62106e-06 0)
(3.81296e-06 3.07368e-06 0)
(4.15992e-06 3.54199e-06 0)
(4.5149e-06 4.02237e-06 0)
(4.87662e-06 4.51211e-06 0)
(5.24505e-06 5.00848e-06 0)
(5.61947e-06 5.50928e-06 0)
(5.99952e-06 6.01248e-06 0)
(6.38468e-06 6.51635e-06 0)
(6.77455e-06 7.01937e-06 0)
(7.16869e-06 7.52022e-06 0)
(7.56675e-06 8.01777e-06 0)
(7.96838e-06 8.51101e-06 0)
(8.37326e-06 8.99908e-06 0)
(8.78107e-06 9.48124e-06 0)
(9.19151e-06 9.95684e-06 0)
(9.60414e-06 1.04254e-05 0)
(1.00185e-05 1.08864e-05 0)
(1.04334e-05 1.13397e-05 0)
(2.8725e-06 2.05292e-06 0)
(3.1808e-06 2.48108e-06 0)
(3.50041e-06 2.9287e-06 0)
(3.82876e-06 3.39242e-06 0)
(4.16673e-06 3.86863e-06 0)
(4.51322e-06 4.35457e-06 0)
(4.86808e-06 4.84753e-06 0)
(5.2306e-06 5.34526e-06 0)
(5.60032e-06 5.84569e-06 0)
(5.97663e-06 6.34706e-06 0)
(6.35901e-06 6.84783e-06 0)
(6.74692e-06 7.34663e-06 0)
(7.13983e-06 7.84228e-06 0)
(7.53726e-06 8.33377e-06 0)
(7.93873e-06 8.82024e-06 0)
(8.34378e-06 9.30097e-06 0)
(8.75195e-06 9.77545e-06 0)
(9.16269e-06 1.02434e-05 0)
(9.57541e-06 1.07046e-05 0)
(9.98895e-06 1.11596e-05 0)
(2.58177e-06 1.92893e-06 0)
(2.86806e-06 2.35155e-06 0)
(3.16721e-06 2.79384e-06 0)
(3.4773e-06 3.25251e-06 0)
(3.79887e-06 3.72397e-06 0)
(4.13095e-06 4.2055e-06 0)
(4.47324e-06 4.69437e-06 0)
(4.82495e-06 5.18834e-06 0)
(5.18552e-06 5.68533e-06 0)
(5.55421e-06 6.18358e-06 0)
(5.93036e-06 6.68148e-06 0)
(6.31326e-06 7.17769e-06 0)
(6.70225e-06 7.67099e-06 0)
(7.09665e-06 8.16035e-06 0)
(7.49581e-06 8.64492e-06 0)
(7.89908e-06 9.12401e-06 0)
(8.30583e-06 9.59719e-06 0)
(8.71537e-06 1.00643e-05 0)
(9.12699e-06 1.05256e-05 0)
(9.53959e-06 1.0982e-05 0)
(2.26347e-06 1.81257e-06 0)
(2.52753e-06 2.22957e-06 0)
(2.80649e-06 2.66627e-06 0)
(3.099e-06 3.11954e-06 0)
(3.40516e-06 3.58585e-06 0)
(3.72407e-06 4.0625e-06 0)
(4.05518e-06 4.54681e-06 0)
(4.39764e-06 5.03653e-06 0)
(4.75069e-06 5.5296e-06 0)
(5.11345e-06 6.02424e-06 0)
(5.48508e-06 6.51888e-06 0)
(5.86471e-06 7.01212e-06 0)
(6.25148e-06 7.50275e-06 0)
(6.64453e-06 7.98975e-06 0)
(7.043e-06 8.47224e-06 0)
(7.446e-06 8.94956e-06 0)
(7.85269e-06 9.42131e-06 0)
(8.26213e-06 9.88748e-06 0)
(8.6735e-06 1.03486e-05 0)
(9.08569e-06 1.08059e-05 0)
(1.91346e-06 1.71049e-06 0)
(2.15521e-06 2.12052e-06 0)
(2.41453e-06 2.55027e-06 0)
(2.69036e-06 2.99681e-06 0)
(2.9824e-06 3.45667e-06 0)
(3.28962e-06 3.92722e-06 0)
(3.61126e-06 4.4058e-06 0)
(3.94627e-06 4.89019e-06 0)
(4.29369e-06 5.37836e-06 0)
(4.65245e-06 5.86852e-06 0)
(5.02154e-06 6.3591e-06 0)
(5.39988e-06 6.84871e-06 0)
(5.78642e-06 7.33615e-06 0)
(6.1801e-06 7.82039e-06 0)
(6.57981e-06 8.30056e-06 0)
(6.98444e-06 8.77603e-06 0)
(7.39283e-06 9.2464e-06 0)
(7.80374e-06 9.71166e-06 0)
(8.21609e-06 1.01724e-05 0)
(8.62855e-06 1.063e-05 0)
(2.77392e-07 3.40863e-08 0)
(8.37287e-07 1.95064e-07 0)
(1.43157e-06 4.8806e-07 0)
(2.06859e-06 8.94216e-07 0)
(2.76087e-06 1.40311e-06 0)
(3.51261e-06 1.99705e-06 0)
(4.32692e-06 2.65701e-06 0)
(5.20238e-06 3.36304e-06 0)
(6.13629e-06 4.09492e-06 0)
(7.12356e-06 4.83605e-06 0)
(2.61269e-07 3.11797e-08 0)
(7.89283e-07 1.77114e-07 0)
(1.34842e-06 4.44067e-07 0)
(1.9451e-06 8.16768e-07 0)
(2.59068e-06 1.28746e-06 0)
(3.28904e-06 1.84137e-06 0)
(4.04339e-06 2.4621e-06 0)
(4.85246e-06 3.13212e-06 0)
(5.71327e-06 3.83206e-06 0)
(6.62056e-06 4.5488e-06 0)
(2.46775e-07 2.76367e-08 0)
(7.46196e-07 1.58765e-07 0)
(1.27421e-06 4.01371e-07 0)
(1.83511e-06 7.42918e-07 0)
(2.439e-06 1.17764e-06 0)
(3.08915e-06 1.69312e-06 0)
(3.789e-06 2.27513e-06 0)
(4.53809e-06 2.90867e-06 0)
(5.33535e-06 3.57618e-06 0)
(6.17516e-06 4.26837e-06 0)
(2.33513e-07 2.34476e-08 0)
(7.06928e-07 1.40187e-07 0)
(1.20737e-06 3.60784e-07 0)
(1.73723e-06 6.74661e-07 0)
(2.30552e-06 1.0775e-06 0)
(2.91463e-06 1.55865e-06 0)
(3.56778e-06 2.10546e-06 0)
(4.26414e-06 2.70457e-06 0)
(5.00393e-06 3.33941e-06 0)
(5.78042e-06 4.00195e-06 0)
(2.21113e-07 1.85823e-08 0)
(6.70262e-07 1.20765e-07 0)
(1.14537e-06 3.20471e-07 0)
(1.64711e-06 6.08595e-07 0)
(2.18352e-06 9.81874e-07 0)
(2.7562e-06 1.43105e-06 0)
(3.36833e-06 1.94485e-06 0)
(4.01871e-06 2.51147e-06 0)
(4.70886e-06 3.11576e-06 0)
(5.42996e-06 3.74961e-06 0)
(2.09472e-07 1.3133e-08 0)
(6.35885e-07 1.00644e-07 0)
(1.08764e-06 2.80654e-07 0)
(1.56388e-06 5.45143e-07 0)
(2.0718e-06 8.91593e-07 0)
(2.61216e-06 1.31175e-06 0)
(3.18797e-06 1.79533e-06 0)
(3.79748e-06 2.33152e-06 0)
(4.44341e-06 2.90656e-06 0)
(5.11552e-06 3.51177e-06 0)
(1.98356e-07 7.08349e-09 0)
(6.03075e-07 7.95586e-08 0)
(1.03281e-06 2.40516e-07 0)
(1.48534e-06 4.82764e-07 0)
(1.96717e-06 8.04324e-07 0)
(2.47832e-06 1.19771e-06 0)
(3.02172e-06 1.65351e-06 0)
(3.59503e-06 2.16164e-06 0)
(4.20182e-06 2.70966e-06 0)
(4.83082e-06 3.28799e-06 0)
(1.87668e-07 5.14072e-10 0)
(5.71556e-07 5.76078e-08 0)
(9.80332e-07 2.00091e-07 0)
(1.41059e-06 4.21407e-07 0)
(1.86824e-06 7.19941e-07 0)
(2.35262e-06 1.08873e-06 0)
(2.86654e-06 1.51904e-06 0)
(3.40724e-06 2.00123e-06 0)
(3.97883e-06 2.52413e-06 0)
(4.5697e-06 3.07735e-06 0)
(1.77281e-07 -6.56079e-09 0)
(5.40933e-07 3.46935e-08 0)
(9.29469e-07 1.59024e-07 0)
(1.33846e-06 3.60373e-07 0)
(1.77329e-06 6.37372e-07 0)
(2.23273e-06 9.83423e-07 0)
(2.71949e-06 1.39034e-06 0)
(3.23053e-06 1.84877e-06 0)
(3.77016e-06 2.34859e-06 0)
(4.32693e-06 2.87882e-06 0)
(1.67129e-07 -1.41077e-08 0)
(5.10971e-07 1.08648e-08 0)
(8.7978e-07 1.17288e-07 0)
(1.2682e-06 2.99516e-07 0)
(1.68115e-06 5.56324e-07 0)
(2.11696e-06 8.8132e-07 0)
(2.5782e-06 1.26672e-06 0)
(3.06175e-06 1.70337e-06 0)
(3.57191e-06 2.18202e-06 0)
(4.09779e-06 2.69131e-06 0)
(1.57121e-07 -2.21245e-08 0)
(4.8139e-07 -1.39379e-08 0)
(8.30815e-07 7.47096e-08 0)
(1.19906e-06 2.38508e-07 0)
(1.59072e-06 4.76287e-07 0)
(2.00372e-06 7.81742e-07 0)
(2.44056e-06 1.14736e-06 0)
(2.89815e-06 1.56413e-06 0)
(3.38067e-06 2.02344e-06 0)
(3.87803e-06 2.51383e-06 0)
(1.47184e-07 -3.06034e-08 0)
(4.52041e-07 -3.97194e-08 0)
(7.82269e-07 3.12455e-08 0)
(1.13051e-06 1.77256e-07 0)
(1.50108e-06 3.97086e-07 0)
(1.89165e-06 6.84407e-07 0)
(2.30466e-06 1.03185e-06 0)
(2.73723e-06 1.43048e-06 0)
(3.1933e-06 1.87219e-06 0)
(3.66377e-06 2.34556e-06 0)
(1.37284e-07 -3.95676e-08 0)
(4.22871e-07 -6.65683e-08 0)
(7.33915e-07 -1.32438e-08 0)
(1.06207e-06 1.15597e-07 0)
(1.41141e-06 3.18503e-07 0)
(1.77949e-06 5.89023e-07 0)
(2.16873e-06 9.19788e-07 0)
(2.57659e-06 1.30193e-06 0)
(3.00678e-06 1.72768e-06 0)
(3.45127e-06 2.18582e-06 0)
(1.27414e-07 -4.90856e-08 0)
(3.93885e-07 -9.45705e-08 0)
(6.85622e-07 -5.87946e-08 0)
(9.93399e-07 5.35927e-08 0)
(1.32097e-06 2.40662e-07 0)
(1.66603e-06 4.95718e-07 0)
(2.03102e-06 8.11264e-07 0)
(2.41392e-06 1.17846e-06 0)
(2.81817e-06 1.5898e-06 0)
(3.23692e-06 2.03434e-06 0)
(1.17644e-07 -5.93e-08 0)
(3.65362e-07 -1.23971e-07 0)
(6.3757e-07 -1.05628e-07 0)
(9.24351e-07 -8.87813e-09 0)
(1.22914e-06 1.63514e-07 0)
(1.55007e-06 4.04443e-07 0)
(1.88974e-06 7.0619e-07 0)
(2.24675e-06 1.05991e-06 0)
(2.62437e-06 1.45829e-06 0)
(3.01693e-06 1.89072e-06 0)
(1.08145e-07 -7.06352e-08 0)
(3.37808e-07 -1.55079e-07 0)
(5.90135e-07 -1.53633e-07 0)
(8.54815e-07 -7.1258e-08 0)
(1.13527e-06 8.7916e-08 0)
(1.43034e-06 3.1621e-07 0)
(1.74299e-06 6.05579e-07 0)
(2.07254e-06 9.47201e-07 0)
(2.42216e-06 1.33394e-06 0)
(2.78738e-06 1.75559e-06 0)
(9.95642e-08 -8.36713e-08 0)
(3.12895e-07 -1.88588e-07 0)
(5.44618e-07 -2.03263e-07 0)
(7.8528e-07 -1.33815e-07 0)
(1.03884e-06 1.37372e-08 0)
(1.30538e-06 2.30861e-07 0)
(1.58846e-06 5.09235e-07 0)
(1.88819e-06 8.40041e-07 0)
(2.20767e-06 1.21631e-06 0)
(2.54367e-06 1.62832e-06 0)
(9.32848e-08 -1.00628e-07 0)
(2.92557e-07 -2.25413e-07 0)
(5.02281e-07 -2.53435e-07 0)
(7.15906e-07 -1.94088e-07 0)
(9.39067e-07 -5.59013e-08 0)
(1.17352e-06 1.51796e-07 0)
(1.42363e-06 4.20455e-07 0)
(1.69043e-06 7.41504e-07 0)
(1.97698e-06 1.10822e-06 0)
(2.28119e-06 1.51141e-06 0)
(9.60682e-08 -1.23408e-07 0)
(2.84024e-07 -2.66913e-07 0)
(4.677e-07 -3.05056e-07 0)
(6.48237e-07 -2.53387e-07 0)
(8.35134e-07 -1.2264e-07 0)
(1.03218e-06 7.69894e-08 0)
(1.24467e-06 3.3702e-07 0)
(1.47432e-06 6.49143e-07 0)
(1.72414e-06 1.00696e-06 0)
(1.99307e-06 1.40192e-06 0)
(1.22264e-07 -1.6384e-07 0)
(2.91795e-07 -3.13647e-07 0)
(4.42919e-07 -3.51447e-07 0)
(5.81922e-07 -3.01618e-07 0)
(7.25842e-07 -1.75778e-07 0)
(8.79478e-07 1.70221e-08 0)
(1.04917e-06 2.68891e-07 0)
(1.23691e-06 5.72277e-07 0)
(1.44586e-06 9.21189e-07 0)
(1.67541e-06 1.30769e-06 0)
)
;

boundaryField
{
    left
    {
        type            fixedDisplacement;
        value           uniform (0 0 0);
    }
    right
    {
        type            solidTraction;
        tractionSeries  
{
        file            "$FOAM_CASE/constant/timeVsTraction";
        outOfBounds     clamp;
}
        pressure        uniform 0;
        secondOrder     false;
        setEffectiveTraction false;
        relaxationFactor 1;
        value           nonuniform List<vector> 
30
(
(2.29633e-05 1.69182e-05 -8.51323e-21)
(2.24288e-05 1.67261e-05 -8.56337e-21)
(2.18896e-05 1.65352e-05 -8.65855e-21)
(2.13442e-05 1.63421e-05 -8.79464e-21)
(2.07925e-05 1.61444e-05 -8.97159e-21)
(2.02359e-05 1.59401e-05 -9.18941e-21)
(1.96762e-05 1.57281e-05 -9.4484e-21)
(1.91158e-05 1.55078e-05 -9.74871e-21)
(1.8557e-05 1.52791e-05 -1.00904e-20)
(1.80023e-05 1.50427e-05 -1.04734e-20)
(1.74775e-05 1.481e-05 -1.068e-20)
(1.69796e-05 1.45813e-05 -1.06592e-20)
(1.64885e-05 1.43492e-05 -1.0646e-20)
(1.60053e-05 1.41148e-05 -1.06401e-20)
(1.55304e-05 1.38798e-05 -1.06427e-20)
(1.50627e-05 1.36458e-05 -1.06531e-20)
(1.46031e-05 1.34136e-05 -1.06702e-20)
(1.41505e-05 1.31849e-05 -1.06937e-20)
(1.37042e-05 1.29607e-05 -1.07222e-20)
(1.32628e-05 1.27419e-05 -1.07548e-20)
(1.28251e-05 1.25292e-05 -1.079e-20)
(1.23896e-05 1.23231e-05 -1.08262e-20)
(1.19549e-05 1.21235e-05 -1.08618e-20)
(1.15195e-05 1.19305e-05 -1.08954e-20)
(1.10818e-05 1.17434e-05 -1.09251e-20)
(1.06409e-05 1.15615e-05 -1.09498e-20)
(1.01957e-05 1.13837e-05 -1.09678e-20)