/*--------------------------------*- C++ -*----------------------------------*\
  =========                 |
  \\      /  F ield         | OpenFOAM: The Open Source CFD Toolbox
   \\    /   O peration     | Website:  https://openfoam.org
    \\  /    A nd           | Version:  9
     \\/     M anipulation  |
\*---------------------------------------------------------------------------*/
FoamFile
{
    format      ascii;
    class       volScalarField;
    location    "15";
    object      epsilonEq;
}
// * * * * * * * * * * * * * * * * * * * * * * * * * * * * * * * * * * * * * //

dimensions      [0 0 0 0 0 0 0];

internalField   nonuniform List<scalar> 
1000
(
1.01447e-05
9.64023e-06
9.5169e-06
9.61837e-06
9.64326e-06
9.63449e-06
9.57384e-06
9.4765e-06
9.36821e-06
9.22841e-06
1.18043e-05
1.07569e-05
1.02489e-05
1.01173e-05
9.98577e-06
9.87095e-06
9.7316e-06
9.58101e-06
9.4088e-06
9.25494e-06
1.34071e-05
1.18302e-05
1.09162e-05
1.05161e-05
1.02033e-05
9.96146e-06
9.72877e-06
9.50987e-06
9.27936e-06
9.09333e-06
1.49309e-05
1.28373e-05
1.15237e-05
1.08193e-05
1.03044e-05
9.91814e-06
9.58297e-06
9.29157e-06
9.00426e-06
8.7843e-06
1.6441e-05
1.37687e-05
1.20638e-05
1.10304e-05
1.02908e-05
9.74498e-06
9.29909e-06
8.93122e-06
8.59121e-06
8.33604e-06
1.7965e-05
1.47101e-05
1.25035e-05
1.11377e-05
1.01556e-05
9.44659e-06
8.88812e-06
8.44541e-06
8.05734e-06
7.76721e-06
1.91915e-05
1.55409e-05
1.27994e-05
1.10943e-05
9.87855e-06
9.0175e-06
8.35978e-06
7.85309e-06
7.42831e-06
7.10747e-06
2.04136e-05
1.60644e-05
1.28735e-05
1.08723e-05
9.46443e-06
8.48854e-06
7.76209e-06
7.21515e-06
6.77254e-06
6.43147e-06
2.15925e-05
1.60271e-05
1.24889e-05
1.02993e-05
8.84465e-06
7.85275e-06
7.12983e-06
6.58737e-06
6.15544e-06
5.8095e-06
2.22579e-05
1.50928e-05
1.15768e-05
9.52245e-06
8.25169e-06
7.36596e-06
6.71696e-06
6.21164e-06
5.80333e-06
5.45645e-06
2.64944e-08
8.03892e-08
3.68417e-07
7.64558e-07
1.19953e-06
1.64883e-06
2.08544e-06
2.5019e-06
2.88459e-06
3.24002e-06
9.65839e-08
5.0601e-07
1.08902e-06
1.665e-06
2.17606e-06
2.62949e-06
3.02457e-06
3.37777e-06
3.68083e-06
3.9656e-06
4.11964e-07
1.20933e-06
1.94684e-06
2.61717e-06
3.17672e-06
3.64134e-06
4.01871e-06
4.33515e-06
4.58273e-06
4.8164e-06
9.52006e-07
2.07162e-06
2.90514e-06
3.61351e-06
4.17768e-06
4.63024e-06
4.98224e-06
5.26391e-06
5.46561e-06
5.65875e-06
1.72369e-06
3.04424e-06
3.93498e-06
4.64932e-06
5.18774e-06
5.60549e-06
5.91678e-06
6.15511e-06
6.30977e-06
6.46168e-06
2.72334e-06
4.07973e-06
4.97419e-06
5.66754e-06
6.16212e-06
6.53066e-06
6.79175e-06
6.98043e-06
7.08677e-06
7.19503e-06
3.93104e-06
5.15928e-06
5.99137e-06
6.63802e-06
7.07427e-06
7.38394e-06
7.58847e-06
7.72319e-06
7.78096e-06
7.84328e-06
5.31699e-06
6.26628e-06
6.96273e-06
7.53027e-06
7.89246e-06
8.13617e-06
8.28142e-06
8.3614e-06
8.37475e-06
8.38718e-06
6.84092e-06
7.38739e-06
7.87755e-06
8.32955e-06
8.60036e-06
8.77082e-06
8.85307e-06
8.87714e-06
8.84845e-06
8.81958e-06
8.46477e-06
8.51381e-06
8.72846e-06
9.02453e-06
9.18311e-06
9.26786e-06
9.28128e-06
9.24513e-06
9.18913e-06
9.09171e-06
3.56068e-06
3.83645e-06
4.09255e-06
4.32425e-06
4.5339e-06
4.7226e-06
4.89207e-06
5.04352e-06
5.17847e-06
5.29794e-06
5.403e-06
5.49438e-06
5.57268e-06
5.63831e-06
5.69145e-06
5.73239e-06
5.76099e-06
5.77818e-06
5.78372e-06
5.78043e-06
4.18572e-06
4.34576e-06
4.50734e-06
4.65748e-06
4.79845e-06
4.9295e-06
5.05069e-06
5.16192e-06
5.26355e-06
5.35566e-06
5.43862e-06
5.51262e-06
5.57791e-06
5.63467e-06
5.68289e-06
5.72263e-06
5.75328e-06
5.77452e-06
5.78342e-06
5.77814e-06
4.94674e-06
4.99766e-06
5.06269e-06
5.12523e-06
5.18896e-06
5.25246e-06
5.31537e-06
5.37655e-06
5.43578e-06
5.49223e-06
5.54573e-06
5.59584e-06
5.64237e-06
5.68503e-06
5.72338e-06
5.75686e-06
5.7839e-06
5.8028e-06
5.80759e-06
5.79501e-06
5.71503e-06
5.67535e-06
5.6576e-06
5.64306e-06
5.63594e-06
5.6352e-06
5.64093e-06
5.65144e-06
5.66657e-06
5.68486e-06
5.70591e-06
5.72873e-06
5.75278e-06
5.77727e-06
5.80128e-06
5.82372e-06
5.84222e-06
5.85456e-06
5.85363e-06
5.8366e-06
6.45254e-06
6.33839e-06
6.24961e-06
6.16901e-06
6.09974e-06
6.04091e-06
5.99376e-06
5.95592e-06
5.92797e-06
5.90797e-06
5.89562e-06
5.88959e-06
5.88913e-06
5.89312e-06
5.9003e-06
5.90921e-06
5.91717e-06
5.92181e-06
5.91625e-06
5.89827e-06
7.12811e-06
6.9547e-06
6.80722e-06
6.67133e-06
6.55015e-06
6.44107e-06
6.34782e-06
6.26666e-06
6.19928e-06
6.14332e-06
6.09877e-06
6.06415e-06
6.03872e-06
6.02124e-06
6.01039e-06
6.00462e-06
6.00145e-06
5.99864e-06
5.99078e-06
5.97591e-06
7.72598e-06
7.50801e-06
7.31607e-06
7.13476e-06
6.97234e-06
6.82046e-06
6.6874e-06
6.56774e-06
6.46459e-06
6.37549e-06
6.30075e-06
6.23895e-06
6.1894e-06
6.15091e-06
6.12227e-06
6.10204e-06
6.08829e-06
6.07913e-06
6.07129e-06
6.06278e-06
8.22941e-06
7.98074e-06
7.76174e-06
7.54314e-06
7.35063e-06
7.16557e-06
7.00101e-06
6.85001e-06
6.71636e-06
6.59809e-06
6.49576e-06
6.40847e-06
6.33577e-06
6.27678e-06
6.23065e-06
6.19625e-06
6.17256e-06
6.15807e-06
6.15219e-06
6.15263e-06
8.63881e-06
8.361e-06
8.14323e-06
7.89847e-06
7.68306e-06
7.47102e-06
7.27861e-06
7.10071e-06
6.94058e-06
6.79722e-06
6.67102e-06
6.56149e-06
6.46837e-06
6.39109e-06
6.32925e-06
6.28215e-06
6.24981e-06
6.23123e-06
6.2287e-06
6.23947e-06
8.94373e-06
8.64655e-06
8.44268e-06
8.20029e-06
7.97565e-06
7.7521e-06
7.54031e-06
7.34098e-06
7.15717e-06
6.98989e-06
6.84011e-06
6.70809e-06
6.59404e-06
6.49784e-06
6.41965e-06
6.35922e-06
6.31773e-06
6.29476e-06
6.29565e-06
6.31739e-06
9.06161e-06
8.78344e-06
8.58199e-06
8.354e-06
8.12972e-06
7.90644e-06
7.69081e-06
7.48496e-06
7.29234e-06
7.11454e-06
6.95319e-06
6.8091e-06
6.68305e-06
6.57544e-06
6.48707e-06
6.41826e-06
6.37127e-06
6.34618e-06
6.35071e-06
6.38168e-06
8.82781e-06
8.68616e-06
8.50166e-06
8.30374e-06
8.10127e-06
7.89656e-06
7.69583e-06
7.5014e-06
7.31705e-06
7.14473e-06
6.98655e-06
6.84378e-06
6.71773e-06
6.60928e-06
6.51979e-06
6.45016e-06
6.40341e-06
6.38015e-06
6.38987e-06
6.4289e-06
8.63916e-06
8.53222e-06
8.39119e-06
8.22182e-06
8.04571e-06
7.86086e-06
7.67654e-06
7.49464e-06
7.31988e-06
7.15441e-06
7.00091e-06
6.86104e-06
6.73654e-06
6.62876e-06
6.53951e-06
6.47021e-06
6.42449e-06
6.40311e-06
6.41662e-06
6.46107e-06
8.41441e-06
8.35084e-06
8.24545e-06
8.10393e-06
7.95301e-06
7.78842e-06
7.62159e-06
7.454e-06
7.29104e-06
7.13503e-06
6.98899e-06
6.85487e-06
6.73474e-06
6.63026e-06
6.54351e-06
6.47643e-06
6.43248e-06
6.41356e-06
6.4309e-06
6.4783e-06
8.15851e-06
8.12917e-06
8.05729e-06
7.94497e-06
7.82087e-06
7.67903e-06
7.53216e-06
7.38147e-06
7.23292e-06
7.08897e-06
6.95298e-06
6.82713e-06
6.71371e-06
6.61469e-06
6.5321e-06
6.46875e-06
6.42643e-06
6.41243e-06
6.42108e-06
6.47949e-06
7.88613e-06
7.88723e-06
7.8455e-06
7.7606e-06
7.6618e-06
7.54245e-06
7.41579e-06
7.28293e-06
7.15011e-06
7.01989e-06
6.89583e-06
6.78024e-06
6.67561e-06
6.58392e-06
6.50765e-06
6.44875e-06
6.41134e-06
6.39739e-06
6.4155e-06
6.46118e-06
7.60226e-06
7.6284e-06
7.61295e-06
7.55364e-06
7.4788e-06
7.38176e-06
7.27558e-06
7.16133e-06
7.04536e-06
6.93024e-06
6.81965e-06
6.71596e-06
6.62174e-06
6.53897e-06
6.47012e-06
6.41699e-06
6.38353e-06
6.37046e-06
6.38723e-06
6.43006e-06
7.31266e-06
7.35947e-06
7.36688e-06
7.33066e-06
7.27786e-06
7.2021e-06
7.11592e-06
7.02042e-06
6.92181e-06
6.82269e-06
6.72669e-06
6.63618e-06
6.5537e-06
6.48114e-06
6.42083e-06
6.37432e-06
6.34504e-06
6.33381e-06
6.34845e-06
6.38539e-06
7.01994e-06
7.08308e-06
7.10985e-06
7.0942e-06
7.06158e-06
7.00604e-06
6.93933e-06
6.86257e-06
6.7817e-06
6.69925e-06
6.61875e-06
6.54248e-06
6.47285e-06
6.41164e-06
6.36089e-06
6.32187e-06
6.29737e-06
6.28773e-06
6.29954e-06
6.32943e-06
6.72538e-06
6.80124e-06
6.84432e-06
6.84689e-06
6.83269e-06
6.79624e-06
6.74837e-06
6.69019e-06
6.62726e-06
6.56197e-06
6.49767e-06
6.43649e-06
6.38066e-06
6.33177e-06
6.2915e-06
6.26082e-06
6.2417e-06
6.23415e-06
6.24275e-06
6.26445e-06
6.4285e-06
6.51407e-06
6.57084e-06
6.58964e-06
6.59245e-06
6.57421e-06
6.54474e-06
6.50509e-06
6.46034e-06
6.41269e-06
6.36522e-06
6.31989e-06
6.27868e-06
6.24296e-06
6.21405e-06
6.19254e-06
6.17955e-06
6.17458e-06
6.18009e-06
6.19333e-06
6.12787e-06
6.22094e-06
6.28945e-06
6.32308e-06
6.34196e-06
6.3414e-06
6.33017e-06
6.30918e-06
6.28295e-06
6.25346e-06
6.22345e-06
6.19464e-06
6.16877e-06
6.14696e-06
6.13017e-06
6.11863e-06
6.11259e-06
6.11102e-06
6.11406e-06
6.11913e-06
5.82059e-06
5.91989e-06
5.99904e-06
6.04688e-06
6.08157e-06
6.09876e-06
6.1061e-06
6.10428e-06
6.09721e-06
6.08657e-06
6.0747e-06
6.0631e-06
6.05322e-06
6.04595e-06
6.04191e-06
6.04104e-06
6.04278e-06
6.04558e-06
6.04723e-06
6.04515e-06
5.50383e-06
5.60917e-06
5.69883e-06
5.76115e-06
5.8122e-06
5.84789e-06
5.87466e-06
5.89294e-06
5.90596e-06
5.91503e-06
5.9221e-06
5.92837e-06
5.93501e-06
5.94273e-06
5.95187e-06
5.96214e-06
5.97238e-06
5.98054e-06
5.98229e-06
5.9747e-06
5.17276e-06
5.28543e-06
5.38684e-06
5.46522e-06
5.5343e-06
5.59019e-06
5.63807e-06
5.67802e-06
5.71253e-06
5.74253e-06
5.7695e-06
5.79435e-06
5.81799e-06
5.84095e-06
5.86341e-06
5.88497e-06
5.90411e-06
5.91846e-06
5.92202e-06
5.91117e-06
4.82562e-06
4.94847e-06
5.06418e-06
5.16139e-06
5.25112e-06
5.32969e-06
5.40091e-06
5.46448e-06
5.52213e-06
5.57435e-06
5.62217e-06
5.6662e-06
5.70708e-06
5.74522e-06
5.78072e-06
5.81321e-06
5.84112e-06
5.86202e-06
5.86901e-06
5.85756e-06
4.45601e-06
4.59446e-06
4.72937e-06
4.85018e-06
4.96484e-06
5.06989e-06
5.1677e-06
5.2576e-06
5.34056e-06
5.41667e-06
5.4865e-06
5.55036e-06
5.60867e-06
5.6617e-06
5.70953e-06
5.75192e-06
5.78762e-06
5.81451e-06
5.82605e-06
5.81687e-06
4.07147e-06
4.23268e-06
4.39287e-06
4.54271e-06
4.68689e-06
4.82213e-06
4.94947e-06
5.06789e-06
5.1777e-06
5.27866e-06
5.37097e-06
5.4547e-06
5.53003e-06
5.59713e-06
5.65604e-06
5.70669e-06
5.74833e-06
5.77951e-06
5.79531e-06
5.79039e-06
3.6653e-06
3.8611e-06
4.0564e-06
4.2434e-06
4.42363e-06
4.59408e-06
4.75476e-06
4.90444e-06
5.04303e-06
5.17007e-06
5.28557e-06
5.3894e-06
5.48157e-06
5.56205e-06
5.63071e-06
5.68748e-06
5.73184e-06
5.76349e-06
5.78018e-06
5.77973e-06
3.28566e-06
3.5256e-06
3.76244e-06
3.99013e-06
4.20851e-06
4.4146e-06
4.60811e-06
4.78772e-06
4.9533e-06
5.1044e-06
5.24099e-06
5.36292e-06
5.47008e-06
5.56223e-06
5.63895e-06
5.69987e-06
5.74416e-06
5.77222e-06
5.78337e-06
5.78169e-06
5.16339e-06
5.50462e-06
6.09594e-06
6.75149e-06
7.40612e-06
7.98328e-06
8.4505e-06
8.78595e-06
8.99366e-06
9.03775e-06
4.89155e-06
5.21134e-06
5.75701e-06
6.3752e-06
7.01385e-06
7.60125e-06
8.1045e-06
8.49148e-06
8.76033e-06
8.86645e-06
4.64764e-06
4.9541e-06
5.46195e-06
6.0399e-06
6.64686e-06
7.21748e-06
7.72437e-06
8.14038e-06
8.46576e-06
8.66644e-06
4.42405e-06
4.72191e-06
5.1988e-06
5.74153e-06
6.31938e-06
6.87223e-06
7.37372e-06
7.79799e-06
8.13887e-06
8.39704e-06
4.21375e-06
4.50602e-06
4.95679e-06
5.46663e-06
6.01385e-06
6.54504e-06
7.03645e-06
7.46756e-06
7.81878e-06
8.10986e-06
4.01578e-06
4.30486e-06
4.73438e-06
5.21537e-06
5.7333e-06
6.2404e-06
6.71415e-06
7.14092e-06
7.4917e-06
7.80388e-06
3.82645e-06
4.11367e-06
4.5254e-06
4.98088e-06
5.47152e-06
5.95515e-06
6.41025e-06
6.82915e-06
7.17423e-06
7.49303e-06
3.64513e-06
3.93107e-06
4.32764e-06
4.76034e-06
5.22525e-06
5.68504e-06
6.1194e-06
6.52606e-06
6.86288e-06
7.18155e-06
3.47052e-06
3.75516e-06
4.13832e-06
4.55048e-06
4.99149e-06
5.42822e-06
5.84177e-06
6.23355e-06
6.55985e-06
6.87262e-06
3.30254e-06
3.58521e-06
3.95567e-06
4.3485e-06
4.76661e-06
5.18042e-06
5.57292e-06
5.94798e-06
6.2628e-06
6.56666e-06
3.14169e-06
3.42083e-06
3.77825e-06
4.15211e-06
4.54778e-06
4.93871e-06
5.3101e-06
5.6671e-06
5.96949e-06
6.26249e-06
2.98909e-06
3.26236e-06
3.60523e-06
3.95907e-06
4.33176e-06
4.69918e-06
5.04911e-06
5.38711e-06
5.67651e-06
5.95768e-06
2.8469e-06
3.11089e-06
3.43587e-06
3.76688e-06
4.11476e-06
4.45736e-06
4.78513e-06
5.10337e-06
5.37936e-06
5.64839e-06
2.71883e-06
2.96828e-06
3.26971e-06
3.57336e-06
3.89323e-06
4.20893e-06
4.51343e-06
4.81125e-06
5.07363e-06
5.33069e-06
2.61196e-06
2.83705e-06
3.10446e-06
3.3729e-06
3.65954e-06
3.94565e-06
4.22574e-06
4.50296e-06
4.75223e-06
4.99834e-06
2.53465e-06
2.71874e-06
2.93805e-06
3.16213e-06
3.40932e-06
3.6627e-06
3.91724e-06
4.17412e-06
4.41139e-06
4.64821e-06
2.50531e-06
2.6158e-06
2.75841e-06
2.9223e-06
3.12276e-06
3.3415e-06
3.57153e-06
3.81061e-06
4.03944e-06
4.27111e-06
2.52837e-06
2.51189e-06
2.55272e-06
2.64758e-06
2.7977e-06
2.9821e-06
3.19058e-06
3.41606e-06
3.64152e-06
3.87317e-06
2.64907e-06
2.38236e-06
2.26093e-06
2.27176e-06
2.37792e-06
2.53918e-06
2.73868e-06
2.96356e-06
3.19825e-06
3.44168e-06
2.69388e-06
2.07866e-06
1.86491e-06
1.81108e-06
1.89612e-06
2.05156e-06
2.2594e-06
2.49967e-06
2.7577e-06
3.02619e-06
)
;

boundaryField
{
    left
    {
        type            calculated;
        value           nonuniform List<scalar> 
30
(
5.1035e-06
4.83416e-06
4.59271e-06
4.37132e-06
4.16353e-06
3.96833e-06
3.78238e-06
3.60518e-06
3.43568e-06
3.27388e-06
3.12073e-06
2.97788e-06
2.84765e-06
2.73407e-06
2.64468e-06
2.59037e-06
2.59352e-06
2.68058e-06
2.94312e-06
3.35045e-06
2.35222e-05
1.48088e-05
1.12141e-05
9.29538e-06
8.11685e-06
7.27661e-06
6.64928e-06
6.15198e-06
5.74671e-06
5.39735e-06
)
;
    }
    right
    {
        type            calculated;
        value           nonuniform List<scalar> 
30
(
5.77945e-06
5.77814e-06
5.79451e-06
5.83583e-06
5.89735e-06
5.97507e-06
6.06218e-06
6.15246e-06
6.23976e-06
6.31837e-06
6.38291e-06
6.43084e-06
6.46319e-06
6.48055e-06
6.48006e-06
6.46302e-06
6.43199e-06
6.38696e-06
6.33058e-06
6.26513e-06
6.19355e-06
6.11893e-06
6.04461e-06
5.97395e-06
5.91035e-06
5.85684e-06
5.81642e-06
5.79026e-06
5.77992e-06
5.7806e-06
)
;
    }
    down
    {
        type            calculated;
        value           nonuniform List<scalar> 
30
(
1.71848e-08
2.8382e-08
2.66519e-07
6.46066e-07
1.08455e-06
1.54391e-06
1.99302e-06
2.42171e-06
2.81568e-06
3.18193e-06
3.51216e-06
3.79994e-06
4.06457e-06
4.30258e-06
4.51739e-06
4.70992e-06
4.88254e-06
5.03641e-06
5.17332e-06
5.29431e-06
5.40058e-06
5.49288e-06
5.57187e-06
5.63797e-06
5.69137e-06
5.7324e-06
5.76092e-06
5.77803e-06
5.78362e-06
5.78183e-06
)
;
    }
    up
    {
        type            calculated;
        value           nonuniform List<scalar> 
30
(
2.65411e-06
2.05344e-06
1.85163e-06
1.79684e-06
1.88012e-06
2.03365e-06
2.24043e-06
2.4806e-06
2.73852e-06
3.00805e-06
3.2682e-06
3.50992e-06
3.7489e-06
3.97835e-06
4.19857e-06
4.40625e-06
4.60129e-06
4.78224e-06
4.94904e-06
5.10119e-06
5.23871e-06
5.36142e-06
5.46923e-06
5.56189e-06
5.63896e-06
5.70007e-06
5.74436e-06
5.7723e-06
5.78326e-06
5.78255e-06
)
;
    }
    hole
    {
        type            calculated;
        value           nonuniform List<scalar> 
20
(
1.02158e-05
1.19405e-05
1.36144e-05
1.52228e-05
1.69048e-05
1.84928e-05
1.97265e-05
2.10712e-05
2.27209e-05
2.40056e-05
1.41712e-08
1.68181e-08
1.92093e-07
6.76422e-07
1.43255e-06
2.45296e-06
3.70398e-06
5.15048e-06
6.7474e-06
8.45284e-06
)
;
    }
    frontAndBack
    {
        type            empty;
    }
}


// ************************************************************************* //
