/*--------------------------------*- C++ -*----------------------------------*\
  =========                 |
  \\      /  F ield         | OpenFOAM: The Open Source CFD Toolbox
   \\    /   O peration     | Website:  https://openfoam.org
    \\  /    A nd           | Version:  9
     \\/     M anipulation  |
\*---------------------------------------------------------------------------*/
FoamFile
{
    format      ascii;
    class       volSymmTensorField;
    location    "15";
    object      epsilon;
}
// * * * * * * * * * * * * * * * * * * * * * * * * * * * * * * * * * * * * * //

dimensions      [0 0 0 0 0 0 0];

internalField   nonuniform List<symmTensor> 
1000
(
(6.24883e-06 -8.14501e-06 7.16343e-19 1.32134e-06 7.88741e-19 2.14849e-33)
(8.66153e-06 -6.27974e-06 -1.31216e-20 -1.54541e-06 7.43186e-21 0)
(9.85518e-06 -4.81498e-06 1.52844e-20 -2.90759e-06 -2.99322e-21 0)
(1.05358e-05 -3.71049e-06 3.94409e-21 -3.87537e-06 -2.83404e-21 0)
(1.08671e-05 -2.81616e-06 -1.66155e-20 -4.40875e-06 1.26925e-21 0)
(1.09844e-05 -2.11627e-06 -1.81161e-21 -4.75109e-06 1.98849e-21 0)
(1.09784e-05 -1.54497e-06 -1.50484e-20 -4.93564e-06 -8.10186e-21 0)
(1.08836e-05 -1.09021e-06 1.03362e-20 -5.02979e-06 4.8353e-21 0)
(1.07609e-05 -7.1249e-07 -5.31222e-21 -5.0645e-06 -6.09632e-21 0)
(1.05758e-05 -3.97894e-07 0 -5.06858e-06 0 0)
(8.4417e-06 -9.04978e-06 6.77043e-19 4.29154e-07 8.74996e-19 1.18534e-34)
(1.03402e-05 -6.49207e-06 0 -2.1592e-06 0 0)
(1.11637e-05 -4.63472e-06 1.21789e-20 -3.27403e-06 5.85238e-21 0)
(1.15592e-05 -3.3051e-06 -2.0924e-20 -4.08589e-06 -1.12306e-20 0)
(1.16688e-05 -2.27969e-06 -8.89649e-21 -4.49266e-06 -5.39632e-21 0)
(1.16082e-05 -1.51374e-06 6.17308e-21 -4.74546e-06 6.36219e-21 0)
(1.14584e-05 -9.1284e-07 6.93807e-21 -4.85909e-06 4.67128e-21 0)
(1.12505e-05 -4.55404e-07 1.6328e-20 -4.90987e-06 9.55048e-21 0)
(1.10145e-05 -8.48593e-08 0 -4.89331e-06 0 0)
(1.07631e-05 2.10285e-07 0 -4.89973e-06 0 0)
(1.08769e-05 -9.61939e-06 6.07839e-19 -7.35197e-07 9.09693e-19 0)
(1.20833e-05 -6.49404e-06 0 -2.83939e-06 0 0)
(1.24266e-05 -4.31644e-06 1.16108e-20 -3.60529e-06 6.06738e-21 0)
(1.24681e-05 -2.80843e-06 -3.53718e-21 -4.18563e-06 1.26728e-21 0)
(1.23132e-05 -1.68904e-06 -1.73277e-22 -4.425e-06 7.80231e-23 0)
(1.20486e-05 -8.84595e-07 -5.75271e-21 -4.56083e-06 -6.02876e-21 0)
(1.17398e-05 -2.77615e-07 7.9092e-21 -4.58776e-06 3.65244e-21 0)
(1.14076e-05 1.65348e-07 -5.85711e-21 -4.58225e-06 -4.34743e-21 0)
(1.10697e-05 5.09324e-07 -4.82092e-22 -4.51795e-06 8.32613e-22 0)
(1.0742e-05 7.88361e-07 -1.24062e-21 -4.51042e-06 -5.28422e-22 0)
(1.3491e-05 -9.76251e-06 5.17072e-19 -2.15235e-06 9.35275e-19 -5.98115e-35)
(1.3836e-05 -6.26555e-06 6.74671e-21 -3.54356e-06 -7.60788e-22 0)
(1.36263e-05 -3.87197e-06 -5.30547e-21 -3.88993e-06 -3.0405e-21 0)
(1.32503e-05 -2.24593e-06 -3.42595e-21 -4.17152e-06 6.91036e-22 0)
(1.27968e-05 -1.08009e-06 6.00099e-21 -4.21236e-06 5.90088e-21 0)
(1.23087e-05 -2.70944e-07 -7.26565e-21 -4.21307e-06 -4.83525e-21 0)
(1.18332e-05 3.1574e-07 -6.27493e-21 -4.14861e-06 -4.49365e-21 0)
(1.1378e-05 7.27884e-07 -1.39837e-20 -4.08677e-06 -1.02867e-20 0)
(1.09437e-05 1.03128e-06 -1.99611e-21 -3.98376e-06 -2.47765e-21 0)
(1.055e-05 1.27735e-06 3.42039e-21 -3.95796e-06 3.05135e-21 0)
(1.61837e-05 -9.48827e-06 4.60963e-19 -3.81068e-06 1.00639e-18 -1.17649e-33)
(1.55623e-05 -5.76946e-06 3.55915e-25 -4.26244e-06 1.09148e-26 0)
(1.47304e-05 -3.29713e-06 -1.72305e-20 -4.12843e-06 -8.56273e-21 0)
(1.38971e-05 -1.6238e-06 1.59529e-21 -4.05137e-06 -8.05078e-23 0)
(1.31137e-05 -4.79799e-07 -2.23056e-21 -3.86465e-06 2.61162e-22 0)
(1.23917e-05 2.89722e-07 5.20706e-21 -3.71644e-06 4.90053e-21 0)
(1.1749e-05 8.21616e-07 -5.94217e-22 -3.55998e-06 1.87527e-22 0)
(1.11768e-05 1.17988e-06 5.52014e-21 -3.44531e-06 3.70308e-21 0)
(1.06598e-05 1.4255e-06 -1.17885e-21 -3.31596e-06 -2.62404e-21 0)
(1.02097e-05 1.625e-06 -2.18004e-21 -3.2768e-06 -1.77487e-21 0)
(1.90769e-05 -8.70869e-06 3.42303e-19 -5.48486e-06 9.58463e-19 -1.25205e-33)
(1.73109e-05 -5.0223e-06 3.28193e-25 -4.99922e-06 6.18479e-26 0)
(1.57231e-05 -2.56488e-06 -1.76854e-25 -4.24662e-06 -2.43595e-26 0)
(1.43932e-05 -9.5849e-07 1.41259e-21 -3.80239e-06 1.43901e-22 0)
(1.32624e-05 8.64228e-08 -7.45174e-21 -3.37453e-06 -4.58852e-21 0)
(1.23094e-05 7.5913e-07 8.61229e-23 -3.08732e-06 -3.13736e-24 0)
(1.15103e-05 1.19977e-06 5.54052e-21 -2.85086e-06 3.78877e-21 0)
(1.08354e-05 1.48084e-06 1.17725e-20 -2.69704e-06 8.70724e-21 0)
(1.02519e-05 1.65547e-06 2.13236e-21 -2.55669e-06 1.57902e-21 0)
(9.75826e-06 1.79768e-06 -3.72165e-21 -2.51201e-06 -2.96881e-21 0)
(2.16552e-05 -7.25859e-06 2.28648e-19 -7.03111e-06 7.49062e-19 -2.36956e-33)
(1.89306e-05 -3.89955e-06 5.16461e-21 -5.66825e-06 1.94764e-21 0)
(1.65193e-05 -1.6457e-06 5.27816e-21 -4.22298e-06 2.43426e-21 0)
(1.46749e-05 -2.71821e-07 -1.16046e-21 -3.3958e-06 -3.09716e-22 0)
(1.32163e-05 5.77368e-07 5.35437e-21 -2.74954e-06 3.70091e-21 0)
(1.20617e-05 1.09064e-06 -4.93562e-21 -2.35235e-06 -3.49449e-21 0)
(1.11377e-05 1.40517e-06 1.42272e-21 -2.06553e-06 1.27602e-23 0)
(1.03871e-05 1.59021e-06 -4.41508e-21 -1.89556e-06 -2.92982e-21 0)
(9.76112e-06 1.68756e-06 -3.07163e-22 -1.7641e-06 6.79942e-23 0)
(9.23968e-06 1.76844e-06 -2.23706e-21 -1.72448e-06 -1.46291e-21 0)
(2.41048e-05 -5.36623e-06 1.23027e-19 -8.32993e-06 4.87478e-19 -7.7539e-35)
(2.01819e-05 -2.3802e-06 -1.33844e-20 -5.9767e-06 -4.80834e-21 0)
(1.70317e-05 -5.48665e-07 1.04206e-22 -3.91096e-06 5.45398e-23 0)
(1.47233e-05 3.87436e-07 1.69598e-21 -2.78403e-06 7.78653e-22 0)
(1.29988e-05 9.34513e-07 1.2274e-20 -1.99754e-06 6.22214e-21 0)
(1.17011e-05 1.23341e-06 -7.36163e-22 -1.5572e-06 -1.82558e-22 0)
(1.06994e-05 1.40148e-06 1.8273e-26 -1.26931e-06 2.21926e-27 0)
(9.90905e-06 1.48714e-06 -4.31866e-21 -1.11627e-06 -2.28829e-21 0)
(9.26692e-06 1.51528e-06 1.054e-22 -1.01512e-06 -9.19761e-24 0)
(8.73455e-06 1.54233e-06 3.23398e-22 -9.91174e-07 1.4901e-22 0)
(2.62181e-05 -2.31737e-06 9.63311e-21 -9.63694e-06 -2.88541e-20 -6.97122e-35)
(2.07336e-05 -3.91514e-07 -1.47244e-20 -5.60442e-06 -5.97513e-21 0)
(1.69628e-05 5.31287e-07 1.52262e-21 -3.10696e-06 1.27369e-21 0)
(1.43552e-05 8.29827e-07 1.4706e-21 -1.88056e-06 1.05375e-21 0)
(1.2544e-05 1.00721e-06 -6.10398e-22 -1.14108e-06 -3.28923e-22 0)
(1.12251e-05 1.07481e-06 4.77948e-21 -7.73326e-07 1.78765e-21 0)
(1.02304e-05 1.11153e-06 2.65788e-22 -5.57082e-07 5.1682e-23 0)
(9.451e-06 1.1204e-06 7.71834e-21 -4.58943e-07 3.00055e-21 0)
(8.82229e-06 1.10742e-06 1.70407e-21 -4.05234e-07 6.71743e-22 0)
(8.29411e-06 1.10246e-06 9.53164e-22 -4.02425e-07 4.2156e-22 0)
(2.7604e-05 2.26494e-06 -5.87922e-21 -9.17207e-06 -3.6719e-19 -1.60005e-33)
(2.01851e-05 2.41366e-06 -1.12769e-21 -3.67245e-06 -1.87326e-21 0)
(1.6292e-05 1.53772e-06 5.10092e-21 -1.62049e-06 2.12456e-21 0)
(1.37889e-05 1.01557e-06 2.67659e-22 -7.4282e-07 3.45867e-22 0)
(1.21192e-05 8.10332e-07 9.15515e-27 -3.49463e-07 7.79126e-27 0)
(1.08899e-05 7.12472e-07 4.86353e-21 -1.77682e-07 8.87834e-22 0)
(9.95734e-06 6.82096e-07 7.73211e-23 -9.64828e-08 1.22388e-23 0)
(9.21054e-06 6.69348e-07 3.72591e-21 -6.86578e-08 7.27282e-22 0)
(8.60047e-06 6.5745e-07 -4.21004e-23 -5.91496e-08 4.8689e-24 0)
(8.07352e-06 6.50508e-07 -6.2904e-23 -6.60769e-08 -1.00516e-23 0)
(-1.72672e-08 2.12054e-08 2.48904e-20 -6.03264e-09 2.86697e-20 1.58392e-34)
(3.62858e-08 -6.558e-08 -2.77836e-22 -7.36695e-09 2.40086e-20 1.44031e-36)
(3.17788e-07 -2.13958e-07 -3.58034e-21 -1.44947e-07 1.2831e-20 1.79967e-35)
(7.66302e-07 -3.34361e-07 -1.99877e-24 -3.51308e-07 1.65721e-20 0)
(1.28446e-06 -4.09872e-07 -4.68383e-22 -5.80924e-07 1.0682e-20 -1.43541e-36)
(1.82727e-06 -4.53701e-07 -4.9118e-21 -8.17026e-07 1.56675e-20 2.98199e-35)
(2.35798e-06 -4.72015e-07 1.08753e-21 -1.04518e-06 2.13085e-20 1.41458e-36)
(2.86456e-06 -4.74631e-07 -3.26904e-21 -1.26101e-06 1.77252e-20 2.66838e-35)
(3.33011e-06 -4.62573e-07 2.62548e-21 -1.4595e-06 1.79144e-20 -1.09488e-35)
(3.76287e-06 -4.50864e-07 5.04649e-21 -1.63859e-06 8.74577e-21 -1.62971e-35)
(6.40658e-08 -6.89404e-08 2.57854e-20 -2.84018e-08 7.3636e-21 4.38853e-35)
(3.42435e-07 -3.90879e-07 3.95787e-21 -1.40151e-09 4.34858e-21 0)
(8.57295e-07 -7.52845e-07 -3.70295e-21 -2.17001e-07 -3.72798e-21 0)
(1.43244e-06 -1.03206e-06 3.96112e-23 -5.09811e-07 -3.08846e-21 0)
(2.00972e-06 -1.20564e-06 0 -8.01904e-07 0 0)
(2.55744e-06 -1.30416e-06 -5.62457e-21 -1.07694e-06 -8.31971e-22 0)
(3.06262e-06 -1.34087e-06 9.31131e-22 -1.32429e-06 4.8461e-21 0)
(3.52853e-06 -1.33911e-06 6.97435e-23 -1.54532e-06 2.60619e-22 0)
(3.93984e-06 -1.30159e-06 -2.99276e-21 -1.73952e-06 -8.80605e-21 0)
(4.32189e-06 -1.27102e-06 2.21996e-21 -1.90451e-06 3.42591e-22 0)
(9.39907e-08 -3.52355e-07 3.08995e-20 9.96223e-08 6.02814e-21 -1.93794e-36)
(6.3129e-07 -9.85562e-07 4.0428e-21 3.69636e-08 4.29634e-21 0)
(1.36091e-06 -1.43518e-06 4.23064e-21 -2.99189e-07 8.87165e-22 0)
(2.07955e-06 -1.73924e-06 2.22058e-22 -7.19022e-07 -2.97884e-21 0)
(2.74118e-06 -1.90898e-06 0 -1.10688e-06 0 0)
(3.32475e-06 -1.98937e-06 -6.28705e-21 -1.44732e-06 -1.64271e-21 0)
(3.83338e-06 -1.99955e-06 -8.57371e-21 -1.73322e-06 -2.4036e-21 0)
(4.28095e-06 -1.96756e-06 5.66465e-21 -1.97373e-06 3.47357e-21 0)
(4.65261e-06 -1.89753e-06 3.40787e-23 -2.16994e-06 1.10949e-22 0)
(4.9991e-06 -1.8381e-06 -5.09148e-21 -2.32909e-06 -3.22854e-21 0)
(1.37347e-07 -7.97503e-07 5.87653e-20 4.10767e-07 1.23659e-20 -4.37196e-35)
(1.02741e-06 -1.70034e-06 9.98149e-22 7.66292e-08 -3.60975e-21 0)
(1.95613e-06 -2.17486e-06 4.64569e-21 -4.11132e-07 9.10185e-22 0)
(2.8049e-06 -2.44397e-06 0 -9.55452e-07 0 0)
(3.54239e-06 -2.55636e-06 -7.93163e-21 -1.43082e-06 2.9634e-21 0)
(4.16181e-06 -2.57725e-06 7.74722e-23 -1.83328e-06 7.32766e-21 0)
(4.67428e-06 -2.53341e-06 -3.84616e-22 -2.15841e-06 -3.93531e-21 0)
(5.10663e-06 -2.45185e-06 -1.12014e-21 -2.42179e-06 -6.07253e-21 0)
(5.44354e-06 -2.33828e-06 2.58454e-21 -2.62494e-06 8.41414e-22 0)
(5.76024e-06 -2.24196e-06 4.82292e-21 -2.78414e-06 1.81515e-21 0)
(2.53495e-07 -1.42816e-06 6.66544e-20 8.46372e-07 3.37361e-20 1.56508e-34)
(1.58574e-06 -2.47926e-06 -8.15499e-21 6.79126e-08 5.48624e-21 0)
(2.71422e-06 -2.90884e-06 -4.94296e-21 -6.25278e-07 -1.45942e-21 0)
(3.6758e-06 -3.08888e-06 -1.34669e-21 -1.30524e-06 5.37335e-21 0)
(4.46531e-06 -3.10112e-06 -5.30699e-23 -1.85984e-06 3.31394e-22 0)
(5.09746e-06 -3.03232e-06 7.62859e-21 -2.31187e-06 -2.05586e-21 0)
(5.59697e-06 -2.91217e-06 3.31925e-21 -2.66337e-06 8.74688e-22 0)
(6.00286e-06 -2.76487e-06 0 -2.9385e-06 0 0)
(6.29821e-06 -2.59931e-06 -3.53756e-21 -3.14055e-06 -4.68141e-21 0)
(6.58004e-06 -2.45818e-06 1.41311e-21 -3.29361e-06 3.44359e-22 0)
(5.11761e-07 -2.25961e-06 1.33275e-19 1.33911e-06 5.58203e-20 -3.03538e-34)
(2.32499e-06 -3.26916e-06 3.33356e-21 7.91586e-09 -6.51081e-21 0)
(3.64384e-06 -3.56837e-06 -4.07309e-21 -9.19031e-07 -4.42255e-21 0)
(4.69176e-06 -3.61198e-06 9.0269e-22 -1.73132e-06 -2.50199e-21 0)
(5.50051e-06 -3.49978e-06 8.62764e-21 -2.34869e-06 2.90029e-21 0)
(6.11718e-06 -3.32669e-06 -8.3287e-21 -2.83172e-06 9.33886e-22 0)
(6.58324e-06 -3.12096e-06 -9.79261e-24 -3.19391e-06 2.22062e-22 0)
(6.94582e-06 -2.90265e-06 -6.47937e-21 -3.4679e-06 -4.48655e-21 0)
(7.18909e-06 -2.68358e-06 1.35318e-23 -3.66031e-06 8.71189e-23 0)
(7.42591e-06 -2.49532e-06 -7.07655e-21 -3.79976e-06 -3.25019e-21 0)
(9.89114e-07 -3.28489e-06 2.5296e-19 1.78455e-06 1.34818e-19 -3.7774e-34)
(3.25226e-06 -4.0373e-06 1.845e-22 -1.22734e-07 -2.80187e-22 0)
(4.72868e-06 -4.11037e-06 -1.35362e-25 -1.28414e-06 2.31352e-25 0)
(5.82347e-06 -3.97565e-06 -8.80128e-21 -2.21568e-06 -6.20748e-21 0)
(6.61569e-06 -3.72058e-06 -1.50358e-21 -2.87666e-06 4.02361e-21 0)
(7.18846e-06 -3.43465e-06 -8.0702e-21 -3.37211e-06 -3.301e-21 0)
(7.59804e-06 -3.14153e-06 1.45071e-20 -3.7283e-06 6.49977e-21 0)
(7.89864e-06 -2.85332e-06 -2.02686e-24 -3.98739e-06 1.74403e-22 0)
(8.07861e-06 -2.58418e-06 2.85684e-21 -4.16073e-06 -1.37835e-23 0)
(8.25807e-06 -2.35059e-06 -3.86951e-21 -4.27874e-06 -1.85116e-21 0)
(1.75924e-06 -4.46604e-06 4.02891e-19 2.08398e-06 2.51402e-19 -8.372e-34)
(4.36333e-06 -4.75214e-06 4.75037e-21 -3.32622e-07 -5.69612e-21 0)
(5.93058e-06 -4.51126e-06 -1.83458e-21 -1.6872e-06 2.45122e-21 0)
(7.02187e-06 -4.16054e-06 1.12133e-21 -2.70805e-06 -1.75268e-21 0)
(7.7602e-06 -3.74906e-06 1.00075e-25 -3.38782e-06 -1.96823e-25 0)
(8.26061e-06 -3.34939e-06 9.36816e-21 -3.87658e-06 7.89758e-22 0)
(8.59322e-06 -2.9735e-06 7.09176e-22 -4.2123e-06 -3.07018e-21 0)
(8.81584e-06 -2.62356e-06 -2.38789e-22 -4.44452e-06 2.52564e-21 0)
(8.92461e-06 -2.31369e-06 3.10661e-23 -4.5937e-06 1.26098e-21 0)
(9.03227e-06 -2.04067e-06 2.95486e-21 -4.68149e-06 2.77804e-21 0)
(2.87986e-06 -5.73232e-06 5.26733e-19 2.14527e-06 4.16131e-19 1.20509e-33)
(5.64949e-06 -5.38122e-06 -1.56059e-21 -6.36487e-07 1.04542e-20 0)
(7.21146e-06 -4.76088e-06 -1.77207e-25 -2.10598e-06 1.86628e-25 0)
(8.23687e-06 -4.16677e-06 1.21101e-20 -3.17112e-06 2.8535e-21 0)
(8.8822e-06 -3.59133e-06 9.24512e-21 -3.83906e-06 4.64166e-21 0)
(9.28191e-06 -3.08279e-06 8.34393e-21 -4.30109e-06 4.18761e-21 0)
(9.51834e-06 -2.63292e-06 -9.21048e-22 -4.60042e-06 2.64081e-21 0)
(9.64652e-06 -2.23407e-06 -1.00528e-20 -4.79668e-06 -5.64123e-21 0)
(9.67915e-06 -1.89307e-06 6.17783e-21 -4.91483e-06 1.46203e-21 0)
(9.70953e-06 -1.58802e-06 2.76899e-21 -4.98111e-06 1.65203e-21 0)
(4.37761e-06 -6.9944e-06 6.33216e-19 1.90535e-06 5.86702e-19 1.82593e-34)
(7.08943e-06 -5.89908e-06 -3.07742e-21 -1.03774e-06 2.29069e-21 0)
(8.52996e-06 -4.86003e-06 -5.93589e-21 -2.51654e-06 -2.7887e-21 0)
(9.41885e-06 -4.00894e-06 2.5762e-20 -3.56667e-06 6.04611e-21 0)
(9.92774e-06 -3.27022e-06 1.58765e-22 -4.187e-06 -1.81008e-22 0)
(1.01971e-05 -2.66034e-06 -8.20431e-21 -4.59899e-06 -4.68112e-21 0)
(1.0318e-05 -2.14625e-06 -8.81223e-21 -4.84871e-06 -1.3765e-21 0)
(1.03399e-05 -1.71155e-06 -3.31468e-21 -4.99569e-06 -1.99017e-21 0)
(1.03007e-05 -1.3591e-06 3.76812e-22 -5.09025e-06 -2.7664e-21 0)
(1.02253e-05 -1.05293e-06 1.64993e-21 -5.09713e-06 3.49473e-21 0)
(4.15309e-06 -4.16782e-07 3.90625e-21 -1.80537e-06 5.24429e-21 -3.43818e-37)
(4.49313e-06 -3.70596e-07 2.85299e-21 -1.94428e-06 -4.68937e-21 7.90521e-36)
(4.80581e-06 -3.30193e-07 -2.93795e-21 -2.07328e-06 -1.69601e-20 9.26679e-36)
(5.08703e-06 -2.93467e-07 -2.01425e-21 -2.19001e-06 -1.8307e-20 5.90907e-37)
(5.34085e-06 -2.59403e-07 -5.1797e-21 -2.29508e-06 -2.2305e-20 -4.49964e-35)
(5.56834e-06 -2.28851e-07 -8.22248e-22 -2.38978e-06 -2.49021e-20 0)
(5.77231e-06 -2.00839e-07 -8.90218e-22 -2.47454e-06 -2.85689e-20 0)
(5.95411e-06 -1.75557e-07 7.2606e-22 -2.55037e-06 -2.97916e-20 -8.96882e-37)
(6.11588e-06 -1.52398e-07 5.26511e-22 -2.61785e-06 -3.42043e-20 2.56097e-35)
(6.25884e-06 -1.31205e-07 2.53556e-21 -2.67764e-06 -3.31814e-20 -1.78599e-36)
(6.38441e-06 -1.11537e-07 3.54475e-21 -2.73023e-06 -3.78942e-20 8.84954e-35)
(6.49347e-06 -9.31245e-08 -2.39622e-21 -2.77603e-06 -4.21233e-20 -3.11344e-35)
(6.58679e-06 -7.56198e-08 3.69327e-21 -2.81535e-06 -4.15077e-20 9.77233e-35)
(6.6649e-06 -5.87735e-08 -6.34865e-21 -2.8484e-06 -5.10962e-20 2.02732e-36)
(6.728e-06 -4.238e-08 -3.7373e-22 -2.87528e-06 -4.41963e-20 -3.54663e-35)
(6.77647e-06 -2.6417e-08 -6.26351e-22 -2.89611e-06 -4.66656e-20 8.56033e-45)
(6.81017e-06 -1.1098e-08 -2.43188e-21 -2.91084e-06 -4.94987e-20 3.91443e-37)
(6.83039e-06 2.73563e-09 1.46175e-21 -2.9197e-06 -4.54121e-20 -2.8315e-37)
(6.83699e-06 1.33403e-08 6.0152e-22 -2.92238e-06 -5.05493e-20 1.11921e-34)
(6.83488e-06 1.59394e-08 -1.08466e-19 -2.91838e-06 -5.59303e-20 2.55735e-34)
(4.63592e-06 -1.18279e-06 5.40175e-21 -2.05294e-06 6.67521e-21 0)
(4.88751e-06 -1.06393e-06 3.51684e-21 -2.15853e-06 9.60166e-22 0)
(5.12816e-06 -9.58834e-07 2.71618e-22 -2.25564e-06 -1.52687e-21 0)
(5.34396e-06 -8.6068e-07 7.95965e-21 -2.34466e-06 7.19826e-21 0)
(5.54273e-06 -7.68622e-07 -1.53397e-21 -2.42409e-06 -3.60076e-22 0)
(5.72217e-06 -6.85307e-07 -6.48475e-21 -2.49696e-06 -6.59827e-21 0)
(5.88559e-06 -6.08156e-07 3.31543e-21 -2.56235e-06 1.22308e-21 0)
(6.03273e-06 -5.38022e-07 0 -2.62176e-06 0 0)
(6.16553e-06 -4.73306e-07 1.5792e-21 -2.67518e-06 5.57232e-22 0)
(6.28433e-06 -4.13755e-07 3.24581e-21 -2.72331e-06 1.24709e-21 0)
(6.39032e-06 -3.58269e-07 9.72884e-21 -2.76635e-06 5.02297e-21 0)
(6.484e-06 -3.06224e-07 4.38147e-23 -2.80467e-06 5.03372e-23 0)
(6.56606e-06 -2.56785e-07 1.26708e-21 -2.8384e-06 -9.90927e-22 0)
(6.63694e-06 -2.09378e-07 1.85307e-21 -2.86765e-06 2.12996e-21 0)
(6.69692e-06 -1.63547e-07 1.90106e-21 -2.89234e-06 2.19061e-21 0)
(6.74638e-06 -1.19278e-07 -1.88322e-21 -2.91221e-06 -2.18088e-21 0)
(6.78499e-06 -7.70722e-08 -1.89387e-21 -2.92658e-06 -2.20537e-21 0)
(6.81325e-06 -3.87299e-08 -3.80331e-21 -2.93425e-06 -4.45443e-21 0)
(6.82886e-06 -6.89072e-09 -2.87819e-23 -2.93243e-06 -3.16298e-23 0)
(6.83262e-06 1.03499e-08 -1.00403e-19 -2.91667e-06 1.89906e-21 -2.20453e-34)
(5.24064e-06 -1.70688e-06 1.47815e-21 -2.45113e-06 2.03354e-21 0)
(5.39841e-06 -1.54594e-06 2.0227e-21 -2.51333e-06 7.22293e-22 0)
(5.56181e-06 -1.40114e-06 -4.68463e-21 -2.56508e-06 -5.93077e-21 0)
(5.70484e-06 -1.2666e-06 -4.25393e-22 -2.61396e-06 1.08376e-21 0)
(5.84199e-06 -1.13834e-06 8.55498e-21 -2.65556e-06 7.14558e-21 0)
(5.96626e-06 -1.02175e-06 -6.79172e-21 -2.69531e-06 -6.50923e-21 0)
(6.08273e-06 -9.12611e-07 -1.80658e-21 -2.73109e-06 -2.10246e-21 0)
(6.18898e-06 -8.12795e-07 3.45273e-21 -2.76485e-06 3.94588e-21 0)
(6.28719e-06 -7.2009e-07 2.33795e-23 -2.79612e-06 -2.56572e-21 0)
(6.37666e-06 -6.34461e-07 -3.65312e-21 -2.82551e-06 -4.12717e-21 0)
(6.45842e-06 -5.54545e-07 3.50042e-21 -2.85299e-06 3.94031e-21 0)
(6.53245e-06 -4.79668e-07 5.40877e-21 -2.87872e-06 6.09173e-21 0)
(6.59924e-06 -4.08833e-07 4.13862e-23 -2.90264e-06 4.58205e-23 0)
(6.65895e-06 -3.41347e-07 -1.85185e-21 -2.92459e-06 -2.09756e-21 0)
(6.71164e-06 -2.76593e-07 1.83314e-21 -2.94413e-06 2.08882e-21 0)
(6.75734e-06 -2.14343e-07 2.70233e-28 -2.96043e-06 3.02261e-28 0)
(6.79506e-06 -1.54728e-07 -1.8885e-21 -2.97184e-06 -2.17873e-21 0)
(6.82435e-06 -9.86534e-08 2.53358e-22 -2.97571e-06 1.57705e-21 0)
(6.84029e-06 -4.77437e-08 -6.22096e-21 -2.96649e-06 -7.84205e-22 0)
(6.84274e-06 -4.07176e-09 -9.93635e-20 -2.93808e-06 -1.41156e-21 -1.64048e-37)
(5.93075e-06 -2.0747e-06 0 -2.88227e-06 0 0)
(5.9917e-06 -1.89111e-06 2.16144e-21 -2.90476e-06 7.8944e-22 0)
(6.07715e-06 -1.72134e-06 1.68863e-21 -2.91382e-06 1.93951e-21 0)
(6.14455e-06 -1.56637e-06 1.85282e-21 -2.9254e-06 2.15586e-21 0)
(6.21722e-06 -1.41544e-06 0 -2.93024e-06 0 0)
(6.28235e-06 -1.27822e-06 2.53995e-22 -2.93726e-06 -1.08867e-21 0)
(6.34798e-06 -1.14817e-06 -5.5503e-21 -2.94302e-06 -3.41668e-21 0)
(6.40908e-06 -1.02864e-06 -3.53729e-21 -2.95018e-06 -3.8616e-21 0)
(6.46857e-06 -9.16844e-07 -1.99159e-21 -2.95797e-06 -9.20111e-22 0)
(6.52456e-06 -8.13167e-07 -1.76488e-23 -2.96696e-06 2.47261e-21 0)
(6.57804e-06 -7.16131e-07 -1.7547e-21 -2.97698e-06 5.46519e-22 0)
(6.62836e-06 -6.25138e-07 3.6636e-21 -2.98801e-06 1.57111e-21 0)
(6.67576e-06 -5.39137e-07 3.48053e-21 -2.9998e-06 1.65684e-22 0)
(6.72e-06 -4.57355e-07 8.18628e-23 -3.01195e-06 1.32227e-21 0)
(6.76075e-06 -3.79014e-07 1.4725e-22 -3.02367e-06 1.40164e-21 0)
(6.79763e-06 -3.03529e-07 -1.8677e-21 -3.03375e-06 -2.1109e-21 0)
(6.82898e-06 -2.30509e-07 -3.98873e-28 -3.03999e-06 -4.51021e-28 0)
(6.85395e-06 -1.5945e-07 3.97985e-21 -3.03924e-06 5.87028e-21 0)
(6.8663e-06 -9.09161e-08 -2.00059e-22 -3.02533e-06 -1.54621e-21 0)
(6.86656e-06 -1.97963e-08 -1.08141e-19 -2.99205e-06 -9.76753e-21 3.16442e-34)
(6.67663e-06 -2.26285e-06 1.61446e-22 -3.36131e-06 2.71163e-21 0)
(6.6375e-06 -2.07908e-06 -2.3474e-21 -3.34339e-06 -1.02967e-21 0)
(6.64484e-06 -1.89935e-06 -5.89946e-21 -3.30644e-06 -4.829e-21 0)
(6.63487e-06 -1.74098e-06 3.88446e-21 -3.27941e-06 2.65454e-21 0)
(6.64221e-06 -1.58181e-06 1.01081e-20 -3.24547e-06 6.66366e-21 0)
(6.64618e-06 -1.43771e-06 -1.85515e-21 -3.21744e-06 -1.94834e-21 0)
(6.65893e-06 -1.29904e-06 0 -3.19073e-06 0 0)
(6.67234e-06 -1.17088e-06 1.80618e-21 -3.16853e-06 1.88836e-21 0)
(6.69038e-06 -1.05001e-06 -5.82021e-21 -3.15007e-06 -2.49044e-21 0)
(6.70996e-06 -9.37289e-07 -3.77264e-21 -3.13586e-06 -2.78949e-21 0)
(6.73206e-06 -8.31329e-07 2.163e-22 -3.1257e-06 -2.15738e-21 0)
(6.75546e-06 -7.3168e-07 -1.89684e-21 -3.11944e-06 -3.2284e-21 0)
(6.78013e-06 -6.37346e-07 -2.0096e-22 -3.1167e-06 3.39481e-21 0)
(6.80544e-06 -5.47486e-07 3.70969e-21 -3.11688e-06 5.25907e-21 0)
(6.83072e-06 -4.61162e-07 1.80984e-21 -3.11903e-06 7.71246e-22 0)
(6.85527e-06 -3.77323e-07 -6.56598e-23 -3.12172e-06 -1.31321e-21 0)
(6.87704e-06 -2.95017e-07 3.50764e-21 -3.12256e-06 1.44093e-21 0)
(6.89501e-06 -2.12194e-07 1.72505e-21 -3.11844e-06 6.91188e-22 0)
(6.90286e-06 -1.28797e-07 7.07437e-21 -3.10355e-06 5.60027e-21 0)
(6.90153e-06 -3.37414e-08 -9.50141e-20 -3.07226e-06 3.76791e-21 -3.11127e-34)
(7.44629e-06 -2.28182e-06 1.38229e-21 -3.83444e-06 1.91087e-21 0)
(7.30639e-06 -2.12159e-06 3.3252e-23 -3.78232e-06 7.33538e-23 0)
(7.23827e-06 -1.94628e-06 -4.26561e-21 -3.70224e-06 -2.97e-21 0)
(7.15128e-06 -1.80006e-06 -1.02426e-20 -3.63989e-06 -7.70025e-21 0)
(7.09469e-06 -1.64556e-06 4.00159e-21 -3.57026e-06 2.73755e-21 0)
(7.03775e-06 -1.50621e-06 3.7641e-21 -3.50915e-06 3.755e-21 0)
(6.99764e-06 -1.36962e-06 -1.84399e-21 -3.45175e-06 -1.84215e-21 0)
(6.96284e-06 -1.24233e-06 -2.98232e-22 -3.40109e-06 8.26476e-22 0)
(6.93837e-06 -1.12113e-06 8.09478e-21 -3.35676e-06 4.83614e-21 0)
(6.92008e-06 -1.00719e-06 -5.40535e-21 -3.31912e-06 -5.54054e-21 0)
(6.90891e-06 -8.99421e-07 -1.92249e-21 -3.2881e-06 -1.99522e-21 0)
(6.90321e-06 -7.9751e-07 5.22056e-21 -3.2635e-06 7.7804e-21 0)
(6.90271e-06 -7.00621e-07 -7.64595e-21 -3.24497e-06 -2.27396e-21 0)
(6.90648e-06 -6.0789e-07 -5.43981e-21 -3.23192e-06 -5.83831e-21 0)
(6.91367e-06 -5.18296e-07 1.58906e-23 -3.22342e-06 -1.1813e-21 0)
(6.92334e-06 -4.30386e-07 -7.3337e-21 -3.21813e-06 -5.62708e-21 0)
(6.9335e-06 -3.42779e-07 -5.33627e-23 -3.21392e-06 -5.03511e-23 0)
(6.94305e-06 -2.52106e-07 7.20419e-21 -3.20816e-06 6.91044e-21 0)
(6.94676e-06 -1.5799e-07 1.10987e-22 -3.19621e-06 1.42937e-21 0)
(6.94518e-06 -4.47704e-08 -9.52494e-20 -3.17332e-06 -1.17985e-21 2.23206e-36)
(8.20268e-06 -2.13213e-06 -1.44836e-21 -4.2774e-06 -1.87011e-21 0)
(7.96667e-06 -2.02089e-06 2.00243e-21 -4.2008e-06 1.83806e-21 0)
(7.83061e-06 -1.86497e-06 2.473e-21 -4.08518e-06 1.2974e-21 0)
(7.67049e-06 -1.7456e-06 -1.95357e-21 -3.99207e-06 -1.84144e-21 0)
(7.55393e-06 -1.60952e-06 -4.63071e-21 -3.89197e-06 -2.32165e-21 0)
(7.4387e-06 -1.48602e-06 2.26064e-21 -3.80007e-06 1.1281e-21 0)
(7.34711e-06 -1.36193e-06 6.39633e-21 -3.71382e-06 4.13111e-21 0)
(7.2651e-06 -1.24409e-06 -1.02898e-20 -3.6355e-06 -6.93413e-21 0)
(7.19828e-06 -1.13033e-06 -6.3467e-21 -3.56573e-06 -4.195e-21 0)
(7.14202e-06 -1.02193e-06 9.96028e-21 -3.50474e-06 6.76738e-21 0)
(7.09698e-06 -9.18499e-07 -4.06364e-21 -3.45275e-06 -1.94723e-21 0)
(7.06132e-06 -8.19891e-07 5.3773e-21 -3.40957e-06 5.53313e-21 0)
(7.03448e-06 -7.25568e-07 5.79445e-21 -3.37495e-06 3.78543e-21 0)
(7.01537e-06 -6.34714e-07 -3.37614e-21 -3.34839e-06 -4.72697e-21 0)
(7.00304e-06 -5.46301e-07 -2.21257e-21 -3.32912e-06 1.15456e-21 0)
(6.99645e-06 -4.58594e-07 1.04494e-22 -3.31608e-06 9.67539e-23 0)
(6.994e-06 -3.69929e-07 -8.93573e-21 -3.30769e-06 -7.4589e-21 0)
(6.99448e-06 -2.75972e-07 1.7732e-21 -3.30202e-06 2.00047e-21 0)
(6.9946e-06 -1.76234e-07 3.51734e-21 -3.29606e-06 2.75836e-21 0)
(6.99379e-06 -5.20739e-08 -9.65325e-20 -3.28625e-06 -1.89291e-21 9.05017e-37)
(8.90624e-06 -1.8248e-06 1.72756e-23 -4.65165e-06 5.96412e-23 0)
(8.58596e-06 -1.78776e-06 -2.06985e-21 -4.56309e-06 -1.83109e-21 0)
(8.39363e-06 -1.66714e-06 4.45501e-22 -4.42713e-06 -4.86199e-22 0)
(8.16856e-06 -1.58448e-06 0 -4.30898e-06 0 0)
(7.99824e-06 -1.47897e-06 0 -4.18809e-06 0 0)
(7.8316e-06 -1.3799e-06 -6.19995e-21 -4.07259e-06 -4.87642e-21 0)
(7.69263e-06 -1.27784e-06 5.51443e-21 -3.96398e-06 5.16716e-21 0)
(7.56716e-06 -1.17775e-06 1.16266e-20 -3.86287e-06 1.01853e-20 0)
(7.46e-06 -1.07924e-06 -8.79235e-21 -3.77089e-06 -8.48391e-21 0)
(7.36706e-06 -9.83329e-07 -7.70314e-21 -3.68852e-06 -6.58695e-21 0)
(7.28858e-06 -8.90352e-07 3.55101e-21 -3.61641e-06 3.54781e-21 0)
(7.22286e-06 -8.00435e-07 -3.49712e-22 -3.55478e-06 7.04305e-22 0)
(7.16921e-06 -7.13427e-07 6.08288e-21 -3.50373e-06 3.01136e-21 0)
(7.12649e-06 -6.28726e-07 9.47006e-21 -3.46308e-06 6.56952e-21 0)
(7.09384e-06 -5.4545e-07 1.29187e-22 -3.43253e-06 1.18506e-22 0)
(7.0702e-06 -4.61806e-07 4.318e-21 -3.41147e-06 -1.19271e-21 0)
(7.05463e-06 -3.76047e-07 0 -3.39916e-06 0 0)
(7.04579e-06 -2.83321e-07 -3.62855e-21 -3.39454e-06 -1.60202e-21 0)
(7.04294e-06 -1.83165e-07 1.74562e-21 -3.39652e-06 7.38066e-22 0)
(7.04378e-06 -5.54452e-08 -9.27334e-20 -3.40293e-06 -4.46131e-22 2.37731e-36)
(9.52991e-06 -1.39035e-06 -1.34769e-23 -4.9305e-06 -5.21993e-23 0)
(9.13519e-06 -1.44037e-06 2.57042e-21 -4.83861e-06 1.54218e-21 0)
(8.90452e-06 -1.37982e-06 -2.55672e-21 -4.71413e-06 -1.56333e-21 0)
(8.62912e-06 -1.34078e-06 -2.51658e-21 -4.58088e-06 -1.52261e-21 0)
(8.41044e-06 -1.27838e-06 6.90849e-21 -4.44704e-06 4.73284e-21 0)
(8.19997e-06 -1.20954e-06 4.9226e-21 -4.31236e-06 2.94971e-21 0)
(8.01777e-06 -1.13438e-06 -6.53731e-21 -4.18422e-06 -4.39278e-21 0)
(7.85348e-06 -1.05574e-06 8.72207e-22 -4.06348e-06 -9.25779e-22 0)
(7.7096e-06 -9.75805e-07 1.48322e-21 -3.95234e-06 1.3821e-21 0)
(7.58314e-06 -8.95779e-07 -8.09752e-22 -3.85171e-06 1.09108e-21 0)
(7.47365e-06 -8.16706e-07 -6.63868e-21 -3.76238e-06 -3.64969e-21 0)
(7.37968e-06 -7.39045e-07 5.93472e-23 -3.68488e-06 5.75121e-23 0)
(7.30041e-06 -6.62951e-07 -3.03036e-21 -3.61953e-06 -4.14847e-21 0)
(7.2348e-06 -5.88048e-07 -1.02482e-22 -3.56656e-06 -9.41342e-23 0)
(7.18219e-06 -5.13615e-07 3.87759e-21 -3.52609e-06 1.89035e-21 0)
(7.1416e-06 -4.37945e-07 -7.72688e-23 -3.49814e-06 -6.77777e-23 0)
(7.11295e-06 -3.59332e-07 4.71787e-21 -3.48287e-06 6.36131e-21 0)
(7.09479e-06 -2.72829e-07 -1.78499e-21 -3.48028e-06 -7.98573e-22 0)
(7.08925e-06 -1.77992e-07 -8.35323e-21 -3.49131e-06 -8.29592e-21 0)
(7.09198e-06 -5.46073e-08 -1.02444e-19 -3.51543e-06 -6.94626e-21 1.77684e-34)
(1.00272e-05 -8.33318e-07 -3.2796e-22 -5.1099e-06 -1.65496e-22 0)
(9.61852e-06 -9.4072e-07 -2.75645e-21 -4.9976e-06 -1.62944e-21 0)
(9.35387e-06 -9.66526e-07 2.23667e-21 -4.91232e-06 1.76478e-21 0)
(9.05925e-06 -9.77211e-07 -5.85249e-21 -4.7915e-06 -5.35974e-21 0)
(8.80102e-06 -9.72944e-07 -6.02313e-21 -4.66543e-06 -5.03249e-21 0)
(8.55668e-06 -9.51118e-07 3.56192e-21 -4.53004e-06 3.70034e-21 0)
(8.3355e-06 -9.17093e-07 3.09491e-21 -4.39339e-06 3.71388e-21 0)
(8.13457e-06 -8.72813e-07 5.39839e-21 -4.2597e-06 4.88979e-21 0)
(7.95496e-06 -8.2141e-07 -6.3365e-21 -4.13248e-06 -4.74993e-21 0)
(7.79526e-06 -7.6519e-07 1.52486e-23 -4.01443e-06 1.30573e-22 0)
(7.6549e-06 -7.06037e-07 -7.58872e-23 -3.90736e-06 -3.89194e-22 0)
(7.53267e-06 -6.45294e-07 -4.95169e-21 -3.81268e-06 -4.86373e-21 0)
(7.42776e-06 -5.83779e-07 0 -3.73139e-06 0 0)
(7.33915e-06 -5.217e-07 -4.49486e-21 -3.66429e-06 -1.45934e-21 0)
(7.26637e-06 -4.58781e-07 -2.07701e-23 -3.61217e-06 -8.98714e-23 0)
(7.20852e-06 -3.9371e-07 -5.79974e-21 -3.57574e-06 -2.82616e-21 0)
(7.16639e-06 -3.25052e-07 1.58605e-21 -3.5562e-06 1.68088e-21 0)
(7.1385e-06 -2.48251e-07 3.65758e-21 -3.55469e-06 1.67361e-21 0)
(7.13006e-06 -1.62953e-07 4.55291e-23 -3.57437e-06 -3.82202e-24 0)
(7.13489e-06 -5.01729e-08 -1.00392e-19 -3.61647e-06 -3.09206e-21 7.45514e-37)
(1.02708e-05 -3.72941e-07 2.83237e-21 -5.12227e-06 2.50609e-21 0)
(9.89853e-06 -4.30105e-07 -2.62314e-21 -5.02791e-06 -1.65292e-21 0)
(9.61225e-06 -5.36683e-07 -1.51877e-21 -4.96902e-06 -1.26698e-21 0)
(9.31978e-06 -5.87461e-07 2.52086e-21 -4.87148e-06 1.54492e-21 0)
(9.04854e-06 -6.23485e-07 -4.98525e-21 -4.7566e-06 -2.2665e-21 0)
(8.79091e-06 -6.4006e-07 -3.36193e-21 -4.63019e-06 -1.5897e-21 0)
(8.55307e-06 -6.41316e-07 -4.18823e-21 -4.49752e-06 -3.05088e-21 0)
(8.33355e-06 -6.29894e-07 5.06861e-22 -4.36429e-06 -3.54353e-22 0)
(8.13423e-06 -6.08197e-07 8.46861e-21 -4.23452e-06 5.41452e-21 0)
(7.95434e-06 -5.78742e-07 -2.90868e-22 -4.11166e-06 -3.14499e-22 0)
(7.79397e-06 -5.4349e-07 4.52735e-21 -3.99826e-06 2.57004e-21 0)
(7.65233e-06 -5.04095e-07 -2.22956e-22 -3.89637e-06 -2.54017e-22 0)
(7.52905e-06 -4.61698e-07 1.65189e-35 -3.80764e-06 1.68596e-35 0)
(7.42337e-06 -4.16905e-07 -1.99071e-21 -3.73349e-06 -9.93067e-22 0)
(7.33527e-06 -3.6983e-07 1.94604e-21 -3.67536e-06 9.48454e-22 0)
(7.26406e-06 -3.19694e-07 -8.71051e-23 -3.63469e-06 -1.26638e-22 0)
(7.2114e-06 -2.65501e-07 3.12551e-22 -3.61369e-06 -8.2527e-22 0)
(7.17576e-06 -2.03735e-07 1.74761e-23 -3.61443e-06 5.88e-23 0)
(7.16476e-06 -1.34216e-07 -1.8081e-23 -3.64199e-06 2.34728e-23 0)
(7.17063e-06 -4.08188e-08 -9.68786e-20 -3.69924e-06 -5.25069e-22 -8.62249e-37)
(1.00672e-05 7.89625e-08 2.6314e-21 -4.93195e-06 2.08928e-21 0)
(9.81955e-06 1.2792e-08 0 -4.96155e-06 0 0)
(9.56043e-06 -1.17293e-07 -2.05241e-21 -4.91688e-06 -1.81765e-21 0)
(9.30111e-06 -2.02693e-07 2.68389e-35 -4.84343e-06 2.18201e-35 0)
(9.05352e-06 -2.70159e-07 6.15338e-36 -4.74553e-06 4.4782e-36 0)
(8.81423e-06 -3.18175e-07 2.91822e-35 -4.63327e-06 2.17772e-35 0)
(8.58943e-06 -3.49465e-07 4.47538e-35 -4.51198e-06 3.63105e-35 0)
(8.37835e-06 -3.66735e-07 -1.79865e-21 -4.38746e-06 -1.69416e-21 0)
(8.18359e-06 -3.72145e-07 0 -4.26401e-06 0 0)
(8.00508e-06 -3.68081e-07 1.71852e-21 -4.14538e-06 1.67374e-21 0)
(7.84366e-06 -3.56441e-07 -2.45361e-36 -4.0345e-06 -4.15751e-36 0)
(7.69918e-06 -3.38909e-07 -1.65284e-21 -3.93382e-06 -1.66682e-21 0)
(7.57183e-06 -3.16718e-07 1.62551e-21 -3.84542e-06 1.66762e-21 0)
(7.4614e-06 -2.90704e-07 2.33728e-35 -3.77116e-06 1.70745e-35 0)
(7.36838e-06 -2.61205e-07 -1.58183e-21 -3.71295e-06 -1.67679e-21 0)
(7.29254e-06 -2.27999e-07 -1.40309e-35 -3.67279e-06 -1.30252e-35 0)
(7.23625e-06 -1.90406e-07 1.55346e-21 -3.65354e-06 1.69624e-21 0)
(7.1982e-06 -1.46257e-07 1.54529e-21 -3.65794e-06 1.71071e-21 0)
(7.18784e-06 -9.58024e-08 -1.6696e-35 -3.69252e-06 -1.46036e-35 0)