/*--------------------------------*- C++ -*----------------------------------*\
  =========                 |
  \\      /  F ield         | OpenFOAM: The Open Source CFD Toolbox
   \\    /   O peration     | Website:  https://openfoam.org
    \\  /    A nd           | Version:  9
     \\/     M anipulation  |
\*---------------------------------------------------------------------------*/
FoamFile
{
    format      ascii;
    class       pointVectorField;
    location    "15";
    object      pointD;
}
// * * * * * * * * * * * * * * * * * * * * * * * * * * * * * * * * * * * * * //

dimensions      [0 1 0 0 0 0 0];

internalField   nonuniform List<vector> 
2142
(
(1.11607e-05 3.28339e-06 -9.81662e-20)
(1.03435e-05 3.80552e-06 0)
(9.77121e-06 4.17828e-06 0)
(9.35434e-06 4.48092e-06 0)
(9.05394e-06 4.72864e-06 0)
(8.84053e-06 4.94187e-06 0)
(8.69296e-06 5.12934e-06 0)
(8.59635e-06 5.2988e-06 0)
(8.53928e-06 5.45479e-06 0)
(8.51339e-06 5.60042e-06 0)
(8.51787e-06 5.75861e-06 0)
(1.02028e-05 3.00999e-06 -1.11261e-19)
(9.33715e-06 3.42351e-06 0)
(8.73577e-06 3.71454e-06 0)
(8.29994e-06 3.95331e-06 0)
(7.98652e-06 4.14802e-06 0)
(7.76354e-06 4.31634e-06 0)
(7.60798e-06 4.46438e-06 0)
(7.50406e-06 4.59873e-06 0)
(7.43924e-06 4.72249e-06 0)
(7.40487e-06 4.83934e-06 0)
(7.25629e-06 4.84595e-06 0)
(9.20962e-06 2.73685e-06 -1.126e-19)
(8.31677e-06 3.03272e-06 0)
(7.70149e-06 3.23607e-06 0)
(7.25788e-06 3.4081e-06 0)
(6.94002e-06 3.54902e-06 0)
(6.71418e-06 3.67284e-06 0)
(6.55595e-06 3.78259e-06 0)
(6.44877e-06 3.88319e-06 0)
(6.37965e-06 3.97607e-06 0)
(6.33913e-06 4.06479e-06 0)
(6.20591e-06 4.05683e-06 0)
(8.18261e-06 2.46822e-06 -1.10268e-19)
(7.28784e-06 2.63973e-06 0)
(6.67535e-06 2.75337e-06 0)
(6.2363e-06 2.85789e-06 0)
(5.92358e-06 2.94619e-06 0)
(5.7024e-06 3.02753e-06 0)
(5.54748e-06 3.10172e-06 0)
(5.44186e-06 3.17156e-06 0)
(5.37246e-06 3.2368e-06 0)
(5.32967e-06 3.30013e-06 0)
(5.21464e-06 3.28243e-06 0)
(7.12376e-06 2.21176e-06 -1.11126e-19)
(6.25552e-06 2.25218e-06 0)
(5.66243e-06 2.27779e-06 0)
(5.24095e-06 2.31623e-06 0)
(4.94392e-06 2.35501e-06 0)
(4.73551e-06 2.39748e-06 0)
(4.5903e-06 2.4401e-06 0)
(4.49126e-06 2.4832e-06 0)
(4.4257e-06 2.52483e-06 0)
(4.38411e-06 2.56645e-06 0)
(4.28819e-06 2.54352e-06 0)
(6.03352e-06 1.96767e-06 -1.08627e-19)
(5.22212e-06 1.87674e-06 0)
(4.66522e-06 1.81791e-06 0)
(4.27558e-06 1.79578e-06 0)
(4.00562e-06 1.79078e-06 0)
(3.81858e-06 1.8003e-06 0)
(3.68956e-06 1.81703e-06 0)
(3.60194e-06 1.83872e-06 0)
(3.54389e-06 1.86174e-06 0)
(3.50638e-06 1.8862e-06 0)
(3.42952e-06 1.86236e-06 0)
(4.91009e-06 1.72952e-06 -9.13732e-20)
(4.18175e-06 1.51973e-06 0)
(3.68237e-06 1.38229e-06 0)
(3.34205e-06 1.30914e-06 0)
(3.11127e-06 1.26932e-06 0)
(2.9543e-06 1.25421e-06 0)
(2.84752e-06 1.25231e-06 0)
(2.77559e-06 1.25898e-06 0)
(2.72803e-06 1.26909e-06 0)
(2.69684e-06 1.28152e-06 0)
(2.63821e-06 1.2607e-06 0)
(3.77754e-06 1.48677e-06 -6.40713e-20)
(3.13722e-06 1.1782e-06 0)
(2.71589e-06 9.78489e-07 0)
(2.44347e-06 8.69606e-07 0)
(2.2635e-06 8.07998e-07 0)
(2.14418e-06 7.78921e-07 0)
(2.06433e-06 7.66953e-07 0)
(2.01106e-06 7.65552e-07 0)
(1.97589e-06 7.68629e-07 0)
(1.95241e-06 7.74183e-07 0)
(1.91062e-06 7.59385e-07 0)
(2.61566e-06 1.23644e-06 -2.33303e-20)
(2.08451e-06 8.40431e-07 0)
(1.76928e-06 6.09204e-07 0)
(1.58147e-06 4.89514e-07 0)
(1.46197e-06 4.24734e-07 0)
(1.38553e-06 3.94583e-07 0)
(1.33517e-06 3.8154e-07 0)
(1.30184e-06 3.78503e-07 0)
(1.27969e-06 3.7951e-07 0)
(1.26444e-06 3.82415e-07 0)
(1.23776e-06 3.74956e-07 0)
(1.5056e-06 9.354e-07 2.02549e-20)
(1.034e-06 4.93046e-07 0)
(8.57894e-07 2.89126e-07 0)
(7.66291e-07 1.95038e-07 0)
(7.10961e-07 1.50058e-07 0)
(6.76603e-07 1.31126e-07 0)
(6.53981e-07 1.24013e-07 0)
(6.38918e-07 1.23151e-07 0)
(6.28651e-07 1.24515e-07 0)
(6.2123e-07 1.2669e-07 0)
(6.08039e-07 1.25054e-07 0)
(4.97858e-07 3.80407e-07 1.87515e-20)
(0 0 0)
(0 0 0)
(0 0 0)
(0 0 0)
(0 0 0)
(0 0 0)
(0 0 0)
(0 0 0)
(0 0 0)
(0 0 0)
(1.11607e-05 3.28339e-06 -9.81662e-20)
(1.03435e-05 3.80552e-06 0)
(9.77121e-06 4.17828e-06 0)
(9.35434e-06 4.48092e-06 0)
(9.05394e-06 4.72864e-06 0)
(8.84053e-06 4.94187e-06 0)
(8.69296e-06 5.12934e-06 0)
(8.59635e-06 5.2988e-06 0)
(8.53928e-06 5.45479e-06 0)
(8.51339e-06 5.60042e-06 0)
(8.51787e-06 5.75861e-06 0)
(1.02028e-05 3.00999e-06 -1.11261e-19)
(9.33715e-06 3.42351e-06 0)
(8.73577e-06 3.71454e-06 0)
(8.29994e-06 3.95331e-06 0)
(7.98652e-06 4.14802e-06 0)
(7.76354e-06 4.31634e-06 0)
(7.60798e-06 4.46438e-06 0)
(7.50406e-06 4.59873e-06 0)
(7.43924e-06 4.72249e-06 0)
(7.40487e-06 4.83934e-06 0)
(7.25629e-06 4.84595e-06 0)
(9.20962e-06 2.73685e-06 -1.126e-19)
(8.31677e-06 3.03272e-06 0)
(7.70149e-06 3.23607e-06 0)
(7.25788e-06 3.4081e-06 0)
(6.94002e-06 3.54902e-06 0)
(6.71418e-06 3.67284e-06 0)
(6.55595e-06 3.78259e-06 0)
(6.44877e-06 3.88319e-06 0)
(6.37965e-06 3.97607e-06 0)
(6.33913e-06 4.06479e-06 0)
(6.20591e-06 4.05683e-06 0)
(8.18261e-06 2.46822e-06 -1.10268e-19)
(7.28784e-06 2.63973e-06 0)
(6.67535e-06 2.75337e-06 0)
(6.2363e-06 2.85789e-06 0)
(5.92358e-06 2.94619e-06 0)
(5.7024e-06 3.02753e-06 0)
(5.54748e-06 3.10172e-06 0)
(5.44186e-06 3.17156e-06 0)
(5.37246e-06 3.2368e-06 0)
(5.32967e-06 3.30013e-06 0)
(5.21464e-06 3.28243e-06 0)
(7.12376e-06 2.21176e-06 -1.11126e-19)
(6.25552e-06 2.25218e-06 0)
(5.66243e-06 2.27779e-06 0)
(5.24095e-06 2.31623e-06 0)
(4.94392e-06 2.35501e-06 0)
(4.73551e-06 2.39748e-06 0)
(4.5903e-06 2.4401e-06 0)
(4.49126e-06 2.4832e-06 0)
(4.4257e-06 2.52483e-06 0)
(4.38411e-06 2.56645e-06 0)
(4.28819e-06 2.54352e-06 0)
(6.03352e-06 1.96767e-06 -1.08627e-19)
(5.22212e-06 1.87674e-06 0)
(4.66522e-06 1.81791e-06 0)
(4.27558e-06 1.79578e-06 0)
(4.00562e-06 1.79078e-06 0)
(3.81858e-06 1.8003e-06 0)
(3.68956e-06 1.81703e-06 0)
(3.60194e-06 1.83872e-06 0)
(3.54389e-06 1.86174e-06 0)
(3.50638e-06 1.8862e-06 0)
(3.42952e-06 1.86236e-06 0)
(4.91009e-06 1.72952e-06 -9.13732e-20)
(4.18175e-06 1.51973e-06 0)
(3.68237e-06 1.38229e-06 0)
(3.34205e-06 1.30914e-06 0)
(3.11127e-06 1.26932e-06 0)
(2.9543e-06 1.25421e-06 0)
(2.84752e-06 1.25231e-06 0)
(2.77559e-06 1.25898e-06 0)
(2.72803e-06 1.26909e-06 0)
(2.69684e-06 1.28152e-06 0)
(2.63821e-06 1.2607e-06 0)
(3.77754e-06 1.48677e-06 -6.40713e-20)
(3.13722e-06 1.1782e-06 0)
(2.71589e-06 9.78489e-07 0)
(2.44347e-06 8.69606e-07 0)
(2.2635e-06 8.07998e-07 0)
(2.14418e-06 7.78921e-07 0)
(2.06433e-06 7.66953e-07 0)
(2.01106e-06 7.65552e-07 0)
(1.97589e-06 7.68629e-07 0)
(1.95241e-06 7.74183e-07 0)
(1.91062e-06 7.59385e-07 0)
(2.61566e-06 1.23644e-06 -2.33303e-20)
(2.08451e-06 8.40431e-07 0)
(1.76928e-06 6.09204e-07 0)
(1.58147e-06 4.89514e-07 0)
(1.46197e-06 4.24734e-07 0)
(1.38553e-06 3.94583e-07 0)
(1.33517e-06 3.8154e-07 0)
(1.30184e-06 3.78503e-07 0)
(1.27969e-06 3.7951e-07 0)
(1.26444e-06 3.82415e-07 0)
(1.23776e-06 3.74956e-07 0)
(1.5056e-06 9.354e-07 2.02549e-20)
(1.034e-06 4.93046e-07 0)
(8.57894e-07 2.89126e-07 0)
(7.66291e-07 1.95038e-07 0)
(7.10961e-07 1.50058e-07 0)
(6.76603e-07 1.31126e-07 0)
(6.53981e-07 1.24013e-07 0)
(6.38918e-07 1.23151e-07 0)
(6.28651e-07 1.24515e-07 0)
(6.2123e-07 1.2669e-07 0)
(6.08039e-07 1.25054e-07 0)
(4.97858e-07 3.80407e-07 1.87515e-20)
(0 0 0)
(0 0 0)
(0 0 0)
(0 0 0)
(0 0 0)
(0 0 0)
(0 0 0)
(0 0 0)
(0 0 0)
(0 0 0)
(1.81125e-05 5.40046e-06 -2.44186e-21)
(1.82428e-05 5.92259e-06 -1.42494e-21)
(1.82274e-05 6.59437e-06 -1.55883e-21)
(1.82166e-05 7.21799e-06 -1.68969e-21)
(1.8227e-05 7.79202e-06 -1.81409e-21)
(1.82646e-05 8.32213e-06 -1.93268e-21)
(1.83318e-05 8.81513e-06 -2.04646e-21)
(1.84283e-05 9.27801e-06 -2.15645e-21)
(1.85531e-05 9.71656e-06 -2.20926e-21)
(1.87032e-05 1.01363e-05 -1.67782e-21)
(1.88773e-05 1.05396e-05 -6.15464e-22)
(1.77079e-05 5.19836e-06 -3.59391e-21)
(1.76529e-05 5.89915e-06 0)
(1.76067e-05 6.56677e-06 0)
(1.75817e-05 7.18131e-06 0)
(1.75842e-05 7.74264e-06 0)
(1.76161e-05 8.25745e-06 0)
(1.76775e-05 8.73329e-06 0)
(1.77667e-05 9.17772e-06 0)
(1.78821e-05 9.59699e-06 0)
(1.8021e-05 9.99703e-06 0)
(1.81921e-05 1.03827e-05 0)
(1.71577e-05 5.11279e-06 -3.69551e-21)
(1.70427e-05 5.82884e-06 0)
(1.69488e-05 6.49039e-06 0)
(1.68882e-05 7.09212e-06 0)
(1.68634e-05 7.63708e-06 0)
(1.68736e-05 8.13368e-06 0)
(1.69163e-05 8.59013e-06 0)
(1.69885e-05 9.01448e-06 0)
(1.70873e-05 9.41318e-06 0)
(1.72092e-05 9.79254e-06 0)
(1.7376e-05 1.01615e-05 0)
(1.65753e-05 4.97385e-06 -4.33165e-21)
(1.63876e-05 5.7135e-06 0)
(1.62369e-05 6.36667e-06 0)
(1.61312e-05 6.95081e-06 0)
(1.60702e-05 7.47408e-06 0)
(1.60507e-05 7.94769e-06 0)
(1.6068e-05 8.38082e-06 0)
(1.61174e-05 8.7819e-06 0)
(1.61951e-05 9.15756e-06 0)
(1.62963e-05 9.51422e-06 0)
(1.64586e-05 9.86683e-06 0)
(1.59502e-05 4.79425e-06 -6.87955e-21)
(1.56776e-05 5.5548e-06 0)
(1.5464e-05 6.19584e-06 0)
(1.5308e-05 6.75803e-06 0)
(1.52065e-05 7.25496e-06 0)
(1.51534e-05 7.70122e-06 0)
(1.51419e-05 8.10708e-06 0)
(1.51657e-05 8.48147e-06 0)
(1.52198e-05 8.83114e-06 0)
(1.52984e-05 9.16254e-06 0)
(1.54565e-05 9.49882e-06 0)
(1.52767e-05 4.58265e-06 -1.27354e-20)
(1.49094e-05 5.35346e-06 0)
(1.46288e-05 5.97591e-06 0)
(1.44208e-05 6.51082e-06 0)
(1.4278e-05 6.97667e-06 0)
(1.41907e-05 7.39137e-06 0)
(1.41499e-05 7.76628e-06 0)
(1.41476e-05 8.11075e-06 0)
(1.41779e-05 8.43167e-06 0)
(1.42336e-05 8.73534e-06 0)
(1.43888e-05 9.05549e-06 0)
(1.45524e-05 4.34695e-06 -2.28647e-20)
(1.40845e-05 5.11128e-06 0)
(1.37358e-05 5.70629e-06 0)
(1.34766e-05 6.20796e-06 0)
(1.32938e-05 6.63824e-06 0)
(1.31737e-05 7.01778e-06 0)
(1.31048e-05 7.35868e-06 0)
(1.30776e-05 7.6706e-06 0)
(1.3085e-05 7.96046e-06 0)
(1.31191e-05 8.23428e-06 0)
(1.32729e-05 8.53862e-06 0)
(1.3777e-05 4.09362e-06 -3.74996e-20)
(1.32081e-05 4.83085e-06 0)
(1.2793e-05 5.38763e-06 0)
(1.24854e-05 5.84944e-06 0)
(1.22656e-05 6.23976e-06 0)
(1.21155e-05 6.581e-06 0)
(1.20211e-05 6.88547e-06 0)
(1.19713e-05 7.16284e-06 0)
(1.1958e-05 7.41988e-06 0)
(1.19726e-05 7.66222e-06 0)
(1.21267e-05 7.95131e-06 0)
(1.29517e-05 3.8285e-06 -5.60071e-20)
(1.2287e-05 4.51613e-06 0)
(1.18105e-05 5.02298e-06 0)
(1.14594e-05 5.43806e-06 0)
(1.12068e-05 5.78433e-06 0)
(1.10306e-05 6.08467e-06 0)
(1.09141e-05 6.35093e-06 0)
(1.08449e-05 6.59247e-06 0)
(1.08137e-05 6.81563e-06 0)
(1.08115e-05 7.02544e-06 0)
(1.09674e-05 7.29963e-06 0)
(1.20786e-05 3.55679e-06 -7.69389e-20)
(1.13293e-05 4.17215e-06 0)
(1.07995e-05 4.61741e-06 0)
(1.04114e-05 4.9792e-06 0)
(1.01316e-05 5.27771e-06 0)
(9.93397e-06 5.53514e-06 0)
(9.79953e-06 5.76214e-06 0)
(9.71441e-06 5.96735e-06 0)
(9.6685e-06 6.15639e-06 0)
(9.65283e-06 6.33299e-06 0)
(9.81135e-06 6.59218e-06 0)
(1.81125e-05 5.40046e-06 -2.44186e-21)
(1.82428e-05 5.92259e-06 -1.42494e-21)
(1.82274e-05 6.59437e-06 -1.55883e-21)
(1.82166e-05 7.21799e-06 -1.68969e-21)
(1.8227e-05 7.79202e-06 -1.81409e-21)
(1.82646e-05 8.32213e-06 -1.93268e-21)
(1.83318e-05 8.81513e-06 -2.04646e-21)
(1.84283e-05 9.27801e-06 -2.15645e-21)
(1.85531e-05 9.71656e-06 -2.20926e-21)
(1.87032e-05 1.01363e-05 -1.67782e-21)
(1.88773e-05 1.05396e-05 -6.15464e-22)
(1.77079e-05 5.19836e-06 -3.59391e-21)
(1.76529e-05 5.89915e-06 0)
(1.76067e-05 6.56677e-06 0)
(1.75817e-05 7.18131e-06 0)
(1.75842e-05 7.74264e-06 0)
(1.76161e-05 8.25745e-06 0)
(1.76775e-05 8.73329e-06 0)
(1.77667e-05 9.17772e-06 0)
(1.78821e-05 9.59699e-06 0)
(1.8021e-05 9.99703e-06 0)
(1.81921e-05 1.03827e-05 0)
(1.71577e-05 5.11279e-06 -3.69551e-21)
(1.70427e-05 5.82884e-06 0)
(1.69488e-05 6.49039e-06 0)
(1.68882e-05 7.09212e-06 0)
(1.68634e-05 7.63708e-06 0)
(1.68736e-05 8.13368e-06 0)
(1.69163e-05 8.59013e-06 0)
(1.69885e-05 9.01448e-06 0)
(1.70873e-05 9.41318e-06 0)
(1.72092e-05 9.79254e-06 0)
(1.7376e-05 1.01615e-05 0)
(1.65753e-05 4.97385e-06 -4.33165e-21)
(1.63876e-05 5.7135e-06 0)
(1.62369e-05 6.36667e-06 0)
(1.61312e-05 6.95081e-06 0)
(1.60702e-05 7.47408e-06 0)
(1.60507e-05 7.94769e-06 0)
(1.6068e-05 8.38082e-06 0)
(1.61174e-05 8.7819e-06 0)
(1.61951e-05 9.15756e-06 0)
(1.62963e-05 9.51422e-06 0)
(1.64586e-05 9.86683e-06 0)
(1.59502e-05 4.79425e-06 -6.87955e-21)
(1.56776e-05 5.5548e-06 0)
(1.5464e-05 6.19584e-06 0)
(1.5308e-05 6.75803e-06 0)
(1.52065e-05 7.25496e-06 0)
(1.51534e-05 7.70122e-06 0)
(1.51419e-05 8.10708e-06 0)
(1.51657e-05 8.48147e-06 0)
(1.52198e-05 8.83114e-06 0)
(1.52984e-05 9.16254e-06 0)
(1.54565e-05 9.49882e-06 0)
(1.52767e-05 4.58265e-06 -1.27354e-20)
(1.49094e-05 5.35346e-06 0)
(1.46288e-05 5.97591e-06 0)
(1.44208e-05 6.51082e-06 0)
(1.4278e-05 6.97667e-06 0)
(1.41907e-05 7.39137e-06 0)
(1.41499e-05 7.76628e-06 0)
(1.41476e-05 8.11075e-06 0)
(1.41779e-05 8.43167e-06 0)
(1.42336e-05 8.73534e-06 0)
(1.43888e-05 9.05549e-06 0)
(1.45524e-05 4.34695e-06 -2.28647e-20)
(1.40845e-05 5.11128e-06 0)
(1.37358e-05 5.70629e-06 0)
(1.34766e-05 6.20796e-06 0)
(1.32938e-05 6.63824e-06 0)
(1.31737e-05 7.01778e-06 0)
(1.31048e-05 7.35868e-06 0)
(1.30776e-05 7.6706e-06 0)
(1.3085e-05 7.96046e-06 0)
(1.31191e-05 8.23428e-06 0)
(1.32729e-05 8.53862e-06 0)
(1.3777e-05 4.09362e-06 -3.74996e-20)
(1.32081e-05 4.83085e-06 0)
(1.2793e-05 5.38763e-06 0)
(1.24854e-05 5.84944e-06 0)
(1.22656e-05 6.23976e-06 0)
(1.21155e-05 6.581e-06 0)
(1.20211e-05 6.88547e-06 0)
(1.19713e-05 7.16284e-06 0)
(1.1958e-05 7.41988e-06 0)
(1.19726e-05 7.66222e-06 0)
(1.21267e-05 7.95131e-06 0)
(1.29517e-05 3.8285e-06 -5.60071e-20)
(1.2287e-05 4.51613e-06 0)
(1.18105e-05 5.02298e-06 0)
(1.14594e-05 5.43806e-06 0)
(1.12068e-05 5.78433e-06 0)
(1.10306e-05 6.08467e-06 0)
(1.09141e-05 6.35093e-06 0)
(1.08449e-05 6.59247e-06 0)
(1.08137e-05 6.81563e-06 0)
(1.08115e-05 7.02544e-06 0)
(1.09674e-05 7.29963e-06 0)
(1.20786e-05 3.55679e-06 -7.69389e-20)
(1.13293e-05 4.17215e-06 0)
(1.07995e-05 4.61741e-06 0)
(1.04114e-05 4.9792e-06 0)
(1.01316e-05 5.27771e-06 0)
(9.93397e-06 5.53514e-06 0)
(9.79953e-06 5.76214e-06 0)
(9.71441e-06 5.96735e-06 0)
(9.6685e-06 6.15639e-06 0)
(9.65283e-06 6.33299e-06 0)
(9.81135e-06 6.59218e-06 0)
(1.90755e-05 1.09313e-05 3.91155e-22)
(1.92943e-05 1.13168e-05 1.29741e-21)
(1.95304e-05 1.16963e-05 2.11384e-21)
(1.9782e-05 1.20719e-05 2.8416e-21)
(2.00475e-05 1.2445e-05 3.48876e-21)
(2.03254e-05 1.28168e-05 4.0616e-21)
(2.06144e-05 1.31885e-05 4.56688e-21)
(2.09132e-05 1.35609e-05 5.01023e-21)
(2.12207e-05 1.39348e-05 5.39674e-21)
(2.15358e-05 1.43109e-05 5.73065e-21)
(2.18576e-05 1.46896e-05 6.01577e-21)
(2.21852e-05 1.50715e-05 6.25495e-21)
(2.25178e-05 1.54569e-05 6.45049e-21)
(2.28544e-05 1.5846e-05 6.60402e-21)
(2.31943e-05 1.6239e-05 6.71686e-21)
(2.35366e-05 1.6636e-05 6.78992e-21)
(2.38803e-05 1.70367e-05 6.82509e-21)
(2.42245e-05 1.74407e-05 6.82485e-21)
(2.4568e-05 1.7847e-05 6.79307e-21)
(2.46815e-05 1.81005e-05 -1.57853e-21)
(1.84042e-05 1.07628e-05 0)
(1.86422e-05 1.11401e-05 0)
(1.88942e-05 1.15123e-05 0)
(1.91587e-05 1.18814e-05 0)
(1.94346e-05 1.22489e-05 0)
(1.97208e-05 1.2616e-05 0)
(2.00163e-05 1.29836e-05 0)
(2.032e-05 1.33527e-05 0)
(2.06313e-05 1.37239e-05 0)
(2.09491e-05 1.40978e-05 0)
(2.12728e-05 1.4475e-05 0)
(2.16017e-05 1.48559e-05 0)
(2.19349e-05 1.52407e-05 0)
(2.2272e-05 1.56298e-05 0)
(2.26122e-05 1.60233e-05 0)
(2.29549e-05 1.64213e-05 0)
(2.32994e-05 1.68234e-05 0)
(2.36451e-05 1.72293e-05 0)
(2.39914e-05 1.76381e-05 0)
(2.43364e-05 1.80476e-05 -9.99777e-21)
(1.7609e-05 1.05339e-05 0)
(1.78763e-05 1.09086e-05 0)
(1.81537e-05 1.12785e-05 0)
(1.84401e-05 1.16457e-05 0)
(1.8735e-05 1.20117e-05 0)
(1.90374e-05 1.23777e-05 0)
(1.93469e-05 1.27447e-05 0)
(1.96627e-05 1.31136e-05 0)
(1.99844e-05 1.34851e-05 0)
(2.03113e-05 1.38597e-05 0)
(2.0643e-05 1.42379e-05 0)
(2.0979e-05 1.46203e-05 0)
(2.13187e-05 1.50071e-05 0)
(2.16617e-05 1.53985e-05 0)
(2.20076e-05 1.57948e-05 0)
(2.23559e-05 1.6196e-05 0)
(2.27061e-05 1.66019e-05 0)
(2.30578e-05 1.70123e-05 0)
(2.34103e-05 1.74264e-05 0)
(2.376e-05 1.78423e-05 -1.00832e-20)
(1.67173e-05 1.02363e-05 0)
(1.7021e-05 1.06146e-05 0)
(1.73308e-05 1.09881e-05 0)
(1.76457e-05 1.13586e-05 0)
(1.79658e-05 1.1728e-05 0)
(1.82905e-05 1.20973e-05 0)
(1.86197e-05 1.24678e-05 0)
(1.89531e-05 1.28402e-05 0)
(1.92904e-05 1.32153e-05 0)
(1.96313e-05 1.35938e-05 0)
(1.99757e-05 1.39761e-05 0)
(2.03232e-05 1.43627e-05 0)
(2.06736e-05 1.47539e-05 0)
(2.10266e-05 1.51501e-05 0)
(2.1382e-05 1.55515e-05 0)
(2.17395e-05 1.59583e-05 0)
(2.20987e-05 1.63705e-05 0)
(2.24594e-05 1.67879e-05 0)
(2.28207e-05 1.72104e-05 0)
(2.31778e-05 1.76364e-05 -1.02193e-20)
(1.57452e-05 9.86961e-06 0)
(1.6091e-05 1.02575e-05 0)
(1.64387e-05 1.064e-05 0)
(1.67874e-05 1.10191e-05 0)
(1.71379e-05 1.13965e-05 0)
(1.74898e-05 1.17736e-05 0)
(1.78435e-05 1.21514e-05 0)
(1.81989e-05 1.25311e-05 0)
(1.85561e-05 1.29133e-05 0)
(1.89152e-05 1.32987e-05 0)
(1.92761e-05 1.36879e-05 0)
(1.96388e-05 1.40815e-05 0)
(2.00033e-05 1.44799e-05 0)
(2.03695e-05 1.48834e-05 0)
(2.07374e-05 1.52924e-05 0)
(2.11069e-05 1.57071e-05 0)
(2.14777e-05 1.61278e-05 0)
(2.18495e-05 1.65548e-05 0)
(2.22219e-05 1.69882e-05 0)
(2.25889e-05 1.7427e-05 -1.04037e-20)
(1.47107e-05 9.43207e-06 0)
(1.51027e-05 9.83547e-06 0)
(1.54924e-05 1.02329e-05 0)
(1.5879e-05 1.06256e-05 0)
(1.62637e-05 1.1016e-05 0)
(1.66467e-05 1.14052e-05 0)
(1.70285e-05 1.17947e-05 0)
(1.74094e-05 1.21853e-05 0)
(1.77899e-05 1.25781e-05 0)
(1.81702e-05 1.29738e-05 0)
(1.85506e-05 1.33731e-05 0)
(1.89313e-05 1.37766e-05 0)
(1.93125e-05 1.41847e-05 0)
(1.96943e-05 1.4598e-05 0)
(2.0077e-05 1.50169e-05 0)
(2.04605e-05 1.54418e-05 0)
(2.08448e-05 1.58733e-05 0)
(2.12297e-05 1.63119e-05 0)
(2.1615e-05 1.67582e-05 0)
(2.1994e-05 1.72116e-05 -1.06362e-20)
(1.36303e-05 8.92538e-06 0)
(1.40712e-05 9.35008e-06 0)
(1.45058e-05 9.76783e-06 0)
(1.49331e-05 1.01793e-05 0)
(1.5355e-05 1.05874e-05 0)
(1.57716e-05 1.09931e-05 0)
(1.61843e-05 1.13981e-05 0)
(1.65934e-05 1.18035e-05 0)
(1.69996e-05 1.22104e-05 0)
(1.74035e-05 1.26196e-05 0)
(1.78056e-05 1.30319e-05 0)
(1.82064e-05 1.3448e-05 0)
(1.86063e-05 1.38686e-05 0)
(1.90056e-05 1.42941e-05 0)
(1.94047e-05 1.47252e-05 0)
(1.98037e-05 1.51625e-05 0)
(2.02029e-05 1.56067e-05 0)
(2.06023e-05 1.60587e-05 0)
(2.10017e-05 1.65193e-05 0)
(2.13948e-05 1.69885e-05 -1.09171e-20)
(1.25204e-05 8.35254e-06 0)
(1.30115e-05 8.80386e-06 0)
(1.34925e-05 9.24709e-06 0)
(1.39619e-05 9.68217e-06 0)
(1.44227e-05 1.01123e-05 0)
(1.4875e-05 1.05388e-05 0)
(1.53203e-05 1.09632e-05 0)
(1.57593e-05 1.1387e-05 0)
(1.61931e-05 1.18114e-05 0)
(1.66223e-05 1.22372e-05 0)
(1.70478e-05 1.26655e-05 0)
(1.74702e-05 1.30971e-05 0)
(1.78901e-05 1.35326e-05 0)
(1.83081e-05 1.39727e-05 0)
(1.87248e-05 1.44182e-05 0)
(1.91404e-05 1.48698e-05 0)
(1.95555e-05 1.53283e-05 0)
(1.99702e-05 1.57951e-05 0)
(2.03848e-05 1.62711e-05 0)
(2.07935e-05 1.67568e-05 -1.12464e-20)
(1.13973e-05 7.71902e-06 0)
(1.19379e-05 8.20175e-06 0)
(1.24654e-05 8.67481e-06 0)
(1.29776e-05 9.13777e-06 0)
(1.34779e-05 9.59389e-06 0)
(1.39667e-05 1.00448e-05 0)
(1.44456e-05 1.04922e-05 0)
(1.49157e-05 1.09378e-05 0)
(1.5378e-05 1.13827e-05 0)
(1.58337e-05 1.18283e-05 0)
(1.62835e-05 1.22754e-05 0)
(1.67285e-05 1.2725e-05 0)
(1.71693e-05 1.31779e-05 0)
(1.76068e-05 1.36349e-05 0)
(1.80417e-05 1.40968e-05 0)
(1.84746e-05 1.45645e-05 0)
(1.89061e-05 1.5039e-05 0)
(1.93368e-05 1.55216e-05 0)
(1.97672e-05 1.60136e-05 0)
(2.01928e-05 1.65162e-05 -1.16241e-20)
(1.02754e-05 7.03258e-06 0)
(1.0863e-05 7.55012e-06 0)
(1.14352e-05 8.05608e-06 0)
(1.19898e-05 8.55069e-06 0)
(1.25295e-05 9.03636e-06 0)
(1.30552e-05 9.51508e-06 0)
(1.35682e-05 9.98875e-06 0)
(1.40699e-05 1.04591e-05 0)
(1.45615e-05 1.09275e-05 0)
(1.50441e-05 1.13954e-05 0)
(1.55189e-05 1.18638e-05 0)
(1.59869e-05 1.23339e-05 0)
(1.64491e-05 1.28065e-05 0)
(1.69066e-05 1.32824e-05 0)
(1.736e-05 1.37627e-05 0)
(1.78104e-05 1.42481e-05 0)
(1.82586e-05 1.47397e-05 0)
(1.87053e-05 1.52391e-05 0)
(1.91516e-05 1.57475e-05 0)
(1.95951e-05 1.62669e-05 -1.20503e-20)
(9.27926e-06 6.40841e-06 0)
(9.90192e-06 6.95584e-06 0)
(1.05076e-05 7.4886e-06 0)
(1.10949e-05 8.00994e-06 0)
(1.16658e-05 8.52126e-06 0)
(1.2221e-05 9.02461e-06 0)
(1.27617e-05 9.52177e-06 0)
(1.32892e-05 1.00144e-05 0)
(1.38048e-05 1.05042e-05 0)
(1.43096e-05 1.09923e-05 0)
(1.4805e-05 1.148e-05 0)
(1.52919e-05 1.19684e-05 0)
(1.57716e-05 1.24584e-05 0)
(1.62452e-05 1.29508e-05 0)
(1.67136e-05 1.34467e-05 0)
(1.71779e-05 1.39468e-05 0)
(1.76392e-05 1.44523e-05 0)
(1.80986e-05 1.49644e-05 0)
(1.85573e-05 1.54846e-05 0)
(1.90154e-05 1.60154e-05 -1.23972e-20)
(1.90755e-05 1.09313e-05 3.91155e-22)
(1.92943e-05 1.13168e-05 1.29741e-21)
(1.95304e-05 1.16963e-05 2.11384e-21)
(1.9782e-05 1.20719e-05 2.8416e-21)
(2.00475e-05 1.2445e-05 3.48876e-21)
(2.03254e-05 1.28168e-05 4.0616e-21)
(2.06144e-05 1.31885e-05 4.56688e-21)
(2.09132e-05 1.35609e-05 5.01023e-21)
(2.12207e-05 1.39348e-05 5.39674e-21)
(2.15358e-05 1.43109e-05 5.73065e-21)
(2.18576e-05 1.46896e-05 6.01577e-21)
(2.21852e-05 1.50715e-05 6.25495e-21)
(2.25178e-05 1.54569e-05 6.45049e-21)
(2.28544e-05 1.5846e-05 6.60402e-21)
(2.31943e-05 1.6239e-05 6.71686e-21)
(2.35366e-05 1.6636e-05 6.78992e-21)
(2.38803e-05 1.70367e-05 6.82509e-21)
(2.42245e-05 1.74407e-05 6.82485e-21)
(2.4568e-05 1.7847e-05 6.79307e-21)
(2.46815e-05 1.81005e-05 -1.57853e-21)
(1.84042e-05 1.07628e-05 0)
(1.86422e-05 1.11401e-05 0)
(1.88942e-05 1.15123e-05 0)
(1.91587e-05 1.18814e-05 0)
(1.94346e-05 1.22489e-05 0)
(1.97208e-05 1.2616e-05 0)
(2.00163e-05 1.29836e-05 0)
(2.032e-05 1.33527e-05 0)
(2.06313e-05 1.37239e-05 0)
(2.09491e-05 1.40978e-05 0)
(2.12728e-05 1.4475e-05 0)
(2.16017e-05 1.48559e-05 0)
(2.19349e-05 1.52407e-05 0)
(2.2272e-05 1.56298e-05 0)
(2.26122e-05 1.60233e-05 0)
(2.29549e-05 1.64213e-05 0)
(2.32994e-05 1.68234e-05 0)
(2.36451e-05 1.72293e-05 0)
(2.39914e-05 1.76381e-05 0)
(2.43364e-05 1.80476e-05 -9.99777e-21)
(1.7609e-05 1.05339e-05 0)
(1.78763e-05 1.09086e-05 0)
(1.81537e-05 1.12785e-05 0)
(1.84401e-05 1.16457e-05 0)
(1.8735e-05 1.20117e-05 0)
(1.90374e-05 1.23777e-05 0)
(1.93469e-05 1.27447e-05 0)
(1.96627e-05 1.31136e-05 0)
(1.99844e-05 1.34851e-05 0)
(2.03113e-05 1.38597e-05 0)
(2.0643e-05 1.42379e-05 0)
(2.0979e-05 1.46203e-05 0)
(2.13187e-05 1.50071e-05 0)
(2.16617e-05 1.53985e-05 0)
(2.20076e-05 1.57948e-05 0)
(2.23559e-05 1.6196e-05 0)
(2.27061e-05 1.66019e-05 0)
(2.30578e-05 1.70123e-05 0)
(2.34103e-05 1.74264e-05 0)
(2.376e-05 1.78423e-05 -1.00832e-20)
(1.67173e-05 1.02363e-05 0)
(1.7021e-05 1.06146e-05 0)
(1.73308e-05 1.09881e-05 0)
(1.76457e-05 1.13586e-05 0)
(1.79658e-05 1.1728e-05 0)
(1.82905e-05 1.20973e-05 0)
(1.86197e-05 1.24678e-05 0)
(1.89531e-05 1.28402e-05 0)
(1.92904e-05 1.32153e-05 0)
(1.96313e-05 1.35938e-05 0)
(1.99757e-05 1.39761e-05 0)
(2.03232e-05 1.43627e-05 0)
(2.06736e-05 1.47539e-05 0)
(2.10266e-05 1.51501e-05 0)
(2.1382e-05 1.55515e-05 0)
(2.17395e-05 1.59583e-05 0)
(2.20987e-05 1.63705e-05 0)
(2.24594e-05 1.67879e-05 0)
(2.28207e-05 1.72104e-05 0)
(2.31778e-05 1.76364e-05 -1.02193e-20)
(1.57452e-05 9.86961e-06 0)
(1.6091e-05 1.02575e-05 0)
(1.64387e-05 1.064e-05 0)
(1.67874e-05 1.10191e-05 0)
(1.71379e-05 1.13965e-05 0)
(1.74898e-05 1.17736e-05 0)
(1.78435e-05 1.21514e-05 0)
(1.81989e-05 1.25311e-05 0)
(1.85561e-05 1.29133e-05 0)
(1.89152e-05 1.32987e-05 0)
(1.92761e-05 1.36879e-05 0)
(1.96388e-05 1.40815e-05 0)
(2.00033e-05 1.44799e-05 0)
(2.03695e-05 1.48834e-05 0)
(2.07374e-05 1.52924e-05 0)
(2.11069e-05 1.57071e-05 0)
(2.14777e-05 1.61278e-05 0)
(2.18495e-05 1.65548e-05 0)
(2.22219e-05 1.69882e-05 0)
(2.25889e-05 1.7427e-05 -1.04037e-20)
(1.47107e-05 9.43207e-06 0)
(1.51027e-05 9.83547e-06 0)
(1.54924e-05 1.02329e-05 0)
(1.5879e-05 1.06256e-05 0)
(1.62637e-05 1.1016e-05 0)
(1.66467e-05 1.14052e-05 0)
(1.70285e-05 1.17947e-05 0)
(1.74094e-05 1.21853e-05 0)
(1.77899e-05 1.25781e-05 0)
(1.81702e-05 1.29738e-05 0)
(1.85506e-05 1.33731e-05 0)
(1.89313e-05 1.37766e-05 0)
(1.93125e-05 1.41847e-05 0)
(1.96943e-05 1.4598e-05 0)
(2.0077e-05 1.50169e-05 0)
(2.04605e-05 1.54418e-05 0)
(2.08448e-05 1.58733e-05 0)
(2.12297e-05 1.63119e-05 0)
(2.1615e-05 1.67582e-05 0)
(2.1994e-05 1.72116e-05 -1.06362e-20)
(1.36303e-05 8.92538e-06 0)
(1.40712e-05 9.35008e-06 0)
(1.45058e-05 9.76783e-06 0)
(1.49331e-05 1.01793e-05 0)
(1.5355e-05 1.05874e-05 0)
(1.57716e-05 1.09931e-05 0)
(1.61843e-05 1.13981e-05 0)
(1.65934e-05 1.18035e-05 0)
(1.69996e-05 1.22104e-05 0)
(1.74035e-05 1.26196e-05 0)
(1.78056e-05 1.30319e-05 0)
(1.82064e-05 1.3448e-05 0)
(1.86063e-05 1.38686e-05 0)
(1.90056e-05 1.42941e-05 0)
(1.94047e-05 1.47252e-05 0)
(1.98037e-05 1.51625e-05 0)
(2.02029e-05 1.56067e-05 0)
(2.06023e-05 1.60587e-05 0)
(2.10017e-05 1.65193e-05 0)
(2.13948e-05 1.69885e-05 -1.09171e-20)
(1.25204e-05 8.35254e-06 0)
(1.30115e-05 8.80386e-06 0)
(1.34925e-05 9.24709e-06 0)
(1.39619e-05 9.68217e-06 0)
(1.44227e-05 1.01123e-05 0)
(1.4875e-05 1.05388e-05 0)
(1.53203e-05 1.09632e-05 0)
(1.57593e-05 1.1387e-05 0)
(1.61931e-05 1.18114e-05 0)
(1.66223e-05 1.22372e-05 0)
(1.70478e-05 1.26655e-05 0)
(1.74702e-05 1.30971e-05 0)
(1.78901e-05 1.35326e-05 0)
(1.83081e-05 1.39727e-05 0)
(1.87248e-05 1.44182e-05 0)
(1.91404e-05 1.48698e-05 0)
(1.95555e-05 1.53283e-05 0)
(1.99702e-05 1.57951e-05 0)
(2.03848e-05 1.62711e-05 0)
(2.07935e-05 1.67568e-05 -1.12464e-20)
(1.13973e-05 7.71902e-06 0)
(1.19379e-05 8.20175e-06 0)
(1.24654e-05 8.67481e-06 0)
(1.29776e-05 9.13777e-06 0)
(1.34779e-05 9.59389e-06 0)
(1.39667e-05 1.00448e-05 0)
(1.44456e-05 1.04922e-05 0)
(1.49157e-05 1.09378e-05 0)
(1.5378e-05 1.13827e-05 0)
(1.58337e-05 1.18283e-05 0)
(1.62835e-05 1.22754e-05 0)
(1.67285e-05 1.2725e-05 0)
(1.71693e-05 1.31779e-05 0)
(1.76068e-05 1.36349e-05 0)
(1.80417e-05 1.40968e-05 0)
(1.84746e-05 1.45645e-05 0)
(1.89061e-05 1.5039e-05 0)
(1.93368e-05 1.55216e-05 0)
(1.97672e-05 1.60136e-05 0)
(2.01928e-05 1.65162e-05 -1.16241e-20)
(1.02754e-05 7.03258e-06 0)
(1.0863e-05 7.55012e-06 0)
(1.14352e-05 8.05608e-06 0)
(1.19898e-05 8.55069e-06 0)
(1.25295e-05 9.03636e-06 0)
(1.30552e-05 9.51508e-06 0)
(1.35682e-05 9.98875e-06 0)
(1.40699e-05 1.04591e-05 0)
(1.45615e-05 1.09275e-05 0)
(1.50441e-05 1.13954e-05 0)
(1.55189e-05 1.18638e-05 0)
(1.59869e-05 1.23339e-05 0)
(1.64491e-05 1.28065e-05 0)
(1.69066e-05 1.32824e-05 0)
(1.736e-05 1.37627e-05 0)
(1.78104e-05 1.42481e-05 0)
(1.82586e-05 1.47397e-05 0)
(1.87053e-05 1.52391e-05 0)
(1.91516e-05 1.57475e-05 0)
(1.95951e-05 1.62669e-05 -1.20503e-20)
(9.27926e-06 6.40841e-06 0)
(9.90192e-06 6.95584e-06 0)
(1.05076e-05 7.4886e-06 0)
(1.10949e-05 8.00994e-06 0)
(1.16658e-05 8.52126e-06 0)
(1.2221e-05 9.02461e-06 0)
(1.27617e-05 9.52177e-06 0)
(1.32892e-05 1.00144e-05 0)
(1.38048e-05 1.05042e-05 0)
(1.43096e-05 1.09923e-05 0)
(1.4805e-05 1.148e-05 0)
(1.52919e-05 1.19684e-05 0)
(1.57716e-05 1.24584e-05 0)
(1.62452e-05 1.29508e-05 0)
(1.67136e-05 1.34467e-05 0)
(1.71779e-05 1.39468e-05 0)
(1.76392e-05 1.44523e-05 0)
(1.80986e-05 1.49644e-05 0)
(1.85573e-05 1.54846e-05 0)
(1.90154e-05 1.60154e-05 -1.23972e-20)
(7.80394e-06 5.36625e-06 0)
(8.55375e-06 5.98084e-06 0)
(9.18847e-06 6.54082e-06 0)
(9.80596e-06 7.0856e-06 0)
(1.0406e-05 7.61995e-06 0)
(1.09896e-05 8.14477e-06 0)
(1.15574e-05 8.66181e-06 0)
(1.21104e-05 9.17255e-06 0)
(1.26498e-05 9.67847e-06 0)
(1.31766e-05 1.01809e-05 0)
(1.36919e-05 1.06811e-05 0)
(1.41969e-05 1.11801e-05 0)
(1.46928e-05 1.1679e-05 0)
(1.51806e-05 1.21785e-05 0)
(1.56616e-05 1.26795e-05 0)
(1.61367e-05 1.31828e-05 0)
(1.66071e-05 1.36893e-05 0)
(1.7074e-05 1.41998e-05 0)
(1.75385e-05 1.47154e-05 0)
(1.80024e-05 1.52374e-05 0)
(1.84667e-05 1.57681e-05 -1.25069e-20)
(7.27225e-06 5.05403e-06 0)
(7.99728e-06 5.66061e-06 0)
(8.62754e-06 6.22153e-06 0)
(9.24277e-06 6.77012e-06 0)
(9.84224e-06 7.31001e-06 0)
(1.04266e-05 7.84163e-06 0)
(1.09961e-05 8.36621e-06 0)
(1.15516e-05 8.8849e-06 0)
(1.20937e-05 9.39884e-06 0)
(1.26235e-05 9.90911e-06 0)
(1.31418e-05 1.04167e-05 0)
(1.36498e-05 1.09226e-05 0)
(1.41484e-05 1.14275e-05 0)
(1.46387e-05 1.19323e-05 0)
(1.51218e-05 1.24376e-05 0)
(1.55989e-05 1.29441e-05 0)
(1.60709e-05 1.34525e-05 0)
(1.65392e-05 1.39634e-05 0)
(1.70051e-05 1.44779e-05 0)
(1.74703e-05 1.49965e-05 0)
(1.7936e-05 1.55211e-05 -1.24875e-20)
(6.8004e-06 4.75362e-06 0)
(7.49848e-06 5.35179e-06 0)
(8.11761e-06 5.91127e-06 0)
(8.72496e-06 6.46145e-06 0)
(9.31867e-06 7.00505e-06 0)
(9.89918e-06 7.54192e-06 0)
(1.04662e-05 8.07281e-06 0)
(1.10203e-05 8.59844e-06 0)
(1.15619e-05 9.11961e-06 0)
(1.20918e-05 9.63712e-06 0)
(1.26106e-05 1.01517e-05 0)
(1.31193e-05 1.06641e-05 0)
(1.36188e-05 1.1175e-05 0)
(1.41101e-05 1.16848e-05 0)
(1.45942e-05 1.21943e-05 0)
(1.50721e-05 1.27039e-05 0)
(1.55449e-05 1.32141e-05 0)
(1.6014e-05 1.37254e-05 0)
(1.64806e-05 1.42383e-05 0)
(1.69466e-05 1.47532e-05 0)
(1.74133e-05 1.5271e-05 -1.24765e-20)
(6.37972e-06 4.46745e-06 0)
(7.0492e-06 5.05524e-06 0)
(7.6533e-06 5.61114e-06 0)
(8.24861e-06 6.1611e-06 0)
(8.8326e-06 6.7068e-06 0)
(9.40546e-06 7.24755e-06 0)
(9.96652e-06 7.78355e-06 0)
(1.05161e-05 8.31513e-06 0)
(1.10542e-05 8.84269e-06 0)
(1.15815e-05 9.36674e-06 0)
(1.20986e-05 9.88776e-06 0)
(1.2606e-05 1.04062e-05 0)
(1.31047e-05 1.09227e-05 0)
(1.35954e-05 1.14374e-05 0)
(1.40792e-05 1.19509e-05 0)
(1.4557e-05 1.24633e-05 0)
(1.50298e-05 1.29752e-05 0)
(1.54989e-05 1.34866e-05 0)
(1.59657e-05 1.39977e-05 0)
(1.64322e-05 1.45086e-05 0)
(1.68992e-05 1.50194e-05 -1.24745e-20)
(6.00293e-06 4.19637e-06 0)
(6.64316e-06 4.77275e-06 0)
(7.22932e-06 5.32343e-06 0)
(7.80946e-06 5.87149e-06 0)
(8.3806e-06 6.4177e-06 0)
(8.94277e-06 6.96084e-06 0)
(9.49495e-06 7.50066e-06 0)
(1.00372e-05 8.03702e-06 0)
(1.05694e-05 8.57e-06 0)
(1.10919e-05 9.09974e-06 0)
(1.16051e-05 9.62649e-06 0)
(1.21095e-05 1.01505e-05 0)
(1.26057e-05 1.0672e-05 0)
(1.30946e-05 1.11911e-05 0)
(1.3577e-05 1.17083e-05 0)
(1.40537e-05 1.22234e-05 0)
(1.45257e-05 1.27366e-05 0)
(1.49943e-05 1.32479e-05 0)
(1.54607e-05 1.37571e-05 0)
(1.59268e-05 1.42639e-05 0)
(1.63935e-05 1.47679e-05 -1.24816e-20)
(5.66248e-06 3.9404e-06 0)
(6.27366e-06 4.50453e-06 0)
(6.84004e-06 5.04869e-06 0)
(7.40283e-06 5.5935e-06 0)
(7.95885e-06 6.13885e-06 0)
(8.50795e-06 6.6831e-06 0)
(9.04894e-06 7.22552e-06 0)
(9.58164e-06 7.76558e-06 0)
(1.01058e-05 8.30296e-06 0)
(1.06215e-05 8.83753e-06 0)
(1.1129e-05 9.36921e-06 0)
(1.16288e-05 9.89803e-06 0)
(1.21213e-05 1.0424e-05 0)
(1.26071e-05 1.09472e-05 0)