/*--------------------------------*- C++ -*----------------------------------*\
  =========                 |
  \\      /  F ield         | OpenFOAM: The Open Source CFD Toolbox
   \\    /   O peration     | Website:  https://openfoam.org
    \\  /    A nd           | Version:  9
     \\/     M anipulation  |
\*---------------------------------------------------------------------------*/
FoamFile
{
    format      ascii;
    class       volSymmTensorField;
    location    "15";
    object      sigma;
}
// * * * * * * * * * * * * * * * * * * * * * * * * * * * * * * * * * * * * * //

dimensions      [1 -1 -2 0 0 0 0];

internalField   nonuniform List<symmTensor> 
1000
(
(1.84084e+06 -1.26181e+06 -6.03478e-10 1.0687e+06 -8.80263e-10 249814)
(2.15499e+06 -974019 -3.85142e-10 581522 -6.06756e-10 205729)
(2.3169e+06 -748291 -2.24521e-10 354225 -4.17382e-10 187192)
(2.38676e+06 -577814 -1.11452e-10 173700 -2.77813e-10 169444)
(2.41341e+06 -439815 -2.38996e-11 68698.9 -1.72152e-10 158970)
(2.40477e+06 -331703 4.01909e-11 -9715.07 -9.23428e-11 149808)
(2.38143e+06 -243438 9.02104e-11 -60181.4 -3.01463e-11 143293)
(2.34475e+06 -173115 1.27328e-10 -96610.8 1.74246e-11 137701)
(2.30753e+06 -114701 1.57219e-10 -120368 5.56093e-11 133572)
(2.2571e+06 -65952.2 1.79127e-10 -142962 8.61412e-11 128807)
(2.32768e+06 -1.40331e+06 -6.15273e-10 1.08286e+06 -9.33838e-10 273761)
(2.53571e+06 -1.0085e+06 -3.47138e-10 609665 -6.00279e-10 227745)
(2.62672e+06 -722118 -1.59718e-10 405013 -3.79487e-10 209506)
(2.63796e+06 -516758 -3.40695e-11 232966 -2.22851e-10 190452)
(2.61965e+06 -358413 5.9206e-11 136055 -1.0852e-10 179096)
(2.57353e+06 -239980 1.23923e-10 61036 -2.54831e-11 168669)
(2.51973e+06 -147034 1.72159e-10 12973.1 3.69265e-11 161026)
(2.45762e+06 -76180.2 2.05654e-10 -24807 8.28314e-11 154008)
(2.39586e+06 -18766.2 2.31149e-10 -47821.9 1.18173e-10 148749)
(2.32729e+06 27101.4 2.48351e-10 -78483.4 1.46184e-10 141993)
(2.84788e+06 -1.49317e+06 -5.90782e-10 1.05195e+06 -9.45206e-10 294190)
(2.92596e+06 -1.0106e+06 -2.8786e-10 627154 -5.70342e-10 249293)
(2.92836e+06 -674676 -8.30074e-11 459661 -3.28679e-10 232216)
(2.87125e+06 -441637 4.94719e-11 308335 -1.61985e-10 212875)
(2.80123e+06 -268653 1.44002e-10 225511 -4.40282e-11 201006)
(2.71381e+06 -144143 2.06204e-10 158220 3.86009e-11 189630)
(2.62727e+06 -50136.9 2.50114e-10 115044 9.83483e-11 181022)
(2.53828e+06 18603.9 2.78164e-10 78108.9 1.40461e-10 172756)
(2.45464e+06 72019.7 2.9783e-10 56221.7 1.71158e-10 166507)
(2.36712e+06 115512 3.10564e-10 20652.9 1.96549e-10 158141)
(3.38665e+06 -1.51726e+06 -5.23614e-10 973755 -9.06035e-10 310277)
(3.31595e+06 -977198 -2.06825e-10 638947 -5.163e-10 270578)
(3.21838e+06 -607777 3.9803e-12 519206 -2.66568e-10 255262)
(3.08369e+06 -356353 1.36298e-10 399276 -9.79874e-11 236442)
(2.95643e+06 -176043 2.26792e-10 334994 1.77736e-11 224266)
(2.82459e+06 -50655.5 2.82836e-10 278090 9.59844e-11 212063)
(2.70383e+06 40355.6 3.19693e-10 240229 1.50211e-10 202416)
(2.58828e+06 104465 3.40802e-10 204320 1.86875e-10 192907)
(2.4832e+06 151730 3.53353e-10 181837 2.11743e-10 185434)
(2.38002e+06 190226 3.60548e-10 143692 2.32791e-10 175888)
(3.91622e+06 -1.47647e+06 -4.24991e-10 839837 -8.18542e-10 319663)
(3.69706e+06 -902525 -1.01833e-10 643360 -4.34882e-10 291036)
(3.48803e+06 -520720 1.00265e-10 579871 -1.93004e-10 277727)
(3.27206e+06 -261835 2.25297e-10 502779 -3.13972e-11 260588)
(3.08254e+06 -84705.7 3.04567e-10 461299 7.43e-11 248268)
(2.90509e+06 34728.9 3.50094e-10 417319 1.4318e-10 235415)
(2.75006e+06 117434 3.76622e-10 384953 1.88352e-10 224675)
(2.60915e+06 173356 3.88778e-10 349862 2.17342e-10 213905)
(2.48486e+06 211821 3.92901e-10 325099 2.35015e-10 205062)
(2.36805e+06 243220 3.93569e-10 284196 2.50526e-10 194383)
(4.42021e+06 -1.34412e+06 -5.15434e-10 717211 -6.83061e-10 335415)
(4.067e+06 -786486 -1.98696e-11 643867 -3.28371e-10 311950)
(3.74171e+06 -409439 2.09313e-10 659374 -1.06972e-10 302201)
(3.43491e+06 -160626 3.1474e-10 623158 3.54794e-11 285769)
(3.17999e+06 1435.63 3.75001e-10 606223 1.22786e-10 273212)
(2.95658e+06 106124 4.04504e-10 573008 1.76744e-10 259287)
(2.76874e+06 174909 4.17439e-10 544244 2.09494e-10 247202)
(2.60475e+06 219055 4.18749e-10 508032 2.28856e-10 234980)
(2.46386e+06 246683 4.13556e-10 478810 2.38464e-10 224584)
(2.33596e+06 269323 4.0706e-10 434558 2.47626e-10 212797)
(4.86868e+06 -1.11084e+06 -5.07074e-10 592586 -4.83691e-10 348654)
(4.40481e+06 -611561 7.70765e-11 646540 -1.86543e-10 332711)
(3.95899e+06 -269279 3.30774e-10 753711 -6.67854e-12 327215)
(3.5584e+06 -56027.1 4.00464e-10 760836 9.92317e-11 311311)
(3.24071e+06 76093.4 4.32896e-10 764852 1.58955e-10 297969)
(2.97587e+06 156392 4.41064e-10 738190 1.92492e-10 282513)
(2.7603e+06 205888 4.37812e-10 708855 2.10187e-10 268714)
(2.5778e+06 235348 4.27145e-10 668540 2.18735e-10 254837)
(2.42442e+06 251162 4.12629e-10 632326 2.20276e-10 242745)
(2.28846e+06 264416 3.99031e-10 583725 2.23047e-10 229861)
(5.33102e+06 -813219 -3.94963e-10 519362 -2.44263e-10 368953)
(4.71042e+06 -380062 2.82404e-10 703884 -1.34971e-11 358239)
(4.13351e+06 -101729 4.63198e-10 891690 1.03012e-10 356195)
(3.64304e+06 44408.6 4.78054e-10 926326 1.5369e-10 338506)
(3.27017e+06 130231 4.73534e-10 937896 1.77219e-10 322779)
(2.97183e+06 177692 4.56212e-10 906868 1.86691e-10 304638)
(2.73548e+06 204767 4.35798e-10 869336 1.88738e-10 288429)
(2.54029e+06 219018 4.13658e-10 820264 1.87163e-10 272570)
(2.379e+06 224253 3.91245e-10 774362 1.82156e-10 258674)
(2.23826e+06 229262 3.71744e-10 720501 1.79678e-10 244752)
(5.64378e+06 -347179 -2.98301e-12 456518 1.16284e-10 382388)
(4.93312e+06 -80947.4 5.99106e-10 862881 1.88416e-10 392253)
(4.20901e+06 63362.7 5.7981e-10 1.09381e+06 1.95188e-10 388622)
(3.64963e+06 111677 5.23611e-10 1.12214e+06 1.76043e-10 365341)
(3.24794e+06 140800 4.79346e-10 1.11225e+06 1.62113e-10 344597)
(2.93542e+06 152802 4.37642e-10 1.06014e+06 1.49375e-10 322509)
(2.69256e+06 159757 4.03538e-10 1.00476e+06 1.39634e-10 303366)
(2.4939e+06 162258 3.73413e-10 942597 1.3151e-10 285462)
(2.33068e+06 161216 3.46661e-10 885784 1.23453e-10 269959)
(2.1886e+06 161322 3.23851e-10 826884 1.18203e-10 255244)
(6.17856e+06 341447 7.39419e-10 719509 5.90937e-10 447864)
(5.0112e+06 348742 8.83004e-10 1.30488e+06 4.2794e-10 459820)
(4.2022e+06 217036 6.78422e-10 1.40805e+06 2.59796e-10 431465)
(3.63028e+06 139383 5.41394e-10 1.35785e+06 1.65406e-10 395553)
(3.22623e+06 109920 4.59478e-10 1.27342e+06 1.2118e-10 364141)
(2.91491e+06 96614.9 4.01712e-10 1.18007e+06 9.65918e-11 336375)
(2.67299e+06 93353.5 3.61009e-10 1.09623e+06 8.34731e-11 313420)
(2.4749e+06 92584.1 3.28721e-10 1.01925e+06 7.49516e-11 293563)
(2.31152e+06 91748.4 3.01924e-10 952883 6.8124e-11 276807)
(2.16863e+06 91564.3 2.78771e-10 891560 6.28938e-11 261732)
(-8873.52 3361.48 -3.1434e-11 -4892.29 -1.72201e-11 1042.76)
(5463.8 -10029.1 -3.85557e-11 972.422 -2.6275e-11 2761.51)
(65554 -32690.1 -5.20742e-11 -3242.85 -4.12297e-11 8083.28)
(162764 -50980.7 -6.18465e-11 -6799.86 -5.31966e-11 17109.3)
(276075 -62351.4 -6.66077e-11 -8716.78 -6.05333e-11 27891.2)
(395288 -68847 -6.79939e-11 -9622.68 -6.46161e-11 39369.4)
(512150 -71429.8 -6.68617e-11 -9850.03 -6.6099e-11 50706.2)
(623920 -71613.1 -6.42593e-11 -9579.99 -6.59972e-11 61607.2)
(726518 -69702.8 -5.75822e-11 -9393.31 -6.26017e-11 70530.8)
(822210 -68329.2 -4.19247e-11 -7767.56 -5.37047e-11 75493)
(10523 -10508.6 -3.91313e-11 -1432.54 -2.65352e-11 3066.8)
(88969.7 -60332.1 -6.21752e-11 37748.7 -6.05366e-11 13225.6)
(203090 -115818 -9.4046e-11 39721 -9.74781e-11 23976.6)
(324494 -158400 -1.19876e-10 27971.2 -1.25483e-10 34512.1)
(446531 -184732 -1.35425e-10 16442.8 -1.42614e-10 45275.3)
(562549 -199539 -1.43698e-10 5930.38 -1.52066e-10 55635.8)
(670281 -204880 -1.4582e-10 -2205.49 -1.55248e-10 65457.1)
(770116 -204846 -1.34141e-10 -7886.07 -1.48385e-10 71001)
(858245 -199439 -1.17266e-10 -12721.5 -1.3672e-10 74801.6)
(941910 -195100 -1.01671e-10 -13145.1 -1.26654e-10 78942.9)
(33582.5 -54498 -6.00713e-11 36270.5 -5.67155e-11 7774.25)
(171637 -152163 -1.10784e-10 81648.4 -1.22743e-10 23768)
(329779 -220963 -1.51194e-10 76241.2 -1.6835e-10 38121.7)
(475177 -267123 -1.81538e-10 47237.3 -1.9834e-10 49648.6)
(608859 -292662 -1.98898e-10 19965.7 -2.14588e-10 60356)
(726773 -304781 -2.02385e-10 -3775.28 -2.18626e-10 68003.5)
(830402 -306732 -1.87857e-10 -21707.1 -2.08984e-10 70757.6)
(922881 -302161 -1.70952e-10 -34649.2 -1.9656e-10 73703)
(1.00008e+06 -291679 -1.52718e-10 -44555 -1.81887e-10 76371.7)
(1.07484e+06 -282847 -1.35768e-10 -47509.3 -1.69319e-10 79804.7)
(81630 -123894 -8.81651e-11 124107 -1.04894e-10 18492.7)
(283471 -262558 -1.68294e-10 138237 -1.97579e-10 37944.3)
(477773 -334918 -2.1295e-10 115369 -2.4513e-10 54458.4)
(643835 -375453 -2.42252e-10 68152.3 -2.70932e-10 66664.1)
(787491 -392462 -2.4659e-10 26272.7 -2.74878e-10 73708.3)
(907331 -396058 -2.30856e-10 -9862.99 -2.62829e-10 74863.6)
(1.00739e+06 -389634 -2.11874e-10 -37813.6 -2.46796e-10 76249.2)
(1.09307e+06 -377371 -1.914e-10 -58600.2 -2.2896e-10 77941.4)
(1.16008e+06 -360118 -1.70657e-10 -74346.8 -2.10005e-10 79437.9)
(1.22679e+06 -345556 -1.51471e-10 -80752.3 -1.93937e-10 82102.2)
(163884 -222237 -1.26855e-10 253355 -1.7324e-10 35423.9)
(433526 -382812 -2.30162e-10 200504 -2.79052e-10 56183)
(657882 -447836 -2.74695e-10 145916 -3.2097e-10 73278.9)
(838277 -474871 -2.88779e-10 75505.1 -3.30716e-10 81501)
(986142 -477173 -2.68245e-10 18440 -3.12993e-10 81326.4)
(1.10359e+06 -466902 -2.44517e-10 -29506 -2.90614e-10 81014.1)
(1.19705e+06 -448667 -2.19407e-10 -66022.6 -2.66345e-10 81119.4)
(1.27421e+06 -426219 -1.94068e-10 -93027.9 -2.41784e-10 81719.8)
(1.33013e+06 -400893 -1.70131e-10 -113280 -2.17919e-10 82192.4)
(1.38815e+06 -379386 -1.48044e-10 -122095 -1.97723e-10 84208.9)
(291243 -351741 -1.78901e-10 414109 -2.63005e-10 58855.7)
(626502 -504749 -2.90925e-10 269691 -3.61707e-10 79111.2)
(875019 -549262 -3.27412e-10 174686 -3.88238e-10 95234.2)
(1.06236e+06 -556408 -3.04372e-10 78913.4 -3.65861e-10 91888.5)
(1.20803e+06 -539482 -2.72551e-10 7224.08 -3.33921e-10 89963.5)
(1.31765e+06 -513078 -2.40245e-10 -50850.8 -3.00374e-10 88166.1)
(1.40082e+06 -481594 -2.08663e-10 -94134.5 -2.67442e-10 87063.5)
(1.46642e+06 -448142 -1.78399e-10 -125869 -2.36047e-10 86628.3)
(1.50942e+06 -414509 -1.51391e-10 -149567 -2.07395e-10 86127.4)
(1.5569e+06 -385692 -1.26453e-10 -159968 -1.83085e-10 87517.4)
(472348 -511106 -2.46379e-10 587505 -3.72909e-10 88207)
(862060 -623281 -3.48108e-10 341428 -4.4205e-10 106410)
(1.12482e+06 -633921 -3.40581e-10 201990 -4.26016e-10 109970)
(1.31079e+06 -613497 -3.01171e-10 79711 -3.82462e-10 103479)
(1.44687e+06 -574476 -2.57425e-10 -5625.09 -3.35156e-10 99605.5)
(1.54317e+06 -530606 -2.1654e-10 -72157.6 -2.90221e-10 96288.5)
(1.6118e+06 -485584 -1.78935e-10 -120410 -2.49007e-10 94006.6)
(1.66243e+06 -441293 -1.44354e-10 -155354 -2.11355e-10 92562.8)
(1.69058e+06 -399874 -1.14874e-10 -181271 -1.78569e-10 91147)
(1.7251e+06 -364019 -8.76128e-11 -192583 -1.50607e-10 91875.2)
(715609 -694269 -3.28196e-10 755750 -4.98505e-10 123000)
(1.13797e+06 -733653 -3.96733e-10 412915 -5.15248e-10 136778)
(1.40171e+06 -696987 -3.36207e-10 232226 -4.47546e-10 126730)
(1.57623e+06 -643157 -2.78352e-10 85576.4 -3.80065e-10 116955)
(1.69554e+06 -579936 -2.22454e-10 -11111.3 -3.16879e-10 111107)
(1.7731e+06 -518446 -1.73706e-10 -84274.3 -2.61131e-10 106243)
(1.82336e+06 -460586 -1.31079e-10 -135984 -2.126e-10 102780)
(1.8561e+06 -406703 -9.33766e-11 -172770 -1.69923e-10 100345)
(1.86789e+06 -358936 -6.25398e-11 -200436 -1.34136e-10 97979.6)
(1.88658e+06 -316938 -3.39396e-11 -211968 -1.03441e-10 97982.4)
(1.02588e+06 -890132 -4.20197e-10 900921 -6.31981e-10 162446)
(1.44925e+06 -832150 -4.08323e-10 479276 -5.61443e-10 159461)
(1.69803e+06 -736868 -3.14467e-10 266940 -4.52607e-10 145357)
(1.84954e+06 -645386 -2.37259e-10 100690 -3.59932e-10 132410)
(1.94514e+06 -556786 -1.695e-10 -3704.88 -2.81105e-10 124736)
(1.99866e+06 -478411 -1.14127e-10 -81405.6 -2.15723e-10 118326)
(2.02725e+06 -409059 -6.77869e-11 -134527 -1.61284e-10 113767)
(2.03873e+06 -347549 -2.86866e-11 -172592 -1.15234e-10 110220)
(2.03196e+06 -294610 -2.7102e-12 -200867 -7.77372e-11 107035)
(2.03215e+06 -247557 2.55498e-11 -215530 -4.49395e-11 105795)
(1.403e+06 -1.0848e+06 -5.15905e-10 1.00921e+06 -7.63748e-10 205607)
(1.79055e+06 -913621 -4.04912e-10 537103 -5.9283e-10 182752)
(2.00543e+06 -753658 -2.76683e-10 307772 -4.42167e-10 165652)
(2.12184e+06 -622410 -1.80569e-10 129555 -3.24818e-10 149961)
(2.18621e+06 -508522 -1.02095e-10 21987.7 -2.31576e-10 140681)
(2.21043e+06 -414408 -4.15744e-11 -57441.7 -1.58094e-10 132816)
(2.21367e+06 -335056 7.01524e-12 -110650 -9.92003e-11 127132)
(2.20048e+06 -267608 4.04634e-11 -147939 -5.16292e-11 122661)
(2.17721e+06 -212845 6.52853e-11 -178116 -1.41044e-11 118431)
(2.159e+06 -166112 1.00408e-10 -188814 1.68188e-11 116597)
(907867 -63460.6 -2.56883e-11 -7746.75 -4.31691e-11 79798.2)
(983260 -56690.2 -9.83852e-12 -6068.22 -3.24453e-11 83838.9)
(1.05244e+06 -50780.5 4.51193e-12 -4853.84 -2.27679e-11 87499.7)
(1.11457e+06 -45404.5 1.74411e-11 -3948.27 -1.40094e-11 90764.7)
(1.17069e+06 -40412.1 2.92041e-11 -3056.92 -6.01678e-12 93724.8)
(1.22092e+06 -35933.1 3.97365e-11 -2398.65 1.16002e-12 96356.5)
(1.26597e+06 -31821.8 4.92423e-11 -1772.56 7.65518e-12 98722.8)
(1.3061e+06 -28109 5.7739e-11 -1286.22 1.34823e-11 100822)
(1.3418e+06 -24703.1 6.53616e-11 -857.213 1.87349e-11 102690)
(1.37334e+06 -21581 7.21639e-11 -521.337 2.34545e-11 104337)
(1.40103e+06 -18676.7 7.82371e-11 -247.264 2.7709e-11 105782)
(1.42506e+06 -15948.8 8.36353e-11 -45.9295 3.15424e-11 107034)
(1.44561e+06 -13345.4 8.84182e-11 92.1161 3.50038e-11 108104)
(1.46279e+06 -10828 9.26262e-11 164.431 3.81277e-11 108998)
(1.47665e+06 -8365.49 9.62856e-11 169.953 4.09394e-11 109718)
(1.48728e+06 -5954.8 9.94133e-11 118.769 4.3447e-11 110271)
(1.49464e+06 -3628.3 1.01982e-10 9.39489 4.5626e-11 110652)
(1.49905e+06 -1517.76 1.03964e-10 -71.0963 4.74073e-11 110889)
(1.50051e+06 108.342 1.05193e-10 -53.3628 4.86054e-11 110987)
(1.50041e+06 505.647 1.05434e-10 757.602 4.87652e-11 111093)
(1.00917e+06 -181799 -8.31389e-11 -16995 -1.11667e-10 81950.4)
(1.06461e+06 -163745 -6.34373e-11 -16660.2 -9.50348e-11 84986.3)
(1.11809e+06 -147808 -4.53268e-11 -15297.7 -8.00869e-11 88030.2)
(1.16582e+06 -132910 -2.87563e-11 -14595.7 -6.62416e-11 90689.1)
(1.21009e+06 -118939 -1.32818e-11 -13275.6 -5.33758e-11 93244.5)
(1.24991e+06 -106292 6.82467e-13 -12392 -4.17149e-11 95504.9)
(1.2863e+06 -94579.4 1.35418e-11 -11330.7 -3.09861e-11 97605.4)
(1.319e+06 -83930 2.51718e-11 -10518.7 -2.12464e-11 99476.1)
(1.34853e+06 -74100.4 3.58072e-11 -9736.94 -1.23157e-11 101175)
(1.37491e+06 -65051.5 4.54713e-11 -9128.27 -4.1502e-12 102685)
(1.39843e+06 -56615.4 5.43148e-11 -8619.41 3.37759e-12 104032)
(1.41919e+06 -48696 6.2411e-11 -8245.2 1.03434e-11 105217)
(1.43735e+06 -41166.2 6.98638e-11 -7970.38 1.68411e-11 106256)
(1.45303e+06 -33938 7.6745e-11 -7773.19 2.29356e-11 107157)
(1.46629e+06 -26941.4 8.31113e-11 -7601.8 2.86749e-11 107933)
(1.47729e+06 -20175.7 8.89857e-11 -7343.66 3.40572e-11 108604)
(1.48601e+06 -13718.7 9.43218e-11 -6855.51 3.90141e-11 109189)
(1.49273e+06 -7850.05 9.89941e-11 -5761.55 4.33404e-11 109746)
(1.49714e+06 -2976.68 1.02716e-10 -3580.53 4.6687e-11 110317)
(1.5e+06 -353.91 1.04845e-10 966.157 4.81382e-11 111088)
(1.12563e+06 -262850 -1.15672e-10 -52673.4 -1.51161e-10 81919.9)
(1.16085e+06 -238233 -9.50361e-11 -51574.4 -1.32006e-10 84147.5)
(1.19882e+06 -216127 -7.54705e-11 -47053.1 -1.14672e-10 86922.7)
(1.23163e+06 -195571 -5.76809e-11 -44056.5 -9.8627e-11 89222.4)
(1.26371e+06 -175985 -4.05823e-11 -39789 -8.34329e-11 91638.4)
(1.29254e+06 -158176 -2.50969e-11 -36467.8 -6.95816e-11 93745.3)
(1.31973e+06 -141509 -1.05646e-11 -32963.5 -5.66463e-11 95779.3)
(1.3444e+06 -126263 2.69203e-12 -30064.5 -4.47957e-11 97589.9)
(1.3672e+06 -112103 1.49861e-11 -27402 -3.37954e-11 99261.9)
(1.38786e+06 -99020.3 2.6279e-11 -25216.3 -2.36345e-11 100751)
(1.40667e+06 -86807.6 3.6743e-11 -23386.5 -1.4166e-11 102090)
(1.4236e+06 -75361 4.64382e-11 -21959.1 -5.31782e-12 103273)
(1.43879e+06 -64527.4 5.54823e-11 -20863.7 3.01485e-12 104318)
(1.45231e+06 -54200.8 6.395e-11 -20042.8 1.0901e-11 105237)
(1.46421e+06 -44287.3 7.19107e-11 -19374.4 1.83939e-11 106051)
(1.47461e+06 -34752.6 7.94079e-11 -18633.4 2.54998e-11 106795)
(1.48344e+06 -25618.2 8.64201e-11 -17499.9 3.21605e-11 107506)
(1.49087e+06 -17027.6 9.28993e-11 -15321.4 3.82223e-11 108278)
(1.49624e+06 -9230.66 9.8601e-11 -11190 4.33569e-11 109191)
(1.50022e+06 -2556.66 1.03452e-10 -3508.11 4.72193e-11 110484)
(1.26123e+06 -319931 -1.3046e-10 -87703.6 -1.73249e-10 83254)
(1.275e+06 -291730 -1.10938e-10 -87113.4 -1.53499e-10 84404.3)
(1.29695e+06 -265719 -9.14021e-11 -80185.8 -1.35232e-10 86756.2)
(1.31373e+06 -241952 -7.40892e-11 -75936.2 -1.18578e-10 88472)
(1.33273e+06 -218828 -5.67933e-11 -69302.8 -1.02437e-10 90599.7)
(1.34945e+06 -197798 -4.11632e-11 -64067.6 -8.77134e-11 92402.6)
(1.36644e+06 -177875 -2.6166e-11 -58432.6 -7.37438e-11 94256.2)
(1.38206e+06 -159562 -1.23884e-11 -53655.9 -6.08569e-11 95907)
(1.39717e+06 -142436 5.74158e-13 -49210.9 -4.87598e-11 97472.8)
(1.41119e+06 -126551 1.25927e-11 -45463.5 -3.74954e-11 98876.8)
(1.42442e+06 -111684 2.38522e-11 -42257.8 -2.69087e-11 100156)
(1.43668e+06 -97740.9 3.43834e-11 -39663.6 -1.69443e-11 101295)
(1.44806e+06 -84559.8 4.43013e-11 -37589.2 -7.49853e-12 102313)
(1.45855e+06 -72022.3 5.36774e-11 -35956.3 1.4966e-12 103219)
(1.46815e+06 -60009.5 6.25875e-11 -34601.3 1.01006e-11 104038)
(1.4769e+06 -48432.9 7.10981e-11 -33242.3 1.83437e-11 104809)
(1.48461e+06 -37232.3 7.92216e-11 -31490.5 2.62033e-11 105575)
(1.49141e+06 -26334.7 8.70371e-11 -28613.8 3.36557e-11 106439)
(1.49636e+06 -15826.1 9.43579e-11 -23684.4 4.04544e-11 107474)
(1.50032e+06 -4930.33 1.01823e-10 -15019.8 4.69918e-11 108953)
(1.40622e+06 -349363 -1.26857e-10 -129422 -1.75483e-10 84563.8)
(1.39774e+06 -321034 -1.10703e-10 -129479 -1.57475e-10 84531.4)
(1.40402e+06 -293435 -9.25577e-11 -119259 -1.39878e-10 86560.9)
(1.40447e+06 -269078 -7.73825e-11 -113571 -1.24397e-10 87665.1)
(1.4104e+06 -244640 -6.12513e-11 -104105 -1.08832e-10 89534.9)
(1.41473e+06 -222505 -4.68174e-11 -96550 -9.47053e-11 91043.9)
(1.42128e+06 -201220 -3.25547e-11 -88340.2 -8.10264e-11 92736)
(1.42747e+06 -181547 -1.93573e-11 -81224.3 -6.83165e-11 94245.6)
(1.43448e+06 -162997 -6.73416e-12 -74554.6 -5.62281e-11 95721.4)
(1.4414e+06 -145697 5.09136e-12 -68818.3 -4.48647e-11 97053.8)
(1.44853e+06 -129437 1.62958e-11 -63853.8 -3.40816e-11 98281)
(1.45556e+06 -114144 2.68737e-11 -59757 -2.38464e-11 99376.3)
(1.46252e+06 -99665.1 3.69271e-11 -56433.4 -1.40659e-11 100356)
(1.4693e+06 -85871.7 4.65204e-11 -53801.2 -4.67291e-12 101227)
(1.47585e+06 -72619.7 5.57358e-11 -51683 4.40162e-12 102012)
(1.48214e+06 -59748.2 6.46728e-11 -49784.6 1.32277e-11 102750)
(1.4879e+06 -47111.1 7.33856e-11 -47710.1 2.18329e-11 103482)
(1.49321e+06 -34396 8.2092e-11 -44757.5 3.03502e-11 104307)
(1.49706e+06 -21593.1 9.06527e-11 -40108.5 3.86038e-11 105283)
(1.50035e+06 -7006.39 1.00278e-10 -32196.3 4.76111e-11 106682)
(1.55829e+06 -352800 -1.06073e-10 -167232 -1.60382e-10 87095.6)
(1.52665e+06 -327982 -9.56974e-11 -169603 -1.46405e-10 85567.4)
(1.51764e+06 -301008 -8.02557e-11 -156525 -1.30859e-10 87205.4)
(1.50146e+06 -278451 -6.8748e-11 -150194 -1.18063e-10 87546.9)
(1.49434e+06 -254683 -5.50126e-11 -138528 -1.04311e-10 89049.2)
(1.48613e+06 -233233 -4.29099e-11 -129118 -9.19236e-11 90170.7)
(1.48202e+06 -212229 -3.0434e-11 -118780 -7.9588e-11 91610.2)
(1.47855e+06 -192654 -1.8758e-11 -109602 -6.80078e-11 92909.9)
(1.47713e+06 -174026 -7.35707e-12 -100916 -5.68209e-11 94233.5)
(1.47659e+06 -156513 3.47638e-12 -93278.7 -4.61749e-11 95448)
(1.47719e+06 -139952 1.38847e-11 -86573.5 -3.59526e-11 96584.2)
(1.47852e+06 -124292 2.38332e-11 -80931.3 -2.61404e-11 97604.8)
(1.48054e+06 -109404 3.33969e-11 -76293.2 -1.66633e-11 98517.8)
(1.48307e+06 -95154.2 4.26306e-11 -72607.8 -7.45446e-12 99322.6)
(1.48599e+06 -81385.9 5.16155e-11 -69730.3 1.56333e-12 100034)
(1.4892e+06 -67875.7 6.04772e-11 -67415.3 1.05006e-11 100684)
(1.49242e+06 -54411.3 6.9308e-11 -65332.3 1.94346e-11 101302)
(1.49565e+06 -40476.1 7.8437e-11 -62912.4 2.86424e-11 101972)
(1.49804e+06 -26011.4 8.77757e-11 -59527.8 3.80157e-11 102734)
(1.50028e+06 -8614.19 9.89359e-11 -53893.6 4.9055e-11 103822)
(1.71028e+06 -330294 -6.92094e-11 -198916 -1.28847e-10 90785.2)
(1.65561e+06 -312900 -6.70382e-11 -205589 -1.21248e-10 87453.1)
(1.63244e+06 -288856 -5.55607e-11 -190772 -1.09049e-10 88578)
(1.60017e+06 -270362 -4.90484e-11 -184537 -1.00304e-10 88054)
(1.58045e+06 -249378 -3.89556e-11 -171573 -8.96197e-11 89064.4)
(1.56013e+06 -230320 -3.01729e-11 -160593 -8.00291e-11 89759.3)
(1.54552e+06 -211203 -2.04538e-11 -148439 -7.00481e-11 90890.5)
(1.53257e+06 -193049 -1.10881e-11 -137279 -6.04469e-11 91960.5)
(1.52271e+06 -175536 -1.64796e-12 -126650 -5.09437e-11 93105.2)
(1.51467e+06 -158852 7.54484e-12 -117135 -4.17041e-11 94182.7)
(1.50861e+06 -142936 1.6552e-11 -108714 -3.26765e-11 95204.2)
(1.50403e+06 -127765 2.53108e-11 -101551 -2.38682e-11 96124.9)
(1.50084e+06 -113254 3.38563e-11 -95638.7 -1.52335e-11 96941.1)
(1.49878e+06 -99277.2 4.22287e-11 -90970 -6.71062e-12 97643.9)
(1.4977e+06 -85675.7 5.05021e-11 -87455.1 1.78109e-12 98238.9)
(1.49744e+06 -72182.3 5.88203e-11 -84933.1 1.03863e-11 98743.2)
(1.49774e+06 -58540.8 6.7305e-11 -83173.8 1.92262e-11 99178)
(1.49852e+06 -44085 7.63593e-11 -81809.1 2.86905e-11 99596)
(1.49924e+06 -28738.9 8.5952e-11 -80420.9 3.87348e-11 100026)
(1.50014e+06 -9637.72 9.79041e-11 -78169.7 5.11785e-11 100631)
(1.85606e+06 -283543 -1.81735e-11 -218756 -8.31874e-11 96052.1)
(1.78007e+06 -277451 -2.63597e-11 -231648 -8.41607e-11 90696.9)
(1.74413e+06 -258780 -2.01843e-11 -217753 -7.64988e-11 90994.7)
(1.69728e+06 -245871 -1.93771e-11 -212174 -7.26151e-11 89586.9)
(1.66551e+06 -229539 -1.40221e-11 -199740 -6.59739e-11 89867.5)
(1.6341e+06 -214196 -9.23697e-12 -188298 -5.98407e-11 90022.6)
(1.60934e+06 -198426 -3.14013e-12 -175552 -5.30083e-11 90682.9)
(1.58735e+06 -182970 3.18298e-12 -163254 -4.60949e-11 91416.9)
(1.56922e+06 -167775 9.93705e-12 -151297 -3.89844e-11 92293.6)
(1.5538e+06 -152986 1.68452e-11 -140259 -3.18044e-11 93178.9)
(1.54108e+06 -138658 2.3869e-11 -130290 -2.45745e-11 94051.2)
(1.53056e+06 -124804 3.09213e-11 -121638 -1.73171e-11 94854.5)
(1.52207e+06 -111401 3.7985e-11 -114405 -1.00212e-11 95565.6)
(1.5153e+06 -98355 4.50717e-11 -108679 -2.63881e-12 96160.4)
(1.51006e+06 -85528.8 5.22366e-11 -104472 4.90514e-12 96629.7)
(1.50614e+06 -72645.6 5.96161e-11 -101755 1.27718e-11 96970.1)
(1.50337e+06 -59436.1 6.73523e-11 -100434 2.1114e-11 97189.5)
(1.50151e+06 -45152.6 7.58719e-11 -100397 3.03931e-11 97301.4)
(1.50049e+06 -29724.5 8.52098e-11 -101439 4.06251e-11 97330)
(1.49995e+06 -10051.9 9.72245e-11 -103288 5.37967e-11 97335.3)
(1.99145e+06 -217240 4.35609e-11 -222713 -2.73306e-11 103152)
(1.8958e+06 -224435 2.40297e-11 -242961 -3.79146e-11 95679.1)
(1.84819e+06 -214930 2.26372e-11 -236306 -3.64714e-11 94326.6)
(1.78955e+06 -208676 1.74938e-11 -232345 -3.78076e-11 92031.9)
(1.74626e+06 -198922 1.69837e-11 -221870 -3.62716e-11 91395.8)
(1.70529e+06 -188192 1.74505e-11 -210259 -3.40242e-11 91036.1)
(1.67117e+06 -176524 1.95771e-11 -197193 -3.07401e-11 91218.2)
(1.64101e+06 -164338 2.26357e-11 -184061 -2.67829e-11 91612)
(1.61523e+06 -151971 2.64783e-11 -171160 -2.23054e-11 92194.5)
(1.59292e+06 -139603 3.08455e-11 -159063 -1.74371e-11 92843.3)
(1.57385e+06 -127391 3.56015e-11 -148028 -1.22717e-11 93512)
(1.55758e+06 -115403 4.06302e-11 -138355 -6.85758e-12 94137.9)
(1.54386e+06 -103661 4.58758e-11 -130226 -1.21019e-12 94684.5)
(1.53237e+06 -92105.4 5.13251e-11 -123814 4.70389e-12 95114.7)
(1.52291e+06 -80623.5 5.70144e-11 -119230 1.09549e-11 95405.9)
(1.51523e+06 -68951.1 6.30652e-11 -116592 1.7709e-11 95533.2)
(1.50928e+06 -56824.6 6.96321e-11 -115958 2.51432e-11 95490.7)
(1.50467e+06 -43480.7 7.71228e-11 -117495 3.37481e-11 95248)
(1.50187e+06 -28852.8 8.56499e-11 -121216 4.36093e-11 94827.1)
(1.49975e+06 -9821.87 9.69576e-11 -127513 5.67381e-11 94165.3)
(2.10442e+06 -132015 1.1368e-10 -214953 3.77618e-11 110937)
(2.0074e+06 -148053 8.85453e-11 -231288 2.07605e-11 103784)
(1.94604e+06 -151725 7.66867e-11 -238635 1.39413e-11 99740.1)
(1.88077e+06 -153076 6.57462e-11 -240028 7.63135e-12 96312.4)
(1.82592e+06 -152193 5.78801e-11 -235952 3.05589e-12 94145.6)
(1.7759e+06 -148646 5.24659e-11 -227887 1.92963e-13 92775.6)
(1.73228e+06 -143260 4.92174e-11 -216899 -1.24751e-12 92129)
(1.69377e+06 -136325 4.77384e-11 -204423 -1.399e-12 91950.9)
(1.66024e+06 -128318 4.77011e-11 -191260 -4.95071e-13 92124.1)
(1.63101e+06 -119587 4.87707e-11 -178276 1.27442e-12 92496.3)
(1.60571e+06 -110419 5.07053e-11 -166009 3.7516e-12 92974.9)
(1.58384e+06 -101017 5.32958e-11 -154964 6.81903e-12 93467.2)
(1.56507e+06 -91502.9 5.64098e-11 -145496 1.04079e-11 93908.4)
(1.54903e+06 -81906.3 5.99669e-11 -137933 1.45053e-11 94236.8)
(1.53551e+06 -72182.6 6.39568e-11 -132531 1.91518e-11 94409.1)
(1.52417e+06 -62126.6 6.84501e-11 -129586 2.44888e-11 94373.1)
(1.51509e+06 -51517.6 7.35918e-11 -129327 3.06959e-11 94105.8)
(1.50773e+06 -39649.3 7.9727e-11 -132230 3.82488e-11 93528.3)
(1.50313e+06 -26471.4 8.70422e-11 -138541 4.72981e-11 92660.2)
(1.49948e+06 -9047.71 9.70506e-11 -149320 5.97517e-11 91314.6)
(2.16855e+06 -61518.7 1.67417e-10 -191620 8.71406e-11 118137)
(2.07925e+06 -69854 1.48214e-10 -208665 7.59736e-11 111380)
(2.00898e+06 -85883.1 1.27214e-10 -225255 6.12944e-11 105516)
(1.94157e+06 -93372.9 1.12067e-10 -232463 5.14172e-11 101138)
(1.88191e+06 -98654.3 9.9589e-11 -232732 4.28587e-11 98079.6)
(1.82727e+06 -100982 8.97781e-11 -228457 3.61553e-11 95904.2)
(1.77869e+06 -100995 8.23918e-11 -220331 3.10548e-11 94563.6)
(1.73511e+06 -99086.6 7.69977e-11 -210011 2.73976e-11 93783.9)
(1.69658e+06 -95624.3 7.33607e-11 -198343 2.50419e-11 93450.7)
(1.66247e+06 -90988.8 7.1137e-11 -186318 2.3799e-11 93399.7)
(1.63252e+06 -85477.9 7.00898e-11 -174595 2.35242e-11 93526.5)
(1.60627e+06 -79341.7 6.99863e-11 -163798 2.40872e-11 93724.2)
(1.58342e+06 -72752.5 7.06657e-11 -154407 2.54028e-11 93912.9)
(1.56361e+06 -65800.3 7.20091e-11 -146875 2.74333e-11 94014.1)
(1.54666e+06 -58500.1 7.39739e-11 -141588 3.01986e-11 93968.2)
(1.53222e+06 -50728.2 7.65744e-11 -139004 3.38026e-11 93699.9)
(1.52047e+06 -42331.2 7.99284e-11 -139520 3.84094e-11 93168.8)
(1.51077e+06 -32761.3 8.42602e-11 -143863 4.44087e-11 92254.9)
(1.50456e+06 -21995.6 8.98023e-11 -152510 5.1996e-11 90968.6)
(1.49941e+06 -7533.86 9.76949e-11 -167129 6.28094e-11 89006.5)
(2.1359e+06 8088.38 2.05698e-10 -165310 1.27316e-10 120928)
(2.06566e+06 -1641.11 1.88288e-10 -200957 1.1901e-10 112664)
(2.00105e+06 -21311.5 1.65908e-10 -218185 1.02482e-10 106946)
(1.93976e+06 -34147.9 1.48372e-10 -227935 8.98877e-11 102464)
(1.88449e+06 -44282.1 1.33552e-10 -229944 7.86984e-11 99328.3)
(1.83313e+06 -51458.6 1.21236e-10 -227271 6.92566e-11 97038.7)
(1.78675e+06 -56098.5 1.11312e-10 -220612 6.14542e-11 95550.5)
(1.74443e+06 -58607.6 1.03369e-10 -211579 5.51337e-11 94603.3)
(1.70639e+06 -59315.9 9.72197e-11 -201010 5.01905e-11 94093.1)
(1.67217e+06 -58585.4 9.2556e-11 -189893 4.64612e-11 93863.1)
(1.64164e+06 -56703.8 8.91715e-11 -178906 4.3824e-11 93814.9)
(1.61448e+06 -53927 8.68467e-11 -168710 4.21578e-11 93842.6)
(1.5905e+06 -50441.4 8.543e-11 -159824 4.13837e-11 93866.2)
(1.56943e+06 -46372.6 8.47929e-11 -152762 4.14546e-11 93803.2)
(1.55116e+06 -41770.5 8.48834e-11 -147976 4.23819e-11 93589.5)
(1.53542e+06 -36596.8 8.56705e-11 -146016 4.42291e-11 93139)
(1.52249e+06 -30746.6 8.72583e-11 -147373 4.71486e-11 92404)
(1.5117e+06 -23878.9 8.97395e-11 -152916 5.14089e-11 91242.7)
(1.50485e+06 -16038.4 9.33511e-11 -163306 5.72092e-11 89656.1)
(1.49914e+06 -5470.76 9.87162e-11 -180439 6.56914e-11 87283.6)
(2.11123e+06 77803.3 2.45353e-10 -134291 1.677e-10 124730)
(2.04649e+06 62231.3 2.25101e-10 -175663 1.56665e-10 115910)
(1.99176e+06 38963.4 2.01966e-10 -196974 1.39075e-10 110097)
(1.93526e+06 21813.4 1.82441e-10 -211158 1.24553e-10 105212)
(1.88439e+06 7586.84 1.6572e-10 -216937 1.11471e-10 101744)
(1.8357e+06 -3733.21 1.51206e-10 -217655 9.99107e-11 99086.1)
(1.79127e+06 -12390.4 1.39063e-10 -213848 8.99498e-11 97266)
(1.75007e+06 -18824.2 1.28835e-10 -207224 8.1409e-11 96004.6)
(1.71261e+06 -23295.6 1.20426e-10 -198616 7.42555e-11 95214.7)
(1.67849e+06 -26147.8 1.13545e-10 -189076 6.83499e-11 94734.2)
(1.64774e+06 -27644.7 1.08023e-10 -179332 6.36037e-11 94465.5)
(1.62009e+06 -28038.7 1.03653e-10 -170111 5.99129e-11 94297.5)
(1.59544e+06 -27525.9 1.00287e-10 -162002 5.72063e-11 94145.1)
(1.57358e+06 -26260.2 9.77897e-11 -155592 5.54321e-11 93919.1)
(1.55446e+06 -24332.9 9.60898e-11 -151417 5.45892e-11 93546.1)
(1.53787e+06 -21787.4 9.51158e-11 -150096 5.47007e-11 92933.7)
(1.52413e+06 -18575.5 9.49404e-11 -152258 5.59008e-11 92017.1)
(1.51264e+06 -14614.3 9.55035e-11 -158759 5.82896e-11 90654.7)
(1.50537e+06 -9895.37 9.71083e-11 -170356 6.2131e-11 88846.5)
(1.49908e+06 -3370.25 9.98623e-11 -189369 6.81091e-11 86143.8)
(2.06759e+06 131961 2.72409e-10 -108102 1.96738e-10 126747)
(2.01145e+06 115969 2.53156e-10 -154103 1.86697e-10 117741)
(1.96594e+06 91571.6 2.30707e-10 -178016 1.69449e-10 112029)
(1.91572e+06 72373.4 2.10844e-10 -195164 1.54454e-10 107039)
(1.87047e+06 55459.9 1.93293e-10 -203556 1.40378e-10 103471)
(1.82595e+06 41169 1.77554e-10 -206703 1.27491e-10 100659)
(1.78487e+06 29346.1 1.63944e-10 -205082 1.15978e-10 98676)
(1.74617e+06 19686.4 1.52082e-10 -200412 1.05744e-10 97238.1)
(1.71058e+06 11994.5 1.41949e-10 -193511 9.68191e-11 96272.6)
(1.67777e+06 5990 1.33304e-10 -185444 8.9112e-11 95620.6)
(1.64789e+06 1444.99 1.26018e-10 -176950 8.25704e-11 95189.3)
(1.62076e+06 -1872.84 1.19909e-10 -168782 7.71131e-11 94868.7)
(1.59637e+06 -4156.3 1.14845e-10 -161556 7.26818e-11 94574.5)