/*--------------------------------*- C++ -*----------------------------------*\
  =========                 |
  \\      /  F ield         | OpenFOAM: The Open Source CFD Toolbox
   \\    /   O peration     | Website:  https://openfoam.org
    \\  /    A nd           | Version:  9
     \\/     M anipulation  |
\*---------------------------------------------------------------------------*/
FoamFile
{
    format      ascii;
    class       volScalarField;
    location    "15";
    object      sigmaEq;
}
// * * * * * * * * * * * * * * * * * * * * * * * * * * * * * * * * * * * * * //

dimensions      [1 -1 -2 0 0 0 0];

internalField   nonuniform List<scalar> 
1000
(
2.58371e+06
2.46058e+06
2.42644e+06
2.43078e+06
2.42373e+06
2.40834e+06
2.38408e+06
2.35224e+06
2.31994e+06
2.27924e+06
3.0198e+06
2.76448e+06
2.64063e+06
2.58634e+06
2.5394e+06
2.49531e+06
2.44938e+06
2.40165e+06
2.35179e+06
2.30394e+06
3.44225e+06
3.05939e+06
2.84135e+06
2.72166e+06
2.62956e+06
2.55227e+06
2.48142e+06
2.41445e+06
2.34853e+06
2.28959e+06
3.84309e+06
3.3396e+06
3.02916e+06
2.83737e+06
2.69581e+06
2.58164e+06
2.48371e+06
2.39653e+06
2.31454e+06
2.24472e+06
4.22786e+06
3.60122e+06
3.20012e+06
2.93325e+06
2.73792e+06
2.58423e+06
2.45761e+06
2.34951e+06
2.25229e+06
2.17144e+06
4.54881e+06
3.84966e+06
3.35145e+06
3.00763e+06
2.75541e+06
2.56152e+06
2.40607e+06
2.27755e+06
2.16616e+06
2.07455e+06
4.80515e+06
4.06504e+06
3.46991e+06
3.04884e+06
2.74247e+06
2.51155e+06
2.33072e+06
2.1846e+06
2.06175e+06
1.9607e+06
5.08748e+06
4.24146e+06
3.54446e+06
3.05433e+06
2.70248e+06
2.44234e+06
2.24272e+06
2.08432e+06
1.95427e+06
1.84653e+06
5.25922e+06
4.32708e+06
3.52287e+06
2.98516e+06
2.61714e+06
2.3482e+06
2.14499e+06
1.98413e+06
1.85331e+06
1.74285e+06
5.63096e+06
4.23649e+06
3.41043e+06
2.88704e+06
2.54011e+06
2.28324e+06
2.08793e+06
1.9307e+06
1.80188e+06
1.69029e+06
10421.3
17807
85369.8
181842
289282
400918
509752
613741
709727
800436
20992.4
124101
264103
401623
525151
635670
732968
822206
899634
973064
98248.5
293458
471034
629420
762623
874694
968557
1.04822e+06
1.11121e+06
1.17175e+06
233499
502522
702589
869001
1.00383e+06
1.11414e+06
1.2007e+06
1.27081e+06
1.32162e+06
1.37167e+06
429148
740535
951969
1.11973e+06
1.25005e+06
1.35088e+06
1.42655e+06
1.48524e+06
1.52369e+06
1.56321e+06
684702
997972
1.20726e+06
1.37235e+06
1.49082e+06
1.57849e+06
1.64092e+06
1.68662e+06
1.71238e+06
1.74076e+06
994358
1.27047e+06
1.46648e+06
1.6174e+06
1.71989e+06
1.7917e+06
1.83915e+06
1.87065e+06
1.88357e+06
1.90012e+06
1.35004e+06
1.55464e+06
1.72034e+06
1.84857e+06
1.9308e+06
1.9846e+06
2.0161e+06
2.03298e+06
2.03379e+06
2.03737e+06
1.74076e+06
1.85223e+06
1.96614e+06
2.06242e+06
2.11996e+06
2.15355e+06
2.16798e+06
2.16954e+06
2.15713e+06
2.1487e+06
2.15584e+06
2.15522e+06
2.2017e+06
2.25636e+06
2.28404e+06
2.29415e+06
2.28978e+06
2.27325e+06
2.25232e+06
2.22963e+06
882008
952653
1.01808e+06
1.07718e+06
1.13064e+06
1.1787e+06
1.22185e+06
1.26038e+06
1.29471e+06
1.32507e+06
1.35177e+06
1.37497e+06
1.39485e+06
1.41149e+06
1.42495e+06
1.4353e+06
1.4425e+06
1.44683e+06
1.44824e+06
1.44764e+06
1.02977e+06
1.07238e+06
1.1152e+06
1.15464e+06
1.19168e+06
1.22587e+06
1.25745e+06
1.28631e+06
1.31263e+06
1.33641e+06
1.35779e+06
1.37681e+06
1.39355e+06
1.40809e+06
1.42043e+06
1.43062e+06
1.43856e+06
1.44427e+06
1.44715e+06
1.44712e+06
1.20632e+06
1.22234e+06
1.24232e+06
1.2609e+06
1.27984e+06
1.29816e+06
1.31616e+06
1.33335e+06
1.34982e+06
1.36531e+06
1.37985e+06
1.39332e+06
1.40572e+06
1.41699e+06
1.42708e+06
1.43591e+06
1.44318e+06
1.44865e+06
1.45108e+06
1.45011e+06
1.38756e+06
1.38075e+06
1.38068e+06
1.38035e+06
1.3823e+06
1.38517e+06
1.38958e+06
1.39474e+06
1.40079e+06
1.40729e+06
1.4142e+06
1.42127e+06
1.4284e+06
1.43544e+06
1.4422e+06
1.4485e+06
1.45385e+06
1.45792e+06
1.45915e+06
1.45734e+06
1.56255e+06
1.53641e+06
1.51906e+06
1.50222e+06
1.48913e+06
1.4779e+06
1.46964e+06
1.46325e+06
1.45909e+06
1.45653e+06
1.45556e+06
1.45583e+06
1.4572e+06
1.45941e+06
1.4622e+06
1.4653e+06
1.46814e+06
1.47033e+06
1.47035e+06
1.46809e+06
1.7253e+06
1.68293e+06
1.65106e+06
1.62001e+06
1.59406e+06
1.57038e+06
1.55085e+06
1.53394e+06
1.52026e+06
1.50908e+06
1.50042e+06
1.49388e+06
1.48931e+06
1.4864e+06
1.48487e+06
1.48441e+06
1.48448e+06
1.48467e+06
1.48379e+06
1.4817e+06
1.87167e+06
1.8161e+06
1.77289e+06
1.72982e+06
1.69335e+06
1.65889e+06
1.62947e+06
1.60311e+06
1.58072e+06
1.56151e+06
1.54557e+06
1.5325e+06
1.52212e+06
1.51414e+06
1.50827e+06
1.5042e+06
1.50152e+06
1.49984e+06
1.49844e+06
1.49704e+06
1.99799e+06
1.9322e+06
1.88135e+06
1.82818e+06
1.78351e+06
1.74041e+06
1.70284e+06
1.66856e+06
1.63855e+06
1.61217e+06
1.5895e+06
1.57025e+06
1.55427e+06
1.54131e+06
1.53115e+06
1.52352e+06
1.51819e+06
1.5148e+06
1.51325e+06
1.51303e+06
2.10446e+06
2.02875e+06
1.97581e+06
1.91521e+06
1.86382e+06
1.81362e+06
1.76878e+06
1.72765e+06
1.69097e+06
1.65832e+06
1.62972e+06
1.60497e+06
1.58394e+06
1.56644e+06
1.55233e+06
1.54141e+06
1.53367e+06
1.52881e+06
1.52739e+06
1.52863e+06
2.1868e+06
2.10704e+06
2.05357e+06
1.99195e+06
1.93627e+06
1.88195e+06
1.8314e+06
1.78442e+06
1.74157e+06
1.70289e+06
1.66847e+06
1.63823e+06
1.61213e+06
1.59004e+06
1.57192e+06
1.55765e+06
1.54744e+06
1.54108e+06
1.53984e+06
1.5427e+06
2.2241e+06
2.14928e+06
2.09388e+06
2.03436e+06
1.97757e+06
1.92224e+06
1.86985e+06
1.82053e+06
1.77493e+06
1.7332e+06
1.69557e+06
1.66208e+06
1.6328e+06
1.60771e+06
1.5869e+06
1.57034e+06
1.55847e+06
1.55115e+06
1.55021e+06
1.55444e+06
2.17233e+06
2.12722e+06
2.07618e+06
2.02369e+06
1.97203e+06
1.92098e+06
1.87196e+06
1.82514e+06
1.78127e+06
1.7406e+06
1.7035e+06
1.6701e+06
1.64061e+06
1.6151e+06
1.5938e+06
1.5768e+06
1.56473e+06
1.55752e+06
1.55741e+06
1.56304e+06
2.13213e+06
2.09444e+06
2.05361e+06
2.00738e+06
1.96154e+06
1.91475e+06
1.8692e+06
1.82496e+06
1.78302e+06
1.74367e+06
1.70739e+06
1.67444e+06
1.64509e+06
1.61954e+06
1.5981e+06
1.58097e+06
1.56892e+06
1.5619e+06
1.56243e+06
1.56895e+06
2.08088e+06
2.05309e+06
2.02089e+06
1.98115e+06
1.94121e+06
1.89907e+06
1.8575e+06
1.81647e+06
1.77713e+06
1.73983e+06
1.70514e+06
1.67337e+06
1.6449e+06
1.61997e+06
1.59898e+06
1.58223e+06
1.57045e+06
1.56388e+06
1.5651e+06
1.57213e+06
2.02129e+06
2.00182e+06
1.97789e+06
1.94507e+06
1.91147e+06
1.87461e+06
1.83764e+06
1.80046e+06
1.76439e+06
1.72979e+06
1.69734e+06
1.6674e+06
1.6404e+06
1.61666e+06
1.59655e+06
1.58061e+06
1.5691e+06
1.56366e+06
1.56273e+06
1.57254e+06
1.95655e+06
1.94474e+06
1.92835e+06
1.90222e+06
1.87475e+06
1.84326e+06
1.8111e+06
1.77811e+06
1.74571e+06
1.7143e+06
1.68461e+06
1.65703e+06
1.63204e+06
1.60998e+06
1.59134e+06
1.57642e+06
1.56614e+06
1.56066e+06
1.56219e+06
1.56901e+06
1.88819e+06
1.88302e+06
1.87336e+06
1.85361e+06
1.83205e+06
1.80598e+06
1.77876e+06
1.75022e+06
1.72182e+06
1.69398e+06
1.66746e+06
1.64268e+06
1.62014e+06
1.6002e+06
1.58333e+06
1.56983e+06
1.56055e+06
1.55547e+06
1.55687e+06
1.56325e+06
1.81765e+06
1.81823e+06
1.81453e+06
1.8007e+06
1.78468e+06
1.7639e+06
1.74159e+06
1.71761e+06
1.69342e+06
1.66943e+06
1.6464e+06
1.62478e+06
1.60506e+06
1.58758e+06
1.5728e+06
1.56097e+06
1.55285e+06
1.54843e+06
1.54961e+06
1.55507e+06
1.74569e+06
1.75113e+06
1.75263e+06
1.74421e+06
1.73337e+06
1.71771e+06
1.70026e+06
1.68092e+06
1.66107e+06
1.64114e+06
1.62188e+06
1.60371e+06
1.58711e+06
1.5724e+06
1.56001e+06
1.55011e+06
1.54334e+06
1.5396e+06
1.54051e+06
1.54486e+06
1.67272e+06
1.68224e+06
1.68828e+06
1.68479e+06
1.6788e+06
1.66805e+06
1.65538e+06
1.6407e+06
1.62531e+06
1.60961e+06
1.59432e+06
1.57985e+06
1.56663e+06
1.55497e+06
1.54521e+06
1.53748e+06
1.53224e+06
1.52935e+06
1.52998e+06
1.53308e+06
1.59876e+06
1.61172e+06
1.62172e+06
1.62276e+06
1.62134e+06
1.61537e+06
1.60742e+06
1.59744e+06
1.5866e+06
1.5753e+06
1.56417e+06
1.5536e+06
1.544e+06
1.53561e+06
1.52871e+06
1.52337e+06
1.51986e+06
1.51799e+06
1.5184e+06
1.52026e+06
1.52355e+06
1.53947e+06
1.55304e+06
1.55833e+06
1.5613e+06
1.56002e+06
1.55682e+06
1.55161e+06
1.54546e+06
1.53869e+06
1.53191e+06
1.52544e+06
1.51964e+06
1.51471e+06
1.51086e+06
1.50812e+06
1.50655e+06
1.50589e+06
1.50626e+06
1.50698e+06
1.44655e+06
1.46518e+06
1.48208e+06
1.49151e+06
1.49885e+06
1.50234e+06
1.50398e+06
1.50369e+06
1.5024e+06
1.50037e+06
1.49811e+06
1.49591e+06
1.49408e+06
1.49277e+06
1.49213e+06
1.49213e+06
1.49268e+06
1.49345e+06
1.49402e+06
1.49383e+06
1.3671e+06
1.38845e+06
1.40867e+06
1.42236e+06
1.43424e+06
1.44268e+06
1.44941e+06
1.4543e+06
1.4581e+06
1.46103e+06
1.4635e+06
1.46574e+06
1.46801e+06
1.47043e+06
1.47309e+06
1.47593e+06
1.47874e+06
1.48111e+06
1.48217e+06
1.4814e+06
1.28435e+06
1.30871e+06
1.33258e+06
1.3509e+06
1.36771e+06
1.38152e+06
1.39373e+06
1.40416e+06
1.41339e+06
1.42156e+06
1.42899e+06
1.43584e+06
1.44231e+06
1.44851e+06
1.45448e+06
1.46017e+06
1.46528e+06
1.46938e+06
1.47123e+06
1.47027e+06
1.19764e+06
1.22573e+06
1.25387e+06
1.2775e+06
1.29988e+06
1.31967e+06
1.3379e+06
1.35435e+06
1.36941e+06
1.38314e+06
1.39576e+06
1.40737e+06
1.4181e+06
1.42805e+06
1.43726e+06
1.44566e+06
1.45298e+06
1.45878e+06
1.46167e+06
1.46092e+06
1.10614e+06
1.13918e+06
1.17269e+06
1.2027e+06
1.23161e+06
1.25822e+06
1.2832e+06
1.30626e+06
1.32763e+06
1.34728e+06
1.36532e+06
1.38181e+06
1.39683e+06
1.41045e+06
1.42269e+06
1.43353e+06
1.44276e+06
1.45001e+06
1.454e+06
1.45384e+06
1.01045e+06
1.0502e+06
1.09057e+06
1.1283e+06
1.16487e+06
1.19922e+06
1.23169e+06
1.26192e+06
1.29e+06
1.31583e+06
1.33946e+06
1.36087e+06
1.38011e+06
1.3972e+06
1.41218e+06
1.42505e+06
1.43569e+06
1.44388e+06
1.44869e+06
1.44924e+06
911143
960164
1.00948e+06
1.05665e+06
1.10224e+06
1.14535e+06
1.18605e+06
1.22398e+06
1.25911e+06
1.29132e+06
1.32061e+06
1.34693e+06
1.37029e+06
1.39067e+06
1.40805e+06
1.42242e+06
1.43368e+06
1.44184e+06
1.44646e+06
1.44737e+06
814701
875526
935616
993359
1.04877e+06
1.10105e+06
1.15015e+06
1.19572e+06
1.23773e+06
1.27607e+06
1.31073e+06
1.34166e+06
1.36884e+06
1.39221e+06
1.41166e+06
1.42709e+06
1.43828e+06
1.44536e+06
1.44815e+06
1.44788e+06
1.59614e+06
1.64763e+06
1.74755e+06
1.86031e+06
1.97602e+06
2.0775e+06
2.15743e+06
2.2103e+06
2.23662e+06
2.23027e+06
1.50964e+06
1.55852e+06
1.6525e+06
1.76143e+06
1.87806e+06
1.98629e+06
2.07868e+06
2.14724e+06
2.19014e+06
2.19698e+06
1.43165e+06
1.47845e+06
1.56634e+06
1.66876e+06
1.78058e+06
1.88711e+06
1.98224e+06
2.05949e+06
2.11781e+06
2.15046e+06
1.36015e+06
1.40577e+06
1.48919e+06
1.58653e+06
1.69464e+06
1.79987e+06
1.89621e+06
1.9775e+06
2.04069e+06
2.08797e+06
1.29299e+06
1.33767e+06
1.41691e+06
1.50886e+06
1.61208e+06
1.71434e+06
1.81023e+06
1.89508e+06
1.96253e+06
2.01998e+06
1.22977e+06
1.27395e+06
1.34999e+06
1.43739e+06
1.53602e+06
1.63479e+06
1.72841e+06
1.81392e+06
1.88255e+06
1.94663e+06
1.16923e+06
1.21304e+06
1.28628e+06
1.3695e+06
1.46365e+06
1.55878e+06
1.64973e+06
1.73508e+06
1.80383e+06
1.87117e+06
1.11106e+06
1.1546e+06
1.22553e+06
1.30506e+06
1.39499e+06
1.48627e+06
1.57396e+06
1.65792e+06
1.72602e+06
1.79472e+06
1.05463e+06
1.09789e+06
1.16675e+06
1.24292e+06
1.32888e+06
1.41638e+06
1.50072e+06
1.58262e+06
1.64957e+06
1.71812e+06
999762
1.04263e+06
1.10953e+06
1.18254e+06
1.26468e+06
1.34836e+06
1.42922e+06
1.50854e+06
1.57406e+06
1.64159e+06
947322
988497
1.05334e+06
1.12323e+06
1.20161e+06
1.28142e+06
1.35876e+06
1.43516e+06
1.49902e+06
1.56497e+06
896324
935385
997879
1.06442e+06
1.13891e+06
1.21469e+06
1.28843e+06
1.36164e+06
1.42372e+06
1.48778e+06
847009
883383
942875
1.00549e+06
1.0757e+06
1.14717e+06
1.21716e+06
1.287e+06
1.34721e+06
1.40928e+06
800018
833510
888037
945779
1.01104e+06
1.07777e+06
1.14378e+06
1.21013e+06
1.26843e+06
1.32854e+06
756698
785493
832868
884173
943412
1.00484e+06
1.06665e+06
1.12948e+06
1.18601e+06
1.2444e+06
718867
739495
776635
819502
871364
926850
984256
1.04368e+06
1.09874e+06
1.15584e+06
690328
696192
717839
748323
791310
840485
893739
950338
1.00474e+06
1.0615e+06
673634
652220
652292
668666
701302
744095
793954
848763
903763
961474
678907
602119
568536
568514
593041
631692
680197
735699
794047
855261
678163
513370
459102
445310
466453
505143
556929
616856
681108
749043
)
;

boundaryField
{
    left
    {
        type            calculated;
        value           nonuniform List<scalar> 
30
(
1.58365e+06
1.49711e+06
1.4191e+06
1.34748e+06
1.28029e+06
1.21709e+06
1.15671e+06
1.09884e+06
1.04292e+06
988968
937549
887986
840546
795918
755567
721929
700025
698243
742492
849941
5.94337e+06
4.13013e+06
3.30352e+06
2.82469e+06
2.50616e+06
2.26292e+06
2.0742e+06
1.91933e+06
1.79127e+06
1.67871e+06
)
;
    }
    right
    {
        type            calculated;
        value           nonuniform List<scalar> 
30
(
1.44735e+06
1.44712e+06
1.44994e+06
1.45709e+06
1.4678e+06
1.48144e+06
1.49686e+06
1.51299e+06
1.52873e+06
1.54301e+06
1.55481e+06
1.56362e+06
1.56959e+06
1.57279e+06
1.5727e+06
1.56955e+06
1.56383e+06
1.55556e+06
1.54524e+06
1.53333e+06
1.52038e+06
1.50699e+06
1.49374e+06
1.48124e+06
1.47008e+06
1.46074e+06
1.45373e+06
1.44921e+06
1.44743e+06
1.44754e+06
)
;
    }
    down
    {
        type            calculated;
        value           nonuniform List<scalar> 
30
(
7649.29
4400.57
63188.7
157580
266646
380905
492618
599251
697403
790018
873543
946337
1.01328e+06
1.07349e+06
1.12784e+06
1.17655e+06
1.22023e+06
1.25916e+06
1.2938e+06
1.32442e+06
1.35131e+06
1.37466e+06
1.39465e+06
1.41137e+06
1.42489e+06
1.43527e+06
1.44249e+06
1.44682e+06
1.44823e+06
1.44778e+06
)
;
    }
    up
    {
        type            calculated;
        value           nonuniform List<scalar> 
30
(
657061
507646
457450
443819
464537
502725
554160
613901
678057
746046
811838
872975
933424
991467
1.04718e+06
1.09972e+06
1.14907e+06
1.19485e+06
1.23705e+06
1.27555e+06
1.31035e+06
1.3414e+06
1.36868e+06
1.39212e+06
1.41163e+06
1.42709e+06
1.4383e+06
1.44537e+06
1.44814e+06
1.44796e+06
)
;
    }
    hole
    {
        type            calculated;
        value           nonuniform List<scalar> 
20
(
2.56981e+06
2.90037e+06
3.27587e+06
3.71564e+06
4.1759e+06
4.51894e+06
4.79136e+06
5.0571e+06
4.75416e+06
4.59882e+06
3178.46
3785.6
48152.2
168821
358511
615800
932151
1.29807e+06
1.70114e+06
2.12965e+06
)
;
    }
    frontAndBack
    {
        type            empty;
    }
}


// ************************************************************************* //
