/*--------------------------------*- C++ -*----------------------------------*\
  =========                 |
  \\      /  F ield         | OpenFOAM: The Open Source CFD Toolbox
   \\    /   O peration     | Website:  https://openfoam.org
    \\  /    A nd           | Version:  9
     \\/     M anipulation  |
\*---------------------------------------------------------------------------*/
FoamFile
{
    format      ascii;
    class       volVectorField;
    location    "5";
    object      D;
}
// * * * * * * * * * * * * * * * * * * * * * * * * * * * * * * * * * * * * * //

dimensions      [0 1 0 0 0 0 0];

internalField   nonuniform List<vector> 
1000
(
(4.18088e-06 1.34382e-06 0)
(3.88574e-06 1.51668e-06 0)
(3.67312e-06 1.65683e-06 0)
(3.51775e-06 1.76941e-06 0)
(3.40265e-06 1.86543e-06 0)
(3.31636e-06 1.94923e-06 0)
(3.25184e-06 2.02448e-06 0)
(3.20402e-06 2.0933e-06 0)
(3.16884e-06 2.15734e-06 0)
(3.14436e-06 2.21785e-06 0)
(3.80651e-06 1.17298e-06 0)
(3.49752e-06 1.32156e-06 0)
(3.27566e-06 1.44041e-06 0)
(3.11166e-06 1.53577e-06 0)
(2.9888e-06 1.61674e-06 0)
(2.89561e-06 1.68697e-06 0)
(2.82494e-06 1.74956e-06 0)
(2.77171e-06 1.80653e-06 0)
(2.73144e-06 1.85902e-06 0)
(2.70228e-06 1.90914e-06 0)
(3.40889e-06 9.95358e-07 0)
(3.10122e-06 1.11522e-06 0)
(2.874e-06 1.21281e-06 0)
(2.70472e-06 1.29157e-06 0)
(2.5766e-06 1.35821e-06 0)
(2.47888e-06 1.41573e-06 0)
(2.40421e-06 1.46669e-06 0)
(2.34749e-06 1.51284e-06 0)
(2.30423e-06 1.5549e-06 0)
(2.27226e-06 1.59529e-06 0)
(2.99268e-06 8.26747e-07 0)
(2.70005e-06 9.07958e-07 0)
(2.4743e-06 9.82312e-07 0)
(2.30355e-06 1.04394e-06 0)
(2.1734e-06 1.09697e-06 0)
(2.07398e-06 1.14285e-06 0)
(1.99806e-06 1.1835e-06 0)
(1.9405e-06 1.22021e-06 0)
(1.89688e-06 1.25334e-06 0)
(1.86452e-06 1.28526e-06 0)
(2.56144e-06 6.72864e-07 0)
(2.29529e-06 7.1006e-07 0)
(2.07946e-06 7.58102e-07 0)
(1.91287e-06 8.01682e-07 0)
(1.78534e-06 8.41566e-07 0)
(1.68815e-06 8.77032e-07 0)
(1.61448e-06 9.08982e-07 0)
(1.55916e-06 9.38023e-07 0)
(1.51804e-06 9.64061e-07 0)
(1.48785e-06 9.892e-07 0)
(2.11485e-06 5.35597e-07 0)
(1.88466e-06 5.28654e-07 0)
(1.68905e-06 5.48516e-07 0)
(1.53488e-06 5.73614e-07 0)
(1.41654e-06 6.01127e-07 0)
(1.32687e-06 6.277e-07 0)
(1.2597e-06 6.52856e-07 0)
(1.21004e-06 6.76208e-07 0)
(1.1742e-06 6.97206e-07 0)
(1.14861e-06 7.17227e-07 0)
(1.65415e-06 4.15823e-07 0)
(1.4656e-06 3.69568e-07 0)
(1.30116e-06 3.62157e-07 0)
(1.16992e-06 3.69651e-07 0)
(1.06932e-06 3.86025e-07 0)
(9.93619e-07 4.0529e-07 0)
(9.37594e-07 4.25325e-07 0)
(8.96804e-07 4.44663e-07 0)
(8.68269e-07 4.62128e-07 0)
(8.48436e-07 4.78465e-07 0)
(1.18454e-06 3.11397e-07 0)
(1.03913e-06 2.35298e-07 0)
(9.15718e-07 2.06477e-07 0)
(8.18125e-07 2.002e-07 0)
(7.43894e-07 2.07834e-07 0)
(6.8825e-07 2.21394e-07 0)
(6.47212e-07 2.37353e-07 0)
(6.17435e-07 2.53374e-07 0)
(5.96807e-07 2.67882e-07 0)
(5.82981e-07 2.80634e-07 0)
(7.03682e-07 2.15354e-07 0)
(6.0493e-07 1.26019e-07 0)
(5.33592e-07 8.86479e-08 0)
(4.79106e-07 7.56881e-08 0)
(4.38241e-07 7.75386e-08 0)
(4.06981e-07 8.58631e-08 0)
(3.83274e-07 9.69963e-08 0)
(3.65352e-07 1.08564e-07 0)
(3.52074e-07 1.18895e-07 0)
(3.4297e-07 1.27751e-07 0)
(2.38528e-07 1.09852e-07 0)
(1.90849e-07 4.63344e-08 0)
(1.70944e-07 2.15694e-08 0)
(1.56838e-07 1.30771e-08 0)
(1.45958e-07 1.25297e-08 0)
(1.36925e-07 1.53306e-08 0)
(1.29568e-07 1.94929e-08 0)
(1.23473e-07 2.38371e-08 0)
(1.18532e-07 2.75607e-08 0)
(1.13725e-07 3.03458e-08 0)
(7.04159e-06 2.24501e-06 0)
(7.02754e-06 2.5125e-06 0)
(7.01314e-06 2.76811e-06 0)
(7.00398e-06 3.00618e-06 0)
(7.0022e-06 3.22596e-06 0)
(7.00964e-06 3.42911e-06 0)
(7.02688e-06 3.61799e-06 0)
(7.05373e-06 3.79524e-06 0)
(7.09015e-06 3.96301e-06 0)
(7.13489e-06 4.12385e-06 0)
(6.82296e-06 2.22842e-06 0)
(6.7886e-06 2.49576e-06 0)
(6.75827e-06 2.74908e-06 0)
(6.73719e-06 2.98328e-06 0)
(6.72676e-06 3.19815e-06 0)
(6.72762e-06 3.39559e-06 0)
(6.73946e-06 3.57825e-06 0)
(6.76134e-06 3.74892e-06 0)
(6.79289e-06 3.90986e-06 0)
(6.83221e-06 4.06388e-06 0)
(6.59705e-06 2.19283e-06 0)
(6.53825e-06 2.46095e-06 0)
(6.48709e-06 2.71047e-06 0)
(6.44952e-06 2.93795e-06 0)
(6.42631e-06 3.14487e-06 0)
(6.417e-06 3.3339e-06 0)
(6.42043e-06 3.50814e-06 0)
(6.43488e-06 3.67051e-06 0)
(6.45958e-06 3.82341e-06 0)
(6.49192e-06 3.96966e-06 0)
(6.35737e-06 2.14001e-06 0)
(6.27035e-06 2.40889e-06 0)
(6.19556e-06 2.65324e-06 0)
(6.13934e-06 2.87195e-06 0)
(6.1013e-06 3.06885e-06 0)
(6.07995e-06 3.24757e-06 0)
(6.07327e-06 3.41168e-06 0)
(6.07878e-06 3.56427e-06 0)
(6.0953e-06 3.70784e-06 0)
(6.11957e-06 3.84517e-06 0)
(6.10003e-06 2.07051e-06 0)
(5.98147e-06 2.33869e-06 0)
(5.88191e-06 2.57579e-06 0)
(5.80682e-06 2.78345e-06 0)
(5.75399e-06 2.9682e-06 0)
(5.72056e-06 3.13472e-06 0)
(5.70357e-06 3.28711e-06 0)
(5.6999e-06 3.42855e-06 0)
(5.70793e-06 3.56167e-06 0)
(5.72386e-06 3.68902e-06 0)
(5.8236e-06 1.9853e-06 0)
(5.67135e-06 2.24971e-06 0)
(5.54729e-06 2.47694e-06 0)
(5.45431e-06 2.67144e-06 0)
(5.3875e-06 2.84261e-06 0)
(5.34275e-06 2.99587e-06 0)
(5.31611e-06 3.13561e-06 0)
(5.30378e-06 3.26503e-06 0)
(5.30356e-06 3.38688e-06 0)
(5.31135e-06 3.50344e-06 0)
(5.52792e-06 1.88498e-06 0)
(5.34137e-06 2.14134e-06 0)
(5.19422e-06 2.35571e-06 0)
(5.08502e-06 2.5355e-06 0)
(5.0065e-06 2.69189e-06 0)
(4.95244e-06 2.83096e-06 0)
(4.91759e-06 2.95753e-06 0)
(4.89752e-06 3.07465e-06 0)
(4.8895e-06 3.18496e-06 0)
(4.88953e-06 3.29039e-06 0)
(5.21431e-06 1.7701e-06 0)
(4.9947e-06 2.01322e-06 0)
(4.827e-06 2.21196e-06 0)
(4.70517e-06 2.37514e-06 0)
(4.61638e-06 2.51605e-06 0)
(4.55325e-06 2.64095e-06 0)
(4.51125e-06 2.75459e-06 0)
(4.48504e-06 2.85973e-06 0)
(4.47045e-06 2.95868e-06 0)
(4.46425e-06 3.05321e-06 0)
(4.88397e-06 1.64107e-06 0)
(4.63406e-06 1.86562e-06 0)
(4.44954e-06 2.04541e-06 0)
(4.31428e-06 2.19134e-06 0)
(4.21791e-06 2.31739e-06 0)
(4.14859e-06 2.4288e-06 0)
(4.09938e-06 2.52987e-06 0)
(4.06558e-06 2.62311e-06 0)
(4.04363e-06 2.71053e-06 0)
(4.03042e-06 2.79394e-06 0)
(4.53907e-06 1.49874e-06 0)
(4.26396e-06 1.69902e-06 0)
(4.06339e-06 1.85881e-06 0)
(3.91917e-06 1.98848e-06 0)
(3.81323e-06 2.09977e-06 0)
(3.73497e-06 2.1976e-06 0)
(3.67773e-06 2.28575e-06 0)
(3.63645e-06 2.36656e-06 0)
(3.60755e-06 2.44204e-06 0)
(3.58797e-06 2.51307e-06 0)
(7.19163e-06 4.27819e-06 0)
(7.259e-06 4.4306e-06 0)
(7.33275e-06 4.58033e-06 0)
(7.41209e-06 4.72819e-06 0)
(7.49658e-06 4.87495e-06 0)
(7.58564e-06 5.02113e-06 0)
(7.67883e-06 5.16723e-06 0)
(7.77568e-06 5.31359e-06 0)
(7.87579e-06 5.46053e-06 0)
(7.97877e-06 5.60828e-06 0)
(8.0843e-06 5.75704e-06 0)
(8.19204e-06 5.90697e-06 0)
(8.3017e-06 6.05817e-06 0)
(8.41299e-06 6.21075e-06 0)
(8.52565e-06 6.36474e-06 0)
(8.6394e-06 6.52015e-06 0)
(8.75401e-06 6.67696e-06 0)
(8.86919e-06 6.83506e-06 0)
(8.98474e-06 6.99423e-06 0)
(9.10036e-06 7.15418e-06 0)
(6.89299e-06 4.21357e-06 0)
(6.97175e-06 4.36428e-06 0)
(7.0554e-06 4.51238e-06 0)
(7.14307e-06 4.65883e-06 0)
(7.23464e-06 4.80441e-06 0)
(7.32964e-06 4.94962e-06 0)
(7.42782e-06 5.09496e-06 0)
(7.52885e-06 5.24077e-06 0)
(7.63247e-06 5.38736e-06 0)
(7.73842e-06 5.53494e-06 0)
(7.84645e-06 5.68371e-06 0)
(7.95634e-06 5.83381e-06 0)
(8.06789e-06 5.98536e-06 0)
(8.18087e-06 6.13844e-06 0)
(8.29511e-06 6.29309e-06 0)
(8.4104e-06 6.44933e-06 0)
(8.52657e-06 6.60711e-06 0)
(8.64341e-06 6.76633e-06 0)
(8.76076e-06 6.92681e-06 0)
(8.87826e-06 7.0883e-06 0)
(6.5574e-06 4.11594e-06 0)
(6.65002e-06 4.26779e-06 0)
(6.74607e-06 4.41711e-06 0)
(6.84446e-06 4.56476e-06 0)
(6.94547e-06 4.71158e-06 0)
(7.04864e-06 4.85803e-06 0)
(7.15399e-06 5.00463e-06 0)
(7.26126e-06 5.15173e-06 0)
(7.37037e-06 5.29964e-06 0)
(7.48116e-06 5.44859e-06 0)
(7.5935e-06 5.59879e-06 0)
(7.70728e-06 5.75038e-06 0)
(7.82235e-06 5.9035e-06 0)
(7.93861e-06 6.05823e-06 0)
(8.05594e-06 6.21464e-06 0)
(8.17421e-06 6.37274e-06 0)
(8.29331e-06 6.53254e-06 0)
(8.41305e-06 6.69399e-06 0)
(8.53331e-06 6.85702e-06 0)
(8.65368e-06 7.02148e-06 0)
(6.19024e-06 3.98883e-06 0)
(6.29854e-06 4.14401e-06 0)
(6.4089e-06 4.29677e-06 0)
(6.51993e-06 4.44769e-06 0)
(6.63228e-06 4.59769e-06 0)
(6.74553e-06 4.74719e-06 0)
(6.85987e-06 4.89674e-06 0)
(6.97518e-06 5.0467e-06 0)
(7.0915e-06 5.19739e-06 0)
(7.20877e-06 5.34908e-06 0)
(7.327e-06 5.50199e-06 0)
(7.44614e-06 5.65629e-06 0)
(7.56617e-06 5.81212e-06 0)
(7.68703e-06 5.96961e-06 0)
(7.80871e-06 6.12883e-06 0)
(7.93111e-06 6.28985e-06 0)
(8.05419e-06 6.45272e-06 0)
(8.17781e-06 6.61745e-06 0)
(8.30189e-06 6.78411e-06 0)
(8.42603e-06 6.95263e-06 0)
(5.80016e-06 3.83102e-06 0)
(5.92529e-06 3.99182e-06 0)
(6.05117e-06 4.15031e-06 0)
(6.17605e-06 4.30664e-06 0)
(6.301e-06 4.46185e-06 0)
(6.42557e-06 4.6163e-06 0)
(6.55018e-06 4.77057e-06 0)
(6.67475e-06 4.92503e-06 0)
(6.79949e-06 5.08005e-06 0)
(6.92443e-06 5.23591e-06 0)
(7.04967e-06 5.39287e-06 0)
(7.17526e-06 5.55113e-06 0)
(7.30126e-06 5.71087e-06 0)
(7.42771e-06 5.87224e-06 0)
(7.55462e-06 6.03536e-06 0)
(7.68201e-06 6.20033e-06 0)
(7.80986e-06 6.36728e-06 0)
(7.93811e-06 6.53628e-06 0)
(8.06672e-06 6.70752e-06 0)
(8.19541e-06 6.88098e-06 0)
(5.39351e-06 3.64464e-06 0)
(5.53605e-06 3.81314e-06 0)
(5.67814e-06 3.97941e-06 0)
(5.81762e-06 4.14305e-06 0)
(5.95597e-06 4.30527e-06 0)
(6.09271e-06 4.46636e-06 0)
(6.22845e-06 4.62695e-06 0)
(6.36319e-06 4.78742e-06 0)
(6.49724e-06 4.94817e-06 0)
(6.63072e-06 5.10953e-06 0)
(6.76382e-06 5.27179e-06 0)
(6.89668e-06 5.4352e-06 0)
(7.02943e-06 5.59997e-06 0)
(7.16218e-06 5.76629e-06 0)
(7.29501e-06 5.93432e-06 0)
(7.42801e-06 6.10422e-06 0)
(7.56123e-06 6.27615e-06 0)
(7.69467e-06 6.45027e-06 0)
(7.82838e-06 6.62687e-06 0)
(7.96221e-06 6.80596e-06 0)
(4.97719e-06 3.43151e-06 0)
(5.13703e-06 3.60947e-06 0)
(5.29526e-06 3.78522e-06 0)
(5.44956e-06 3.95796e-06 0)
(5.60164e-06 4.12883e-06 0)
(5.75101e-06 4.29817e-06 0)
(5.89838e-06 4.46656e-06 0)
(6.04384e-06 4.63445e-06 0)
(6.18778e-06 4.80227e-06 0)
(6.33039e-06 4.9704e-06 0)
(6.47194e-06 5.13917e-06 0)
(6.61263e-06 5.30887e-06 0)
(6.75267e-06 5.47975e-06 0)
(6.89221e-06 5.65204e-06 0)
(7.03144e-06 5.82595e-06 0)
(7.17049e-06 6.00167e-06 0)
(7.30948e-06 6.17944e-06 0)
(7.44852e-06 6.35943e-06 0)
(7.58771e-06 6.54203e-06 0)
(7.7271e-06 6.72725e-06 0)
(4.55834e-06 3.19519e-06 0)
(4.73462e-06 3.38432e-06 0)
(4.90784e-06 3.57071e-06 0)
(5.07652e-06 3.75364e-06 0)
(5.24205e-06 3.93448e-06 0)
(5.40411e-06 4.11338e-06 0)
(5.56327e-06 4.29087e-06 0)
(5.71974e-06 4.46742e-06 0)
(5.8739e-06 4.64351e-06 0)
(6.02602e-06 4.81954e-06 0)
(6.17639e-06 4.99591e-06 0)
(6.32528e-06 5.17294e-06 0)
(6.47294e-06 5.35092e-06 0)
(6.61962e-06 5.53012e-06 0)
(6.76553e-06 5.71079e-06 0)
(6.9109e-06 5.89315e-06 0)
(7.0559e-06 6.07747e-06 0)
(7.20078e-06 6.26398e-06 0)
(7.34567e-06 6.4531e-06 0)
(7.49086e-06 6.64483e-06 0)
(4.13387e-06 2.93755e-06 0)
(4.33129e-06 3.14007e-06 0)
(4.52034e-06 3.33843e-06 0)
(4.70239e-06 3.53264e-06 0)
(4.88107e-06 3.7241e-06 0)
(5.05545e-06 3.91354e-06 0)
(5.22631e-06 4.10113e-06 0)
(5.39377e-06 4.28737e-06 0)
(5.55825e-06 4.47277e-06 0)
(5.72e-06 4.65774e-06 0)
(5.87937e-06 4.84272e-06 0)
(6.03663e-06 5.02806e-06 0)
(6.19211e-06 5.21408e-06 0)
(6.34608e-06 5.40109e-06 0)
(6.49882e-06 5.58936e-06 0)
(6.65063e-06 5.77913e-06 0)
(6.80176e-06 5.97069e-06 0)
(6.95255e-06 6.16428e-06 0)
(7.10322e-06 6.36034e-06 0)
(7.25428e-06 6.55887e-06 0)
(3.7005e-06 2.65957e-06 0)
(3.92117e-06 2.87789e-06 0)
(4.13112e-06 3.09008e-06 0)
(4.32983e-06 3.29725e-06 0)
(4.5207e-06 3.50044e-06 0)
(4.70745e-06 3.70119e-06 0)
(4.8899e-06 3.89975e-06 0)
(5.06836e-06 4.09649e-06 0)
(5.24321e-06 4.29202e-06 0)
(5.41467e-06 4.48675e-06 0)
(5.58311e-06 4.68114e-06 0)
(5.74882e-06 4.87558e-06 0)
(5.91216e-06 5.07043e-06 0)
(6.07344e-06 5.266e-06 0)
(6.23301e-06 5.46256e-06 0)
(6.39123e-06 5.66039e-06 0)
(6.54842e-06 5.85976e-06 0)
(6.70505e-06 6.06091e-06 0)
(6.86137e-06 6.26425e-06 0)
(7.01818e-06 6.46975e-06 0)
(3.3466e-06 2.4547e-06 0)
(3.58309e-06 2.68402e-06 0)
(3.80611e-06 2.90464e-06 0)
(4.01814e-06 3.12e-06 0)
(4.21873e-06 3.33099e-06 0)
(4.4127e-06 3.53894e-06 0)
(4.60289e-06 3.74465e-06 0)
(4.78844e-06 3.94831e-06 0)
(4.97011e-06 4.15057e-06 0)
(5.14795e-06 4.35184e-06 0)
(5.32235e-06 4.55256e-06 0)
(5.49359e-06 4.7531e-06 0)
(5.66203e-06 4.95378e-06 0)
(5.82801e-06 5.15489e-06 0)
(5.9919e-06 5.35669e-06 0)
(6.15411e-06 5.55941e-06 0)
(6.315e-06 5.7633e-06 0)
(6.47513e-06 5.96854e-06 0)
(6.63478e-06 6.17545e-06 0)
(6.79493e-06 6.38399e-06 0)
(3.09498e-06 2.33737e-06 0)
(3.33394e-06 2.56774e-06 0)
(3.56049e-06 2.7906e-06 0)
(3.77595e-06 3.00901e-06 0)
(3.97973e-06 3.22321e-06 0)
(4.17669e-06 3.43418e-06 0)
(4.36982e-06 3.64264e-06 0)
(4.55812e-06 3.84917e-06 0)
(4.74241e-06 4.05423e-06 0)
(4.92266e-06 4.25825e-06 0)
(5.09929e-06 4.46159e-06 0)
(5.27255e-06 4.66457e-06 0)
(5.44281e-06 4.86745e-06 0)
(5.6104e-06 5.07048e-06 0)
(5.77571e-06 5.27387e-06 0)
(5.93916e-06 5.47782e-06 0)
(6.10115e-06 5.68248e-06 0)
(6.26224e-06 5.88801e-06 0)
(6.42275e-06 6.09461e-06 0)
(6.58374e-06 6.30219e-06 0)
(2.86651e-06 2.22384e-06 0)
(3.10327e-06 2.45433e-06 0)
(3.32977e-06 2.67852e-06 0)
(3.54583e-06 2.89924e-06 0)
(3.75125e-06 3.11611e-06 0)
(3.95029e-06 3.32969e-06 0)
(4.14531e-06 3.54069e-06 0)
(4.33548e-06 3.74988e-06 0)
(4.52151e-06 3.95761e-06 0)
(4.70339e-06 4.16427e-06 0)
(4.88153e-06 4.37014e-06 0)
(5.05618e-06 4.5755e-06 0)
(5.22769e-06 4.78055e-06 0)
(5.39641e-06 4.98547e-06 0)
(5.56274e-06 5.19043e-06 0)
(5.72709e-06 5.39555e-06 0)
(5.88987e-06 5.60093e-06 0)
(6.05166e-06 5.80668e-06 0)
(6.21281e-06 6.01285e-06 0)
(6.37436e-06 6.21934e-06 0)
(2.6582e-06 2.11443e-06 0)
(2.89025e-06 2.34396e-06 0)
(3.11406e-06 2.5687e-06 0)
(3.32819e-06 2.79098e-06 0)
(3.53381e-06 3.00995e-06 0)
(3.73415e-06 3.22578e-06 0)
(3.93002e-06 3.43914e-06 0)
(4.12114e-06 3.65087e-06 0)
(4.30801e-06 3.86115e-06 0)
(4.49071e-06 4.07036e-06 0)
(4.66961e-06 4.2787e-06 0)
(4.84498e-06 4.48637e-06 0)
(5.01717e-06 4.69352e-06 0)
(5.18652e-06 4.90027e-06 0)
(5.35343e-06 5.10673e-06 0)
(5.51831e-06 5.31297e-06 0)
(5.68158e-06 5.51902e-06 0)
(5.84377e-06 5.72493e-06 0)
(6.0053e-06 5.9306e-06 0)
(6.16711e-06 6.13597e-06 0)
(2.46975e-06 2.01034e-06 0)
(2.69467e-06 2.23804e-06 0)
(2.91331e-06 2.46264e-06 0)
(3.12372e-06 2.68561e-06 0)
(3.32843e-06 2.90583e-06 0)
(3.52884e-06 3.12337e-06 0)
(3.72439e-06 3.33892e-06 0)
(3.91542e-06 3.55295e-06 0)
(4.10215e-06 3.76564e-06 0)
(4.2848e-06 3.97726e-06 0)
(4.46369e-06 4.18793e-06 0)
(4.63911e-06 4.39778e-06 0)
(4.81139e-06 4.60692e-06 0)
(4.98086e-06 4.8154e-06 0)
(5.14792e-06 5.02328e-06 0)
(5.31293e-06 5.23056e-06 0)
(5.47636e-06 5.43722e-06 0)
(5.63858e-06 5.64325e-06 0)
(5.80031e-06 5.84838e-06 0)
(5.96217e-06 6.05258e-06 0)
(2.29967e-06 1.91202e-06 0)
(2.51505e-06 2.1371e-06 0)
(2.72658e-06 2.36071e-06 0)
(2.93355e-06 2.58345e-06 0)
(3.13648e-06 2.80435e-06 0)
(3.33486e-06 3.02329e-06 0)
(3.52882e-06 3.24075e-06 0)
(3.71846e-06 3.45686e-06 0)
(3.90402e-06 3.67175e-06 0)
(4.08571e-06 3.88557e-06 0)
(4.26381e-06 4.09838e-06 0)
(4.43859e-06 4.31025e-06 0)
(4.61037e-06 4.52121e-06 0)
(4.77947e-06 4.73129e-06 0)
(4.94624e-06 4.94047e-06 0)
(5.11105e-06 5.14871e-06 0)
(5.27428e-06 5.35592e-06 0)
(5.43642e-06 5.56197e-06 0)
(5.5978e-06 5.76665e-06 0)
(5.75923e-06 5.96983e-06 0)
(2.14698e-06 1.82038e-06 0)
(2.35262e-06 2.04221e-06 0)
(2.55781e-06 2.26391e-06 0)
(2.75913e-06 2.48574e-06 0)
(2.9576e-06 2.7068e-06 0)
(3.15216e-06 2.92675e-06 0)
(3.34299e-06 3.14564e-06 0)
(3.52999e-06 3.36345e-06 0)
(3.71334e-06 3.58021e-06 0)
(3.89317e-06 3.79593e-06 0)
(4.06972e-06 4.01063e-06 0)
(4.24322e-06 4.22429e-06 0)
(4.41394e-06 4.43689e-06 0)
(4.58218e-06 4.64839e-06 0)
(4.74824e-06 4.85873e-06 0)
(4.91248e-06 5.06782e-06 0)
(5.07522e-06 5.27551e-06 0)
(5.23689e-06 5.48163e-06 0)
(5.39779e-06 5.68586e-06 0)
(5.55859e-06 5.88809e-06 0)
(2.00952e-06 1.73581e-06 0)
(2.20573e-06 1.95396e-06 0)
(2.40295e-06 2.17314e-06 0)
(2.5973e-06 2.39362e-06 0)
(2.78988e-06 2.61423e-06 0)
(2.97936e-06 2.83454e-06 0)
(3.16593e-06 3.05433e-06 0)
(3.34927e-06 3.27338e-06 0)
(3.52951e-06 3.4916e-06 0)
(3.7067e-06 3.70889e-06 0)
(3.88101e-06 3.92516e-06 0)
(4.05261e-06 4.14034e-06 0)
(4.22175e-06 4.35434e-06 0)
(4.38866e-06 4.56708e-06 0)
(4.55363e-06 4.77842e-06 0)
(4.71695e-06 4.98824e-06 0)
(4.8789e-06 5.19635e-06 0)
(5.03984e-06 5.40253e-06 0)
(5.20002e-06 5.60641e-06 0)
(5.35995e-06 5.80788e-06 0)
(1.88379e-06 1.6578e-06 0)
(2.0705e-06 1.87201e-06 0)
(2.25913e-06 2.08842e-06 0)
(2.44579e-06 2.30713e-06 0)
(2.63159e-06 2.52685e-06 0)
(2.8151e-06 2.74705e-06 0)
(2.99649e-06 2.96725e-06 0)
(3.17534e-06 3.18711e-06 0)
(3.35171e-06 3.40639e-06 0)
(3.52556e-06 3.62488e-06 0)
(3.69702e-06 3.8424e-06 0)
(3.86619e-06 4.0588e-06 0)
(4.03328e-06 4.27394e-06 0)
(4.19847e-06 4.48769e-06 0)
(4.36199e-06 4.69986e-06 0)
(4.52407e-06 4.9103e-06 0)
(4.68497e-06 5.11876e-06 0)
(4.84493e-06 5.32502e-06 0)
(5.00418e-06 5.52865e-06 0)
(5.16304e-06 5.72955e-06 0)
(1.7668e-06 1.58573e-06 0)
(1.94403e-06 1.796e-06 0)
(2.12372e-06 2.00957e-06 0)
(2.30228e-06 2.2263e-06 0)
(2.48071e-06 2.44482e-06 0)
(2.65766e-06 2.66451e-06 0)
(2.83323e-06 2.88471e-06 0)
(3.00697e-06 3.10497e-06 0)
(3.17888e-06 3.3249e-06 0)
(3.34885e-06 3.54421e-06 0)
(3.51695e-06 3.76264e-06 0)
(3.68325e-06 3.97996e-06 0)
(3.84788e-06 4.19598e-06 0)
(4.01099e-06 4.41049e-06 0)
(4.17276e-06 4.62331e-06 0)
(4.33334e-06 4.83423e-06 0)
(4.49295e-06 5.04299e-06 0)
(4.65173e-06 5.24935e-06 0)
(4.80988e-06 5.45284e-06 0)
(4.96751e-06 5.65342e-06 0)
(1.65583e-06 1.51901e-06 0)
(1.82366e-06 1.72553e-06 0)
(1.9943e-06 1.93631e-06 0)
(2.16454e-06 2.15096e-06 0)
(2.33529e-06 2.36807e-06 0)
(2.50529e-06 2.58695e-06 0)
(2.67462e-06 2.80681e-06 0)
(2.8428e-06 3.0271e-06 0)
(3.00981e-06 3.24733e-06 0)
(3.17548e-06 3.46711e-06 0)
(3.33985e-06 3.68611e-06 0)
(3.50293e-06 3.90404e-06 0)
(3.6648e-06 4.12064e-06 0)
(3.82555e-06 4.3357e-06 0)
(3.98531e-06 4.54897e-06 0)
(4.14419e-06 4.76023e-06 0)
(4.30232e-06 4.96922e-06 0)
(4.45976e-06 5.17569e-06 0)
(4.61667e-06 5.37919e-06 0)
(4.77296e-06 5.57968e-06 0)
(1.54846e-06 1.45712e-06 0)
(1.70698e-06 1.66018e-06 0)
(1.86856e-06 1.86829e-06 0)
(2.03041e-06 2.08085e-06 0)
(2.19332e-06 2.29644e-06 0)
(2.35616e-06 2.51429e-06 0)
(2.519e-06 2.73353e-06 0)
(2.68136e-06 2.95354e-06 0)
(2.84319e-06 3.17374e-06 0)
(3.00431e-06 3.39366e-06 0)
(3.16469e-06 3.61291e-06 0)
(3.3243e-06 3.83115e-06 0)
(3.48318e-06 4.04807e-06 0)
(3.64137e-06 4.26343e-06 0)
(3.79895e-06 4.47695e-06 0)
(3.95595e-06 4.68842e-06 0)
(4.11247e-06 4.89757e-06 0)
(4.26847e-06 5.10416e-06 0)
(4.42405e-06 5.30778e-06 0)
(4.57894e-06 5.50843e-06 0)
(1.44245e-06 1.39963e-06 0)
(1.59176e-06 1.59957e-06 0)
(1.74434e-06 1.80518e-06 0)
(1.89781e-06 2.01568e-06 0)
(2.05284e-06 2.22968e-06 0)
(2.20847e-06 2.44635e-06 0)
(2.36471e-06 2.66476e-06 0)
(2.52114e-06 2.88422e-06 0)
(2.67766e-06 3.10409e-06 0)
(2.83407e-06 3.32386e-06 0)
(2.99033e-06 3.54307e-06 0)
(3.14635e-06 3.76133e-06 0)
(3.30212e-06 3.97831e-06 0)
(3.45764e-06 4.19373e-06 0)
(3.61292e-06 4.40732e-06 0)
(3.76796e-06 4.61885e-06 0)
(3.92279e-06 4.82808e-06 0)
(4.07728e-06 5.0348e-06 0)
(4.2315e-06 5.23864e-06 0)
(4.38501e-06 5.43967e-06 0)
(1.33566e-06 1.34625e-06 0)
(1.47584e-06 1.54337e-06 0)
(1.61952e-06 1.74665e-06 0)
(1.76468e-06 1.95515e-06 0)
(1.91191e-06 2.16753e-06 0)
(2.06036e-06 2.38289e-06 0)
(2.21005e-06 2.60028e-06 0)
(2.36056e-06 2.81897e-06 0)
(2.51178e-06 3.03826e-06 0)
(2.6635e-06 3.2576e-06 0)
(2.81562e-06 3.47649e-06 0)
(2.96803e-06 3.69452e-06 0)
(3.12068e-06 3.91131e-06 0)
(3.27351e-06 4.12658e-06 0)
(3.42648e-06 4.34005e-06 0)
(3.57954e-06 4.5515e-06 0)
(3.73266e-06 4.76072e-06 0)
(3.88565e-06 4.96754e-06 0)
(4.03852e-06 5.17168e-06 0)
(4.19072e-06 5.37326e-06 0)
(1.22594e-06 1.29666e-06 0)
(1.35708e-06 1.49124e-06 0)
(1.49199e-06 1.69233e-06 0)
(1.62899e-06 1.8989e-06 0)
(1.76857e-06 2.10962e-06 0)
(1.91002e-06 2.32358e-06 0)
(2.0533e-06 2.53979e-06 0)
(2.19805e-06 2.75751e-06 0)
(2.34411e-06 2.976e-06 0)
(2.49127e-06 3.19467e-06 0)
(2.63939e-06 3.41301e-06 0)
(2.78831e-06 3.63056e-06 0)
(2.93794e-06 3.84695e-06 0)
(3.08816e-06 4.06186e-06 0)
(3.2389e-06 4.27504e-06 0)
(3.39004e-06 4.48627e-06 0)
(3.5415e-06 4.69538e-06 0)
(3.69306e-06 4.90225e-06 0)
(3.84465e-06 5.10673e-06 0)
(3.99567e-06 5.30897e-06 0)
(1.11116e-06 1.25072e-06 0)
(1.23335e-06 1.44296e-06 0)
(1.35963e-06 1.64196e-06 0)
(1.48869e-06 1.84661e-06 0)
(1.62087e-06 2.05562e-06 0)
(1.75558e-06 2.26806e-06 0)
(1.89275e-06 2.48295e-06 0)
(2.03202e-06 2.69951e-06 0)
(2.17322e-06 2.91699e-06 0)
(2.3161e-06 3.13478e-06 0)
(2.46048e-06 3.35234e-06 0)
(2.60616e-06 3.56921e-06 0)
(2.75299e-06 3.78499e-06 0)
(2.90082e-06 3.99937e-06 0)
(3.0495e-06 4.2121e-06 0)
(3.19888e-06 4.42298e-06 0)
(3.34883e-06 4.63188e-06 0)
(3.49908e-06 4.83875e-06 0)
(3.64952e-06 5.04355e-06 0)
(3.79953e-06 5.24649e-06 0)
(9.88999e-07 1.20806e-06 0)
(1.10236e-06 1.39809e-06 0)
(1.22025e-06 1.59504e-06 0)
(1.34166e-06 1.79776e-06 0)
(1.46681e-06 2.005e-06 0)
(1.59518e-06 2.21582e-06 0)
(1.72666e-06 2.42925e-06 0)
(1.86089e-06 2.64448e-06 0)
(1.99765e-06 2.86077e-06 0)
(2.13667e-06 3.0775e-06 0)
(2.27773e-06 3.2941e-06 0)
(2.42056e-06 3.51011e-06 0)
(2.56498e-06 3.72512e-06 0)
(2.71075e-06 3.93883e-06 0)
(2.85769e-06 4.15097e-06 0)
(3.00558e-06 4.36138e-06 0)
(3.15425e-06 4.56998e-06 0)
(3.3034e-06 4.77676e-06 0)
(3.45288e-06 4.9818e-06 0)
(3.60212e-06 5.1854e-06 0)
(8.57155e-07 1.16879e-06 0)
(9.61871e-07 1.35659e-06 0)
(1.07168e-06 1.55141e-06 0)
(1.18585e-06 1.75209e-06 0)
(1.30444e-06 1.95742e-06 0)
(1.427e-06 2.16646e-06 0)
(1.55334e-06 2.37823e-06 0)
(1.68311e-06 2.59195e-06 0)
(1.81603e-06 2.80686e-06 0)
(1.95178e-06 3.02234e-06 0)
(2.09008e-06 3.23782e-06 0)
(2.23062e-06 3.45281e-06 0)
(2.37313e-06 3.66692e-06 0)
(2.51734e-06 3.87983e-06 0)
(2.66298e-06 4.09129e-06 0)
(2.80979e-06 4.30115e-06 0)
(2.95752e-06 4.50936e-06 0)
(3.10588e-06 4.71596e-06 0)
(3.25465e-06 4.92113e-06 0)
(3.40336e-06 5.12525e-06 0)
(7.12835e-07 1.13183e-06 0)
(8.09194e-07 1.31738e-06 0)
(9.1137e-07 1.50998e-06 0)
(1.01884e-06 1.70853e-06 0)
(1.1315e-06 1.91183e-06 0)
(1.24894e-06 2.11896e-06 0)
(1.37089e-06 2.32896e-06 0)
(1.49695e-06 2.54104e-06 0)
(1.62679e-06 2.75445e-06 0)
(1.76004e-06 2.96856e-06 0)
(1.89634e-06 3.1828e-06 0)
(2.03534e-06 3.39668e-06 0)
(2.17667e-06 3.60981e-06 0)
(2.31999e-06 3.82187e-06 0)
(2.46498e-06 4.0326e-06 0)
(2.61128e-06 4.24187e-06 0)
(2.75859e-06 4.44963e-06 0)
(2.90658e-06 4.65597e-06 0)
(3.05499e-06 4.86115e-06 0)
(3.20344e-06 5.06558e-06 0)
(5.54076e-07 1.09846e-06 0)
(6.4248e-07 1.28137e-06 0)
(7.37619e-07 1.47138e-06 0)
(8.39063e-07 1.66743e-06 0)
(9.46578e-07 1.86838e-06 0)
(1.05972e-06 2.07329e-06 0)
(1.17814e-06 2.28122e-06 0)
(1.30139e-06 2.4914e-06 0)
(1.42907e-06 2.70307e-06 0)
(1.56072e-06 2.91561e-06 0)
(1.69591e-06 3.12844e-06 0)
(1.83423e-06 3.34109e-06 0)
(1.97523e-06 3.55315e-06 0)
(2.11848e-06 3.7643e-06 0)
(2.26359e-06 3.97429e-06 0)
(2.41011e-06 4.18297e-06 0)
(2.55766e-06 4.39031e-06 0)
(2.70583e-06 4.59638e-06 0)
(2.85432e-06 4.80145e-06 0)
(3.00279e-06 5.00594e-06 0)
(1.0854e-07 3.15998e-08 0)
(3.28023e-07 1.29479e-07 0)
(5.60148e-07 2.78391e-07 0)
(8.12514e-07 4.69477e-07 0)
(1.09421e-06 7.0062e-07 0)
(1.41344e-06 9.64968e-07 0)
(1.77022e-06 1.25529e-06 0)
(2.15966e-06 1.56224e-06 0)
(2.57415e-06 1.87619e-06 0)
(3.00472e-06 2.18875e-06 0)
(1.01345e-07 3.17553e-08 0)
(3.06805e-07 1.25856e-07 0)
(5.2418e-07 2.6571e-07 0)
(7.60282e-07 4.43706e-07 0)
(1.01854e-06 6.58692e-07 0)
(1.30706e-06 9.05897e-07 0)
(1.63067e-06 1.17902e-06 0)
(1.98632e-06 1.47078e-06 0)
(2.36771e-06 1.77238e-06 0)
(2.76791e-06 2.0767e-06 0)
(9.50392e-08 3.13967e-08 0)
(2.87994e-07 1.21575e-07 0)
(4.92388e-07 2.52813e-07 0)
(7.12867e-07 4.19278e-07 0)
(9.53595e-07 6.19446e-07 0)
(1.21731e-06 8.50158e-07 0)
(1.50941e-06 1.10689e-06 0)
(1.83278e-06 1.3832e-06 0)
(2.18243e-06 1.67189e-06 0)
(2.5537e-06 1.96728e-06 0)
(8.93208e-08 3.0685e-08 0)
(2.71041e-07 1.16779e-07 0)
(4.6369e-07 2.4041e-07 0)
(6.70697e-07 3.96576e-07 0)
(8.95423e-07 5.84409e-07 0)
(1.14064e-06 8.00437e-07 0)
(1.40803e-06 1.04178e-06 0)
(1.70087e-06 1.30338e-06 0)
(2.02001e-06 1.57857e-06 0)
(2.36158e-06 1.86297e-06 0)
(8.39957e-08 2.95614e-08 0)
(2.55242e-07 1.11383e-07 0)
(4.37094e-07 2.2784e-07 0)
(6.3176e-07 3.74785e-07 0)
(8.4232e-07 5.5136e-07 0)
(1.07067e-06 7.5479e-07 0)
(1.31859e-06 9.81824e-07 0)
(1.58739e-06 1.22922e-06 0)
(1.87743e-06 1.49128e-06 0)
(2.19043e-06 1.76436e-06 0)
(7.89862e-08 2.8123e-08 0)
(2.40408e-07 1.05477e-07 0)
(4.12219e-07 2.15258e-07 0)
(5.95677e-07 3.53829e-07 0)
(7.93472e-07 5.20527e-07 0)
(1.00696e-06 7.1272e-07 0)
(1.23753e-06 9.275e-07 0)
(1.4861e-06 1.16162e-06 0)
(1.75326e-06 1.41066e-06 0)
(2.03829e-06 1.67199e-06 0)
(7.41959e-08 2.63788e-08 0)
(2.26225e-07 9.90504e-08 0)
(3.88551e-07 2.02429e-07 0)
(5.61586e-07 3.33303e-07 0)
(7.47754e-07 4.9106e-07 0)
(9.47874e-07 6.7334e-07 0)
(1.16314e-06 8.77271e-07 0)
(1.39381e-06 1.09998e-06 0)
(1.64076e-06 1.33709e-06 0)
(1.90234e-06 1.58667e-06 0)
(6.95743e-08 2.43771e-08 0)
(2.12551e-07 9.21525e-08 0)
(3.65814e-07 1.8936e-07 0)
(5.29065e-07 3.13074e-07 0)
(7.04502e-07 4.62739e-07 0)
(8.92508e-07 6.36121e-07 0)
(1.0942e-06 8.30495e-07 0)
(1.30929e-06 1.04308e-06 0)
(1.53908e-06 1.26993e-06 0)
(1.78037e-06 1.50851e-06 0)
(6.50638e-08 2.21315e-08 0)
(1.9921e-07 8.47885e-08 0)
(3.43699e-07 1.75964e-07 0)
(4.97608e-07 2.92943e-07 0)
(6.62959e-07 4.35179e-07 0)
(8.39767e-07 6.00528e-07 0)
(1.0291e-06 7.86355e-07 0)
(1.23029e-06 9.89927e-07 0)
(1.44494e-06 1.20768e-06 0)
(1.66919e-06 1.43662e-06 0)
(6.06217e-08 1.96646e-08 0)
(1.86078e-07 7.69844e-08 0)
(3.21973e-07 1.62233e-07 0)
(4.6684e-07 2.72826e-07 0)
(6.22557e-07 4.0821e-07 0)
(7.88844e-07 5.66269e-07 0)
(9.66722e-07 7.44459e-07 0)
(1.15529e-06 9.40016e-07 0)
(1.35625e-06 1.14974e-06 0)
(1.56559e-06 1.37024e-06 0)
(5.62042e-08 1.69847e-08 0)
(1.73021e-07 6.87495e-08 0)
(3.00395e-07 1.4814e-07 0)
(4.36372e-07 2.52643e-07 0)
(5.82707e-07 3.81664e-07 0)
(7.38901e-07 5.33082e-07 0)
(9.05926e-07 7.04404e-07 0)
(1.08277e-06 8.92842e-07 0)
(1.27111e-06 1.09546e-06 0)
(1.46708e-06 1.30868e-06 0)
(5.17705e-08 1.41051e-08 0)
(1.59919e-07 6.01077e-08 0)
(2.78742e-07 1.33701e-07 0)
(4.05843e-07 2.32386e-07 0)
(5.42873e-07 3.55488e-07 0)
(6.89181e-07 5.00846e-07 0)
(8.4569e-07 6.65994e-07 0)
(1.01139e-06 8.48112e-07 0)
(1.18782e-06 1.04446e-06 0)
(1.37144e-06 1.2514e-06 0)
(4.72815e-08 1.1027e-08 0)
(1.46651e-07 5.10715e-08 0)
(2.56781e-07 1.18932e-07 0)
(3.74876e-07 2.12063e-07 0)
(5.02498e-07 3.29661e-07 0)
(6.38909e-07 4.69494e-07 0)
(7.84993e-07 6.29089e-07 0)
(9.39812e-07 8.05605e-07 0)
(1.10475e-06 9.96448e-07 0)
(1.27667e-06 1.19798e-06 0)
(4.26934e-08 7.76706e-09 0)
(1.33091e-07 4.169e-08 0)
(2.34267e-07 1.0391e-07 0)
(3.43072e-07 1.91773e-07 0)
(4.60995e-07 3.04276e-07 0)
(5.87284e-07 4.39088e-07 0)
(7.228e-07 5.93693e-07 0)
(8.66738e-07 7.65246e-07 0)
(1.02031e-06 9.51252e-07 0)
(1.18083e-06 1.14814e-06 0)
(3.79731e-08 4.3038e-09 0)
(1.19127e-07 3.19697e-08 0)
(2.1094e-07 8.86887e-08 0)
(3.09988e-07 1.71608e-07 0)
(4.17709e-07 2.79436e-07 0)
(5.33421e-07 4.09706e-07 0)
(6.5799e-07 5.59836e-07 0)
(7.90786e-07 7.26989e-07 0)
(9.32857e-07 9.08748e-07 0)
(1.08198e-06 1.10166e-06 0)
(3.30671e-08 6.81033e-10 0)
(1.04617e-07 2.20577e-08 0)
(1.86476e-07 7.35189e-08 0)
(2.75086e-07 1.51895e-07 0)
(3.71871e-07 2.55485e-07 0)
(4.76321e-07 3.81667e-07 0)
(5.89334e-07 5.27776e-07 0)
(7.10482e-07 6.91005e-07 0)
(8.40668e-07 8.69009e-07 0)
(9.78111e-07 1.05849e-06 0)
(2.79902e-08 -3.23388e-09 0)
(8.95075e-08 1.1886e-08 0)
(1.60551e-07 5.8441e-08 0)
(2.37737e-07 1.3275e-07 0)
(3.2256e-07 2.32557e-07 0)
(4.14797e-07 3.55066e-07 0)
(5.15399e-07 4.9754e-07 0)
(6.24151e-07 6.5723e-07 0)
(7.41823e-07 8.31869e-07 0)
(8.67052e-07 1.01835e-06 0)
(2.27142e-08 -7.2837e-09 0)
(7.36021e-08 1.98802e-09 0)
(1.32589e-07 4.43019e-08 0)
(1.97039e-07 1.15145e-07 0)
(2.68597e-07 2.11615e-07 0)
(3.47443e-07 3.30785e-07 0)
(4.34579e-07 4.69888e-07 0)
(5.29986e-07 6.26282e-07 0)
(6.34315e-07 7.97789e-07 0)
(7.4658e-07 9.81531e-07 0)
(1.78058e-08 -1.21066e-08 0)
(5.71316e-08 -8.08399e-09 0)
(1.02095e-07 3.07619e-08 0)
(1.51889e-07 9.87188e-08 0)
(2.08479e-07 1.9221e-07 0)
(2.72462e-07 3.08257e-07 0)
(3.44844e-07 4.4414e-07 0)
(4.25732e-07 5.97365e-07 0)
(5.15666e-07 7.65865e-07 0)
(6.13965e-07 9.4701e-07 0)
(1.43169e-08 -1.70024e-08 0)
(3.96732e-08 -1.59798e-08 0)
(6.78249e-08 2.10079e-08 0)
(1.00735e-07 8.66978e-08 0)
(1.40576e-07 1.7735e-07 0)
(1.88188e-07 2.90214e-07 0)
(2.44494e-07 4.22755e-07 0)
(3.09624e-07 5.72668e-07 0)
(3.8404e-07 7.38005e-07 0)
(4.67241e-07 9.16386e-07 0)
)
;

boundaryField
{
    left
    {
        type            fixedDisplacement;
        value           uniform (0 0 0);
    }
    right
    {
        type            solidTraction;
        tractionSeries  
{
        file            "$FOAM_CASE/constant/timeVsTraction";
        outOfBounds     clamp;
}
        pressure        uniform 0;
        secondOrder     false;
        setEffectiveTraction false;
        relaxationFactor 1;
        value           nonuniform List<vector> 
30
(
(9.15789e-06 7.23412e-06 2.72284e-21)
(8.93619e-06 7.1691e-06 2.74273e-21)
(8.71251e-06 7.10407e-06 2.80436e-21)
(8.48632e-06 7.03756e-06 2.90954e-21)
(8.25765e-06 6.96864e-06 3.05415e-21)
(8.02688e-06 6.89662e-06 3.23297e-21)
(7.79462e-06 6.82112e-06 3.44021e-21)
(7.56158e-06 6.74207e-06 3.66978e-21)
(7.32851e-06 6.65958e-06 3.91538e-21)
(7.09618e-06 6.57405e-06 4.17033e-21)
(6.87523e-06 6.48977e-06 4.33838e-21)
(6.66442e-06 6.40697e-06 4.39002e-21)
(6.45526e-06 6.32305e-06 4.42126e-21)
(6.24809e-06 6.23854e-06 4.43264e-21)
(6.04307e-06 6.1541e-06 4.42181e-21)
(5.83989e-06 6.07036e-06 4.39129e-21)
(5.63889e-06 5.98768e-06 4.34366e-21)
(5.43976e-06 5.90673e-06 4.27946e-21)
(5.24227e-06 5.82784e-06 4.20261e-21)
(5.04608e-06 5.75136e-06 4.1161e-21)
(4.85083e-06 5.6775e-06 4.02392e-21)
(4.65611e-06 5.60636e-06 3.9301e-21)
(4.46148e-06 5.53792e-06 3.83873e-21)
(4.26655e-06 5.47203e-06 3.75396e-21)
(4.07094e-06 5.40842e-06 3.67996e-21)
(3.87435e-06 5.3467e-06 3.61966e-21)
(3.6766e-06 5.28639e-06 3.57586e-21)
(3.47765e-06 5.22693e-06 3.54767e-21)