/*--------------------------------*- C++ -*----------------------------------*\
  =========                 |
  \\      /  F ield         | OpenFOAM: The Open Source CFD Toolbox
   \\    /   O peration     | Website:  https://openfoam.org
    \\  /    A nd           | Version:  9
     \\/     M anipulation  |
\*---------------------------------------------------------------------------*/
FoamFile
{
    format      ascii;
    class       volVectorField;
    location    "5";
    object      D_0;
}
// * * * * * * * * * * * * * * * * * * * * * * * * * * * * * * * * * * * * * //

dimensions      [0 1 0 0 0 0 0];

internalField   nonuniform List<vector> 
1000
(
(3.32674e-06 1.04379e-06 0)
(3.07779e-06 1.21161e-06 0)
(2.90902e-06 1.33771e-06 0)
(2.79362e-06 1.43771e-06 0)
(2.71433e-06 1.52175e-06 0)
(2.66095e-06 1.59485e-06 0)
(2.62649e-06 1.66042e-06 0)
(2.60618e-06 1.72057e-06 0)
(2.59635e-06 1.7768e-06 0)
(2.59487e-06 1.8301e-06 0)
(2.99705e-06 9.02705e-07 0)
(2.74136e-06 1.04379e-06 0)
(2.56949e-06 1.15045e-06 0)
(2.45223e-06 1.23566e-06 0)
(2.37132e-06 1.30786e-06 0)
(2.31637e-06 1.37081e-06 0)
(2.28013e-06 1.42741e-06 0)
(2.25771e-06 1.47934e-06 0)
(2.24538e-06 1.52775e-06 0)
(2.2406e-06 1.57401e-06 0)
(2.66298e-06 7.62674e-07 0)
(2.40468e-06 8.71408e-07 0)
(2.23517e-06 9.58884e-07 0)
(2.11862e-06 1.02934e-06 0)
(2.03816e-06 1.09054e-06 0)
(1.98318e-06 1.14417e-06 0)
(1.94641e-06 1.19271e-06 0)
(1.92293e-06 1.23729e-06 0)
(1.90903e-06 1.27875e-06 0)
(1.90206e-06 1.31847e-06 0)
(2.32331e-06 6.30937e-07 0)
(2.07055e-06 7.0114e-07 0)
(1.90923e-06 7.69136e-07 0)
(1.79618e-06 8.24865e-07 0)
(1.71855e-06 8.75796e-07 0)
(1.6652e-06 9.20942e-07 0)
(1.62931e-06 9.62315e-07 0)
(1.60593e-06 1.00042e-06 0)
(1.59154e-06 1.03576e-06 0)
(1.58333e-06 1.0696e-06 0)
(1.97888e-06 5.10987e-07 0)
(1.74104e-06 5.40526e-07 0)
(1.59286e-06 5.87528e-07 0)
(1.48738e-06 6.28944e-07 0)
(1.41512e-06 6.70073e-07 0)
(1.36525e-06 7.07542e-07 0)
(1.33163e-06 7.42568e-07 0)
(1.30944e-06 7.75012e-07 0)
(1.29546e-06 8.05036e-07 0)
(1.28678e-06 8.33666e-07 0)
(1.63037e-06 4.0458e-07 0)
(1.41626e-06 3.96679e-07 0)
(1.28636e-06 4.21179e-07 0)
(1.19314e-06 4.48732e-07 0)
(1.12887e-06 4.80227e-07 0)
(1.08444e-06 5.10598e-07 0)
(1.05447e-06 5.39851e-07 0)
(1.0345e-06 5.67248e-07 0)
(1.02168e-06 5.92562e-07 0)
(1.01321e-06 6.16533e-07 0)
(1.27696e-06 3.12127e-07 0)
(1.09568e-06 2.73647e-07 0)
(9.89446e-07 2.76737e-07 0)
(9.12765e-07 2.90927e-07 0)
(8.59462e-07 3.12957e-07 0)
(8.22603e-07 3.36473e-07 0)
(7.97653e-07 3.60181e-07 0)
(7.80851e-07 3.82785e-07 0)
(7.69827e-07 4.03682e-07 0)
(7.62097e-07 4.23297e-07 0)
(9.20059e-07 2.32471e-07 0)
(7.77833e-07 1.72206e-07 0)
(6.99465e-07 1.58734e-07 0)
(6.43032e-07 1.61568e-07 0)
(6.037e-07 1.74989e-07 0)
(5.76438e-07 1.91876e-07 0)
(5.57842e-07 2.09974e-07 0)
(5.45104e-07 2.27615e-07 0)
(5.36508e-07 2.4395e-07 0)
(5.30117e-07 2.59146e-07 0)
(5.56385e-07 1.6154e-07 0)
(4.61558e-07 9.11563e-08 0)
(4.15189e-07 6.94138e-08 0)
(3.82165e-07 6.49535e-08 0)
(3.59414e-07 7.12907e-08 0)
(3.43392e-07 8.15975e-08 0)
(3.32185e-07 9.34852e-08 0)
(3.24172e-07 1.05357e-07 0)
(3.18465e-07 1.16382e-07 0)
(3.1388e-07 1.26577e-07 0)
(1.90868e-07 8.47403e-08 0)
(1.48914e-07 3.27317e-08 0)
(1.35775e-07 1.69408e-08 0)
(1.26189e-07 1.22953e-08 0)
(1.19683e-07 1.37345e-08 0)
(1.14825e-07 1.72741e-08 0)
(1.11269e-07 2.16556e-08 0)
(1.08568e-07 2.60965e-08 0)
(1.06535e-07 3.02067e-08 0)
(1.04782e-07 3.39842e-08 0)
(5.94527e-06 1.86156e-06 0)
(5.91087e-06 2.10428e-06 0)
(5.87695e-06 2.33412e-06 0)
(5.84968e-06 2.5442e-06 0)
(5.83203e-06 2.73411e-06 0)
(5.82574e-06 2.90598e-06 0)
(5.83123e-06 3.06282e-06 0)
(5.84805e-06 3.20766e-06 0)
(5.8757e-06 3.34304e-06 0)
(5.9128e-06 3.47157e-06 0)
(5.7446e-06 1.84592e-06 0)
(5.69223e-06 2.08865e-06 0)
(5.64647e-06 2.31631e-06 0)
(5.61249e-06 2.52276e-06 0)
(5.59186e-06 2.70822e-06 0)
(5.58465e-06 2.87513e-06 0)
(5.59008e-06 3.02672e-06 0)
(5.60687e-06 3.16616e-06 0)
(5.63411e-06 3.29605e-06 0)
(5.66994e-06 3.41918e-06 0)
(5.53847e-06 1.81303e-06 0)
(5.46449e-06 2.05712e-06 0)
(5.40282e-06 2.28133e-06 0)
(5.35822e-06 2.48151e-06 0)
(5.33101e-06 2.6598e-06 0)
(5.31967e-06 2.81943e-06 0)
(5.32232e-06 2.96402e-06 0)
(5.33685e-06 3.09681e-06 0)
(5.36186e-06 3.2204e-06 0)
(5.395e-06 3.33761e-06 0)
(5.31968e-06 1.76436e-06 0)
(5.22131e-06 2.01006e-06 0)
(5.14195e-06 2.22946e-06 0)
(5.0852e-06 2.4215e-06 0)
(5.04966e-06 2.5908e-06 0)
(5.03236e-06 2.74162e-06 0)
(5.03042e-06 2.87792e-06 0)
(5.04101e-06 3.00301e-06 0)
(5.06234e-06 3.11946e-06 0)
(5.09157e-06 3.22998e-06 0)
(5.08412e-06 1.70053e-06 0)
(4.95949e-06 1.94658e-06 0)
(4.86233e-06 2.15919e-06 0)
(4.7936e-06 2.34115e-06 0)
(4.74959e-06 2.49984e-06 0)
(4.72584e-06 2.64046e-06 0)
(4.7186e-06 2.76733e-06 0)
(4.72446e-06 2.88374e-06 0)
(4.74129e-06 2.99223e-06 0)
(4.76589e-06 3.09534e-06 0)
(4.8301e-06 1.62232e-06 0)
(4.67866e-06 1.86589e-06 0)
(4.56472e-06 2.06935e-06 0)
(4.48492e-06 2.23971e-06 0)
(4.43288e-06 2.38674e-06 0)
(4.40273e-06 2.51637e-06 0)
(4.38995e-06 2.63314e-06 0)
(4.3907e-06 2.74026e-06 0)
(4.40257e-06 2.84021e-06 0)
(4.42213e-06 2.93532e-06 0)
(4.55774e-06 1.53027e-06 0)
(4.38045e-06 1.76742e-06 0)
(4.25133e-06 1.95927e-06 0)
(4.16167e-06 2.11679e-06 0)
(4.10233e-06 2.25146e-06 0)
(4.06615e-06 2.36963e-06 0)
(4.04796e-06 2.4759e-06 0)
(4.04358e-06 2.57337e-06 0)
(4.05039e-06 2.66441e-06 0)
(4.06484e-06 2.75108e-06 0)
(4.26859e-06 1.42497e-06 0)
(4.06773e-06 1.65129e-06 0)
(3.92534e-06 1.82928e-06 0)
(3.82711e-06 1.97307e-06 0)
(3.76125e-06 2.09501e-06 0)
(3.71955e-06 2.20158e-06 0)
(3.69627e-06 2.29725e-06 0)
(3.687e-06 2.38495e-06 0)
(3.6889e-06 2.4669e-06 0)
(3.69844e-06 2.54485e-06 0)
(3.96508e-06 1.30753e-06 0)
(3.744e-06 1.51852e-06 0)
(3.59044e-06 1.68067e-06 0)
(3.48494e-06 1.81014e-06 0)
(3.41347e-06 1.91925e-06 0)
(3.36692e-06 2.01429e-06 0)
(3.33907e-06 2.09949e-06 0)
(3.32534e-06 2.17752e-06 0)
(3.32266e-06 2.2504e-06 0)
(3.32778e-06 2.31959e-06 0)
(3.6503e-06 1.17953e-06 0)
(3.41293e-06 1.37097e-06 0)
(3.25043e-06 1.51575e-06 0)
(3.13911e-06 1.63056e-06 0)
(3.06305e-06 1.72697e-06 0)
(3.01251e-06 1.81078e-06 0)
(2.98084e-06 1.88586e-06 0)
(2.96331e-06 1.95457e-06 0)
(2.95667e-06 2.01868e-06 0)
(2.95819e-06 2.07889e-06 0)
(5.96184e-06 3.59411e-06 0)
(6.02128e-06 3.7145e-06 0)
(6.08744e-06 3.83238e-06 0)
(6.15947e-06 3.94861e-06 0)
(6.23678e-06 4.0639e-06 0)
(6.31871e-06 4.17878e-06 0)
(6.40472e-06 4.29368e-06 0)
(6.49431e-06 4.40894e-06 0)
(6.58701e-06 4.5248e-06 0)
(6.68241e-06 4.64148e-06 0)
(6.78015e-06 4.75911e-06 0)
(6.87989e-06 4.87779e-06 0)
(6.98131e-06 4.9976e-06 0)
(7.08413e-06 5.11856e-06 0)
(7.1881e-06 5.24068e-06 0)
(7.29295e-06 5.36393e-06 0)
(7.39847e-06 5.48823e-06 0)
(7.50443e-06 5.61348e-06 0)
(7.61065e-06 5.73949e-06 0)
(7.71689e-06 5.86601e-06 0)
(5.72486e-06 3.53827e-06 0)
(5.79544e-06 3.65771e-06 0)
(5.87099e-06 3.77467e-06 0)
(5.95077e-06 3.89013e-06 0)
(6.03448e-06 4.00481e-06 0)
(6.12167e-06 4.11923e-06 0)
(6.21201e-06 4.23383e-06 0)
(6.30514e-06 4.34892e-06 0)
(6.40075e-06 4.46477e-06 0)
(6.49855e-06 4.58157e-06 0)
(6.59829e-06 4.69944e-06 0)
(6.6997e-06 4.81848e-06 0)
(6.80257e-06 4.93877e-06 0)
(6.90669e-06 5.06032e-06 0)
(7.01186e-06 5.18313e-06 0)
(7.1179e-06 5.30717e-06 0)
(7.22463e-06 5.43237e-06 0)
(7.33188e-06 5.5586e-06 0)
(7.43951e-06 5.68569e-06 0)
(7.54725e-06 5.81345e-06 0)
(5.45632e-06 3.45456e-06 0)
(5.5402e-06 3.57565e-06 0)
(5.62736e-06 3.69422e-06 0)
(5.71702e-06 3.81121e-06 0)
(5.80923e-06 3.92736e-06 0)
(5.90369e-06 4.0432e-06 0)
(6.00026e-06 4.15919e-06 0)
(6.09875e-06 4.27566e-06 0)
(6.199e-06 4.39288e-06 0)
(6.30085e-06 4.51106e-06 0)
(6.40414e-06 4.63035e-06 0)
(6.50872e-06 4.75085e-06 0)
(6.61445e-06 4.87263e-06 0)
(6.7212e-06 4.99573e-06 0)
(6.82884e-06 5.12015e-06 0)
(6.93726e-06 5.24587e-06 0)
(7.04632e-06 5.37284e-06 0)
(7.15589e-06 5.50097e-06 0)
(7.26584e-06 5.63016e-06 0)
(7.37589e-06 5.76029e-06 0)
(5.15965e-06 3.34566e-06 0)
(5.25854e-06 3.47045e-06 0)
(5.3591e-06 3.59266e-06 0)
(5.46047e-06 3.71303e-06 0)
(5.56301e-06 3.83238e-06 0)
(5.66651e-06 3.95122e-06 0)
(5.77105e-06 4.07006e-06 0)
(5.87655e-06 4.18925e-06 0)
(5.98302e-06 4.30909e-06 0)
(6.09039e-06 4.42983e-06 0)
(6.19864e-06 4.55161e-06 0)
(6.3077e-06 4.67459e-06 0)
(6.41754e-06 4.79884e-06 0)
(6.52808e-06 4.92442e-06 0)
(6.63929e-06 5.05136e-06 0)
(6.75108e-06 5.17965e-06 0)
(6.86339e-06 5.30928e-06 0)
(6.97611e-06 5.44021e-06 0)
(7.08916e-06 5.57242e-06 0)
(7.20226e-06 5.70585e-06 0)
(4.84096e-06 3.21069e-06 0)
(4.95603e-06 3.34125e-06 0)
(5.07126e-06 3.46917e-06 0)
(5.18561e-06 3.5948e-06 0)
(5.29979e-06 3.71912e-06 0)
(5.41365e-06 3.8426e-06 0)
(5.52745e-06 3.96581e-06 0)
(5.64123e-06 4.08913e-06 0)
(5.75512e-06 4.21291e-06 0)
(5.86919e-06 4.33741e-06 0)
(5.98349e-06 4.46284e-06 0)
(6.09808e-06 4.58937e-06 0)
(6.21299e-06 4.7171e-06 0)
(6.32824e-06 4.84612e-06 0)
(6.44384e-06 4.9765e-06 0)
(6.55979e-06 5.10826e-06 0)
(6.67607e-06 5.24142e-06 0)
(6.79262e-06 5.37602e-06 0)
(6.90941e-06 5.51208e-06 0)
(7.02619e-06 5.6496e-06 0)
(4.50444e-06 3.05119e-06 0)
(4.63652e-06 3.1894e-06 0)
(4.76737e-06 3.32488e-06 0)
(4.89567e-06 3.45746e-06 0)
(5.02251e-06 3.58835e-06 0)
(5.14775e-06 3.71796e-06 0)
(5.27184e-06 3.84694e-06 0)
(5.39491e-06 3.97571e-06 0)
(5.51721e-06 4.10465e-06 0)
(5.63891e-06 4.23407e-06 0)
(5.76016e-06 4.36423e-06 0)
(5.88112e-06 4.49533e-06 0)
(6.00189e-06 4.62752e-06 0)
(6.12257e-06 4.76092e-06 0)
(6.24325e-06 4.89562e-06 0)
(6.36398e-06 5.03169e-06 0)
(6.48481e-06 5.16922e-06 0)
(6.60572e-06 5.30825e-06 0)
(6.72677e-06 5.44889e-06 0)
(6.84778e-06 5.59117e-06 0)
(4.15458e-06 2.86835e-06 0)
(4.30411e-06 3.01595e-06 0)
(4.45122e-06 3.1607e-06 0)
(4.59413e-06 3.30183e-06 0)
(4.73434e-06 3.44076e-06 0)
(4.87171e-06 3.57791e-06 0)
(5.00684e-06 3.71396e-06 0)
(5.13995e-06 3.8494e-06 0)
(5.2714e-06 3.98467e-06 0)
(5.40145e-06 4.12013e-06 0)
(5.53034e-06 4.25607e-06 0)
(5.6583e-06 4.39274e-06 0)
(5.78553e-06 4.53033e-06 0)
(5.91221e-06 4.669e-06 0)
(6.03847e-06 4.80887e-06 0)
(6.16446e-06 4.95008e-06 0)
(6.29026e-06 5.09271e-06 0)
(6.41596e-06 5.23687e-06 0)
(6.54165e-06 5.38273e-06 0)
(6.66729e-06 5.53031e-06 0)
(3.7956e-06 2.66432e-06 0)
(3.96267e-06 2.82285e-06 0)
(4.12628e-06 2.97827e-06 0)
(4.28417e-06 3.12935e-06 0)
(4.43816e-06 3.27761e-06 0)
(4.58816e-06 3.42354e-06 0)
(4.73486e-06 3.56787e-06 0)
(4.87857e-06 3.71112e-06 0)
(5.01971e-06 3.8538e-06 0)
(5.15864e-06 3.99631e-06 0)
(5.29568e-06 4.139e-06 0)
(5.43113e-06 4.28216e-06 0)
(5.56527e-06 4.42602e-06 0)
(5.69834e-06 4.57079e-06 0)
(5.83056e-06 4.71664e-06 0)
(5.96213e-06 4.8637e-06 0)
(6.09323e-06 5.01213e-06 0)
(6.22399e-06 5.16205e-06 0)
(6.3546e-06 5.31366e-06 0)
(6.48512e-06 5.46699e-06 0)
(3.43224e-06 2.44148e-06 0)
(3.61647e-06 2.61242e-06 0)
(3.79632e-06 2.77952e-06 0)
(3.96931e-06 2.94174e-06 0)
(4.13719e-06 3.10037e-06 0)
(4.30005e-06 3.25611e-06 0)
(4.45855e-06 3.40968e-06 0)
(4.61314e-06 3.56172e-06 0)
(4.76428e-06 3.71275e-06 0)
(4.91239e-06 3.86323e-06 0)
(5.05789e-06 4.01357e-06 0)
(5.20113e-06 4.16409e-06 0)
(5.34245e-06 4.31507e-06 0)
(5.48218e-06 4.46674e-06 0)
(5.62059e-06 4.6193e-06 0)
(5.75795e-06 4.77292e-06 0)
(5.89452e-06 4.92777e-06 0)
(6.03051e-06 5.08401e-06 0)
(6.16618e-06 5.24185e-06 0)
(6.30173e-06 5.40131e-06 0)
(3.06843e-06 2.20355e-06 0)
(3.26916e-06 2.38769e-06 0)
(3.46399e-06 2.56675e-06 0)
(3.65181e-06 2.74095e-06 0)
(3.83348e-06 2.9109e-06 0)
(4.00933e-06 3.0774e-06 0)
(4.17988e-06 3.24115e-06 0)
(4.34561e-06 3.40284e-06 0)
(4.50701e-06 3.56305e-06 0)
(4.66456e-06 3.7223e-06 0)
(4.81872e-06 3.88104e-06 0)
(4.96993e-06 4.03964e-06 0)
(5.11859e-06 4.19843e-06 0)
(5.26509e-06 4.35765e-06 0)
(5.40979e-06 4.51756e-06 0)
(5.55302e-06 4.67833e-06 0)
(5.69509e-06 4.84015e-06 0)
(5.83633e-06 5.00318e-06 0)
(5.97707e-06 5.16763e-06 0)
(6.11763e-06 5.33352e-06 0)
(2.78727e-06 2.03068e-06 0)
(2.99692e-06 2.22364e-06 0)
(3.1999e-06 2.40912e-06 0)
(3.39595e-06 2.59001e-06 0)
(3.58561e-06 2.7667e-06 0)
(3.76912e-06 2.93993e-06 0)
(3.94696e-06 3.11036e-06 0)
(4.11955e-06 3.27859e-06 0)
(4.28737e-06 3.44515e-06 0)
(4.45087e-06 3.61054e-06 0)
(4.61052e-06 3.77518e-06 0)
(4.76676e-06 3.93942e-06 0)
(4.92004e-06 4.10359e-06 0)
(5.07075e-06 4.26795e-06 0)
(5.21929e-06 4.43271e-06 0)
(5.36604e-06 4.59807e-06 0)
(5.51137e-06 4.76419e-06 0)
(5.65564e-06 4.93123e-06 0)
(5.79924e-06 5.09935e-06 0)
(5.94259e-06 5.26857e-06 0)
(2.59995e-06 1.93592e-06 0)
(2.80926e-06 2.12832e-06 0)
(3.01263e-06 2.31446e-06 0)
(3.20953e-06 2.49686e-06 0)
(3.40045e-06 2.67566e-06 0)
(3.58548e-06 2.85139e-06 0)
(3.76502e-06 3.02457e-06 0)
(3.93938e-06 3.19566e-06 0)
(4.10897e-06 3.36512e-06 0)
(4.27419e-06 3.53333e-06 0)
(4.43548e-06 3.70067e-06 0)
(4.59323e-06 3.86745e-06 0)
(4.74787e-06 4.03395e-06 0)
(4.89979e-06 4.20038e-06 0)
(5.04938e-06 4.36695e-06 0)
(5.19704e-06 4.53384e-06 0)
(5.34314e-06 4.70117e-06 0)
(5.48806e-06 4.86907e-06 0)
(5.63223e-06 5.03766e-06 0)
(5.77609e-06 5.20693e-06 0)
(2.43281e-06 1.84674e-06 0)
(2.6385e-06 2.0377e-06 0)
(2.8399e-06 2.22365e-06 0)
(3.03548e-06 2.40681e-06 0)
(3.22584e-06 2.58701e-06 0)
(3.41078e-06 2.76466e-06 0)
(3.59059e-06 2.94009e-06 0)
(3.76549e-06 3.11364e-06 0)
(3.93578e-06 3.28565e-06 0)
(4.10181e-06 3.45643e-06 0)
(4.26394e-06 3.62628e-06 0)
(4.42253e-06 3.79544e-06 0)
(4.57798e-06 3.96414e-06 0)
(4.73065e-06 4.13257e-06 0)
(4.88093e-06 4.30089e-06 0)
(5.0292e-06 4.46924e-06 0)
(5.17583e-06 4.63772e-06 0)
(5.32122e-06 4.80642e-06 0)
(5.4658e-06 4.97539e-06 0)
(5.61e-06 5.14461e-06 0)
(2.28182e-06 1.76293e-06 0)
(2.48252e-06 1.95165e-06 0)
(2.68025e-06 2.13673e-06 0)
(2.87298e-06 2.32002e-06 0)
(3.0613e-06 2.50109e-06 0)
(3.24478e-06 2.68017e-06 0)
(3.42364e-06 2.85743e-06 0)
(3.59796e-06 3.03308e-06 0)
(3.76797e-06 3.20734e-06 0)
(3.93394e-06 3.38043e-06 0)
(4.09616e-06 3.55256e-06 0)
(4.25496e-06 3.72391e-06 0)
(4.41067e-06 3.89466e-06 0)
(4.56364e-06 4.06495e-06 0)
(4.71424e-06 4.23491e-06 0)
(4.86281e-06 4.40462e-06 0)
(5.00974e-06 4.57416e-06 0)
(5.15538e-06 4.74357e-06 0)
(5.30018e-06 4.91284e-06 0)
(5.44454e-06 5.08198e-06 0)
(2.14511e-06 1.68465e-06 0)
(2.3397e-06 1.87065e-06 0)
(2.53245e-06 2.05436e-06 0)
(2.72107e-06 2.23723e-06 0)
(2.90612e-06 2.41863e-06 0)
(3.08699e-06 2.59865e-06 0)
(3.26383e-06 2.77729e-06 0)
(3.43659e-06 2.95463e-06 0)
(3.60544e-06 3.13078e-06 0)
(3.77056e-06 3.30585e-06 0)
(3.93219e-06 3.47999e-06 0)
(4.09059e-06 3.65331e-06 0)
(4.24605e-06 3.82591e-06 0)
(4.3989e-06 3.9979e-06 0)
(4.54944e-06 4.16934e-06 0)
(4.69801e-06 4.34031e-06 0)
(4.84497e-06 4.51081e-06 0)
(4.99063e-06 4.68088e-06 0)
(5.13549e-06 4.85041e-06 0)
(5.27986e-06 5.01939e-06 0)
(2.02041e-06 1.61172e-06 0)
(2.20817e-06 1.79468e-06 0)
(2.39504e-06 1.97663e-06 0)
(2.57862e-06 2.15864e-06 0)
(2.75944e-06 2.33993e-06 0)
(2.93676e-06 2.52045e-06 0)
(3.11067e-06 2.70005e-06 0)
(3.28104e-06 2.87869e-06 0)
(3.44796e-06 3.05638e-06 0)
(3.61153e-06 3.23313e-06 0)
(3.77193e-06 3.40899e-06 0)
(3.92939e-06 3.58401e-06 0)
(4.08413e-06 3.75825e-06 0)
(4.23644e-06 3.93174e-06 0)
(4.38659e-06 4.10452e-06 0)
(4.53488e-06 4.2766e-06 0)
(4.68163e-06 4.44797e-06 0)
(4.82716e-06 4.61858e-06 0)
(4.97181e-06 4.78837e-06 0)
(5.11595e-06 4.95723e-06 0)
(1.90566e-06 1.54382e-06 0)
(2.08614e-06 1.72361e-06 0)
(2.2665e-06 1.90357e-06 0)
(2.44437e-06 2.08438e-06 0)
(2.62021e-06 2.26521e-06 0)
(2.79325e-06 2.44585e-06 0)
(2.9635e-06 2.62604e-06 0)
(3.13077e-06 2.80563e-06 0)
(3.2951e-06 2.9845e-06 0)
(3.45652e-06 3.1626e-06 0)
(3.61516e-06 3.33989e-06 0)
(3.77119e-06 3.51636e-06 0)
(3.92479e-06 3.69199e-06 0)
(4.07619e-06 3.86678e-06 0)
(4.22564e-06 4.04072e-06 0)
(4.37338e-06 4.21377e-06 0)
(4.51971e-06 4.38589e-06 0)
(4.66487e-06 4.55701e-06 0)
(4.80921e-06 4.72697e-06 0)
(4.95297e-06 4.89576e-06 0)
(1.7989e-06 1.48058e-06 0)
(1.97185e-06 1.65719e-06 0)
(2.1453e-06 1.83502e-06 0)
(2.31699e-06 2.01443e-06 0)
(2.48731e-06 2.19452e-06 0)
(2.6555e-06 2.37499e-06 0)
(2.82152e-06 2.55544e-06 0)
(2.98514e-06 2.73564e-06 0)
(3.14634e-06 2.91538e-06 0)
(3.30511e-06 3.09453e-06 0)
(3.46153e-06 3.27296e-06 0)
(3.61571e-06 3.4506e-06 0)
(3.76779e-06 3.62739e-06 0)
(3.91797e-06 3.80327e-06 0)
(4.06643e-06 3.97818e-06 0)
(4.2134e-06 4.15206e-06 0)
(4.35909e-06 4.32482e-06 0)
(4.50372e-06 4.49638e-06 0)
(4.64758e-06 4.66655e-06 0)
(4.79081e-06 4.8353e-06 0)
(1.69832e-06 1.42159e-06 0)
(1.86363e-06 1.59513e-06 0)
(2.02993e-06 1.7708e-06 0)
(2.19512e-06 1.94869e-06 0)
(2.35955e-06 2.12786e-06 0)
(2.52248e-06 2.3079e-06 0)
(2.68384e-06 2.48835e-06 0)
(2.84337e-06 2.66888e-06 0)
(3.00102e-06 2.84919e-06 0)
(3.15674e-06 3.02909e-06 0)
(3.31057e-06 3.20838e-06 0)
(3.46256e-06 3.38693e-06 0)
(3.61283e-06 3.56463e-06 0)
(3.76151e-06 3.74138e-06 0)
(3.90876e-06 3.91708e-06 0)
(4.05473e-06 4.09164e-06 0)
(4.19961e-06 4.26495e-06 0)
(4.34356e-06 4.43689e-06 0)
(4.4868e-06 4.60727e-06 0)
(4.62939e-06 4.77608e-06 0)
(1.60224e-06 1.36643e-06 0)
(1.75988e-06 1.53709e-06 0)
(1.9189e-06 1.71065e-06 0)
(2.07741e-06 1.88698e-06 0)
(2.23571e-06 2.0651e-06 0)
(2.3931e-06 2.24455e-06 0)
(2.54949e-06 2.42478e-06 0)
(2.70463e-06 2.60538e-06 0)
(2.85843e-06 2.78601e-06 0)
(3.0108e-06 2.96638e-06 0)
(3.16175e-06 3.14627e-06 0)
(3.3113e-06 3.32548e-06 0)
(3.45951e-06 3.50386e-06 0)
(3.60648e-06 3.68127e-06 0)
(3.75231e-06 3.85758e-06 0)
(3.89712e-06 4.03267e-06 0)
(4.04105e-06 4.20642e-06 0)
(4.18419e-06 4.37871e-06 0)
(4.3267e-06 4.54932e-06 0)
(4.46856e-06 4.71827e-06 0)
(1.50908e-06 1.31476e-06 0)
(1.65907e-06 1.48277e-06 0)
(1.81078e-06 1.65433e-06 0)
(1.96252e-06 1.82909e-06 0)
(2.11454e-06 2.00611e-06 0)
(2.26623e-06 2.18483e-06 0)
(2.41748e-06 2.36465e-06 0)
(2.56803e-06 2.54512e-06 0)
(2.71777e-06 2.72583e-06 0)
(2.8666e-06 2.90644e-06 0)
(3.01447e-06 3.08668e-06 0)
(3.16139e-06 3.26631e-06 0)
(3.30738e-06 3.44515e-06 0)
(3.45248e-06 3.62301e-06 0)
(3.59675e-06 3.79976e-06 0)
(3.74028e-06 3.97525e-06 0)
(3.88314e-06 4.14935e-06 0)
(4.02537e-06 4.32194e-06 0)
(4.16708e-06 4.49281e-06 0)
(4.30815e-06 4.66198e-06 0)
(1.41734e-06 1.26625e-06 0)
(1.55973e-06 1.43186e-06 0)
(1.70415e-06 1.60155e-06 0)
(1.84911e-06 1.77481e-06 0)
(1.99483e-06 1.95069e-06 0)
(2.14076e-06 2.12859e-06 0)
(2.28678e-06 2.30786e-06 0)
(2.43264e-06 2.48802e-06 0)
(2.57822e-06 2.6686e-06 0)
(2.72339e-06 2.84923e-06 0)
(2.86809e-06 3.0296e-06 0)
(3.01227e-06 3.20944e-06 0)
(3.15593e-06 3.38851e-06 0)
(3.29906e-06 3.56664e-06 0)
(3.44169e-06 3.74366e-06 0)
(3.58385e-06 3.91942e-06 0)
(3.72557e-06 4.09377e-06 0)
(3.86683e-06 4.26662e-06 0)
(4.00769e-06 4.43776e-06 0)
(4.14795e-06 4.60726e-06 0)
(1.32558e-06 1.22063e-06 0)
(1.46045e-06 1.38411e-06 0)
(1.59764e-06 1.55207e-06 0)
(1.73587e-06 1.72389e-06 0)
(1.87532e-06 1.89862e-06 0)
(2.01551e-06 2.07562e-06 0)
(2.15633e-06 2.25423e-06 0)
(2.29751e-06 2.43392e-06 0)
(2.43893e-06 2.6142e-06 0)
(2.58043e-06 2.79466e-06 0)
(2.72193e-06 2.97496e-06 0)
(2.86335e-06 3.15479e-06 0)
(3.00464e-06 3.33393e-06 0)
(3.14578e-06 3.51215e-06 0)
(3.28673e-06 3.68928e-06 0)
(3.42748e-06 3.86517e-06 0)
(3.56803e-06 4.03969e-06 0)
(3.7083e-06 4.21275e-06 0)
(3.8483e-06 4.38419e-06 0)
(3.98776e-06 4.55409e-06 0)
(1.23238e-06 1.17768e-06 0)
(1.35981e-06 1.33926e-06 0)
(1.48988e-06 1.50562e-06 0)
(1.62149e-06 1.67606e-06 0)
(1.75479e-06 1.84964e-06 0)
(1.88937e-06 2.0257e-06 0)
(2.02508e-06 2.20355e-06 0)
(2.16168e-06 2.38263e-06 0)
(2.29902e-06 2.56245e-06 0)
(2.43693e-06 2.74257e-06 0)
(2.5753e-06 2.92262e-06 0)
(2.71402e-06 3.10228e-06 0)
(2.85299e-06 3.2813e-06 0)
(2.99216e-06 3.45945e-06 0)
(3.13146e-06 3.63655e-06 0)
(3.27083e-06 3.81246e-06 0)
(3.41021e-06 3.98706e-06 0)
(3.5495e-06 4.16028e-06 0)
(3.68866e-06 4.33201e-06 0)
(3.82736e-06 4.50235e-06 0)
(1.13631e-06 1.13719e-06 0)
(1.25642e-06 1.29705e-06 0)
(1.3795e-06 1.46193e-06 0)
(1.50467e-06 1.63104e-06 0)
(1.63202e-06 1.80347e-06 0)
(1.76117e-06 1.97853e-06 0)
(1.89197e-06 2.15553e-06 0)
(2.02418e-06 2.3339e-06 0)
(2.15763e-06 2.51313e-06 0)
(2.29212e-06 2.69276e-06 0)
(2.42752e-06 2.8724e-06 0)
(2.56366e-06 3.05174e-06 0)
(2.70045e-06 3.23048e-06 0)
(2.83775e-06 3.40842e-06 0)
(2.97548e-06 3.58536e-06 0)
(3.11353e-06 3.76118e-06 0)
(3.25182e-06 3.93578e-06 0)
(3.39019e-06 4.10911e-06 0)
(3.52855e-06 4.28111e-06 0)
(3.66658e-06 4.45192e-06 0)
(1.0359e-06 1.09898e-06 0)
(1.14884e-06 1.25726e-06 0)
(1.26516e-06 1.42073e-06 0)
(1.38413e-06 1.58853e-06 0)
(1.50579e-06 1.75979e-06 0)
(1.62979e-06 1.9338e-06 0)
(1.75597e-06 2.10987e-06 0)
(1.88408e-06 2.28743e-06 0)
(2.0139e-06 2.46594e-06 0)
(2.14524e-06 2.64496e-06 0)
(2.2779e-06 2.82407e-06 0)
(2.41171e-06 3.00294e-06 0)
(2.5465e-06 3.18129e-06 0)
(2.68212e-06 3.35889e-06 0)
(2.81844e-06 3.53557e-06 0)
(2.95531e-06 3.7112e-06 0)
(3.0926e-06 3.88571e-06 0)
(3.23015e-06 4.05908e-06 0)
(3.36781e-06 4.2313e-06 0)
(3.50526e-06 4.40256e-06 0)
(9.29668e-07 1.06276e-06 0)
(1.03564e-06 1.21956e-06 0)
(1.14546e-06 1.38165e-06 0)
(1.25855e-06 1.54815e-06 0)
(1.37487e-06 1.7182e-06 0)
(1.4941e-06 1.8911e-06 0)
(1.61604e-06 2.06618e-06 0)
(1.74041e-06 2.24283e-06 0)
(1.86699e-06 2.42054e-06 0)
(1.99552e-06 2.59883e-06 0)
(2.12579e-06 2.7773e-06 0)
(2.25757e-06 2.9556e-06 0)
(2.39066e-06 3.13346e-06 0)
(2.52487e-06 3.31064e-06 0)
(2.66001e-06 3.48697e-06 0)
(2.7959e-06 3.66233e-06 0)
(2.93237e-06 3.83667e-06 0)
(3.06923e-06 4.01001e-06 0)
(3.20631e-06 4.1824e-06 0)
(3.34331e-06 4.35404e-06 0)
(8.16067e-07 1.02842e-06 0)
(9.15353e-07 1.18373e-06 0)
(1.01903e-06 1.3444e-06 0)
(1.12665e-06 1.50955e-06 0)
(1.23808e-06 1.67834e-06 0)
(1.353e-06 1.85007e-06 0)
(1.47117e-06 2.02406e-06 0)
(1.59229e-06 2.19972e-06 0)
(1.71608e-06 2.37652e-06 0)
(1.84226e-06 2.554e-06 0)
(1.97057e-06 2.73174e-06 0)
(2.10074e-06 2.9094e-06 0)
(2.23251e-06 3.08669e-06 0)
(2.36565e-06 3.26338e-06 0)
(2.49993e-06 3.43929e-06 0)
(2.63511e-06 3.61433e-06 0)
(2.771e-06 3.78845e-06 0)
(2.90737e-06 3.96169e-06 0)
(3.04404e-06 4.13416e-06 0)
(3.18074e-06 4.30608e-06 0)
(6.93444e-07 9.95297e-07 0)
(7.86415e-07 1.14911e-06 0)
(8.84411e-07 1.30833e-06 0)
(9.87058e-07 1.47208e-06 0)
(1.09414e-06 1.63955e-06 0)
(1.20531e-06 1.81005e-06 0)
(1.32029e-06 1.9829e-06 0)
(1.43872e-06 2.15751e-06 0)
(1.5603e-06 2.33336e-06 0)
(1.6847e-06 2.50997e-06 0)
(1.81159e-06 2.68694e-06 0)
(1.94066e-06 2.86391e-06 0)
(2.07161e-06 3.04059e-06 0)
(2.20414e-06 3.21675e-06 0)
(2.33798e-06 3.39223e-06 0)
(2.47283e-06 3.56691e-06 0)
(2.60846e-06 3.74078e-06 0)
(2.74461e-06 3.91387e-06 0)
(2.88107e-06 4.08634e-06 0)
(3.01761e-06 4.25842e-06 0)
(5.6043e-07 9.63728e-07 0)
(6.47564e-07 1.11587e-06 0)
(7.40452e-07 1.27345e-06 0)
(8.38735e-07 1.43565e-06 0)
(9.42112e-07 1.60167e-06 0)
(1.0502e-06 1.7708e-06 0)
(1.16266e-06 1.94239e-06 0)
(1.27908e-06 2.11586e-06 0)
(1.39911e-06 2.29066e-06 0)
(1.52236e-06 2.46633e-06 0)
(1.64846e-06 2.64246e-06 0)
(1.77704e-06 2.8187e-06 0)
(1.90774e-06 2.99475e-06 0)
(2.0402e-06 3.17038e-06 0)
(2.17409e-06 3.34542e-06 0)
(2.30908e-06 3.51976e-06 0)
(2.44485e-06 3.69338e-06 0)
(2.58112e-06 3.86632e-06 0)
(2.71762e-06 4.03871e-06 0)
(2.85416e-06 4.21082e-06 0)
(1.00687e-07 3.60277e-08 0)
(3.02407e-07 1.3044e-07 0)
(5.11578e-07 2.61572e-07 0)
(7.35504e-07 4.2233e-07 0)
(9.77488e-07 6.10875e-07 0)
(1.24055e-06 8.22847e-07 0)
(1.52547e-06 1.05381e-06 0)
(1.83176e-06 1.29863e-06 0)
(2.15788e-06 1.55166e-06 0)
(2.50055e-06 1.80802e-06 0)
(9.43637e-08 3.63834e-08 0)
(2.84039e-07 1.28773e-07 0)
(4.80994e-07 2.53811e-07 0)
(6.91057e-07 4.05677e-07 0)
(9.17158e-07 5.8309e-07 0)
(1.1619e-06 7.82571e-07 0)
(1.42622e-06 1.00047e-06 0)
(1.70975e-06 1.2325e-06 0)
(2.01132e-06 1.47356e-06 0)
(2.32791e-06 1.71983e-06 0)
(8.86891e-08 3.62594e-08 0)
(2.67514e-07 1.26209e-07 0)
(4.53537e-07 2.45472e-07 0)
(6.51253e-07 3.89225e-07 0)
(8.63178e-07 5.56555e-07 0)
(1.09147e-06 7.44608e-07 0)
(1.33713e-06 9.50324e-07 0)
(1.60005e-06 1.17016e-06 0)
(1.87979e-06 1.39969e-06 0)
(2.17366e-06 1.6361e-06 0)
(8.347e-08 3.57115e-08 0)
(2.52312e-07 1.22867e-07 0)
(4.2841e-07 2.36723e-07 0)
(6.15148e-07 3.73215e-07 0)
(8.1469e-07 5.31683e-07 0)
(1.02876e-06 7.0971e-07 0)
(1.25825e-06 9.04627e-07 0)
(1.50306e-06 1.11336e-06 0)
(1.76312e-06 1.33195e-06 0)
(2.03582e-06 1.55793e-06 0)
(7.85948e-08 3.47965e-08 0)
(2.38093e-07 1.18792e-07 0)
(4.04968e-07 2.27411e-07 0)
(5.81663e-07 3.57189e-07 0)
(7.70036e-07 5.07626e-07 0)
(9.71408e-07 6.76618e-07 0)
(1.1866e-06 8.61797e-07 0)
(1.41545e-06 1.06046e-06 0)
(1.65819e-06 1.26907e-06 0)
(1.91204e-06 1.48524e-06 0)
(7.39846e-08 3.35635e-08 0)
(2.24632e-07 1.14068e-07 0)
(3.82833e-07 2.17591e-07 0)
(5.50242e-07 3.41133e-07 0)
(7.28451e-07 4.843e-07 0)
(9.18419e-07 6.45208e-07 0)
(1.12086e-06 8.21687e-07 0)
(1.33549e-06 1.01126e-06 0)
(1.56277e-06 1.21078e-06 0)
(1.7998e-06 1.41779e-06 0)
(6.95668e-08 3.20477e-08 0)
(2.11717e-07 1.08742e-07 0)
(3.61634e-07 2.0723e-07 0)
(5.20296e-07 3.2488e-07 0)
(6.89077e-07 4.61368e-07 0)
(8.68623e-07 6.14964e-07 0)
(1.05953e-06 7.83643e-07 0)
(1.26142e-06 9.65085e-07 0)
(1.47488e-06 1.15645e-06 0)
(1.69691e-06 1.35516e-06 0)
(6.52869e-08 3.02801e-08 0)
(1.99194e-07 1.02866e-07 0)
(3.41105e-07 1.96351e-07 0)
(4.91418e-07 3.08388e-07 0)
(6.51321e-07 4.38699e-07 0)
(8.21188e-07 5.85657e-07 0)
(1.00151e-06 7.47333e-07 0)
(1.19182e-06 9.21501e-07 0)
(1.39277e-06 1.10557e-06 0)
(1.60139e-06 1.29686e-06 0)
(6.10949e-08 2.8281e-08 0)
(1.86918e-07 9.64704e-08 0)
(3.21002e-07 1.84949e-07 0)
(4.63234e-07 2.91591e-07 0)
(6.14639e-07 4.16142e-07 0)
(7.75367e-07 5.57036e-07 0)
(9.4582e-07 7.12411e-07 0)
(1.12546e-06 8.80089e-07 0)
(1.31494e-06 1.05768e-06 0)
(1.51143e-06 1.24242e-06 0)
(5.69477e-08 2.60657e-08 0)
(1.74769e-07 8.9581e-08 0)
(3.01121e-07 1.73032e-07 0)
(4.35426e-07 2.74458e-07 0)
(5.78572e-07 3.93609e-07 0)
(7.30519e-07 5.28947e-07 0)
(8.91597e-07 6.7864e-07 0)
(1.06124e-06 8.40532e-07 0)
(1.24006e-06 1.01238e-06 0)
(1.42542e-06 1.19139e-06 0)
(5.28048e-08 2.36419e-08 0)
(1.62632e-07 8.22089e-08 0)
(2.81266e-07 1.60597e-07 0)
(4.07696e-07 2.56963e-07 0)
(5.42689e-07 3.71035e-07 0)
(6.86054e-07 5.01269e-07 0)
(8.38065e-07 6.45834e-07 0)
(9.98164e-07 8.02578e-07 0)
(1.1669e-06 9.69358e-07 0)
(1.34188e-06 1.14339e-06 0)
(4.86273e-08 2.10123e-08 0)
(1.50398e-07 7.43578e-08 0)
(2.61252e-07 1.47645e-07 0)
(3.79758e-07 2.39099e-07 0)
(5.06575e-07 3.48393e-07 0)
(6.41402e-07 4.7394e-07 0)
(7.8448e-07 6.1388e-07 0)
(9.3529e-07 7.6605e-07 0)
(1.09432e-06 9.28376e-07 0)
(1.25943e-06 1.09811e-06 0)
(4.43772e-08 1.81694e-08 0)
(1.37964e-07 6.60175e-08 0)
(2.40893e-07 1.34171e-07 0)
(3.51315e-07 2.20871e-07 0)
(4.69801e-07 3.25687e-07 0)
(5.95984e-07 4.46942e-07 0)
(7.30097e-07 5.82719e-07 0)
(8.7169e-07 7.30833e-07 0)
(1.02118e-06 8.89257e-07 0)
(1.17673e-06 1.05529e-06 0)
(4.00132e-08 1.51012e-08 0)
(1.25222e-07 5.71759e-08 0)
(2.19987e-07 1.20188e-07 0)
(3.22043e-07 2.02324e-07 0)
(4.319e-07 3.0297e-07 0)
(5.49176e-07 4.20317e-07 0)
(6.74132e-07 5.52357e-07 0)
(8.06411e-07 6.96882e-07 0)
(9.46374e-07 8.51895e-07 0)
(1.09245e-06 1.01477e-06 0)
(3.54987e-08 1.17655e-08 0)
(1.12074e-07 4.77912e-08 0)
(1.98312e-07 1.05701e-07 0)
(2.91567e-07 1.83515e-07 0)
(3.92332e-07 2.8033e-07 0)
(5.0028e-07 3.94145e-07 0)
(6.15731e-07 5.2284e-07 0)
(7.38437e-07 6.64184e-07 0)
(8.68713e-07 8.1621e-07 0)
(1.00526e-06 9.76382e-07 0)
(3.07844e-08 8.12182e-09 0)
(9.84025e-08 3.78601e-08 0)
(1.75584e-07 9.07979e-08 0)
(2.59414e-07 1.64614e-07 0)
(3.50443e-07 2.57963e-07 0)
(4.48481e-07 3.68606e-07 0)
(5.53933e-07 4.943e-07 0)
(6.66668e-07 6.32805e-07 0)
(7.86958e-07 7.82189e-07 0)
(9.1375e-07 9.40032e-07 0)
(2.58673e-08 4.00089e-09 0)
(8.41226e-08 2.72713e-08 0)
(1.51461e-07 7.55097e-08 0)
(2.24989e-07 1.45749e-07 0)
(3.0543e-07 2.36022e-07 0)
(3.92818e-07 3.43821e-07 0)
(4.87648e-07 4.66797e-07 0)
(5.89891e-07 6.02727e-07 0)
(6.99774e-07 7.49728e-07 0)
(8.16462e-07 9.05526e-07 0)
(2.07399e-08 -6.87985e-10 0)
(6.90404e-08 1.61936e-08 0)
(1.25359e-07 6.02713e-08 0)
(1.87423e-07 1.27454e-07 0)
(2.56243e-07 2.15014e-07 0)
(3.32126e-07 3.20214e-07 0)
(4.15624e-07 4.40646e-07 0)
(5.06773e-07 5.74151e-07 0)
(6.0574e-07 7.18914e-07 0)
(7.11874e-07 8.72834e-07 0)
(1.58295e-08 -6.63707e-09 0)
(5.30672e-08 4.30624e-09 0)
(9.65551e-08 4.50145e-08 0)
(1.45613e-07 1.09682e-07 0)
(2.01604e-07 1.94819e-07 0)
(2.65044e-07 2.97559e-07 0)
(3.36443e-07 4.15524e-07 0)
(4.1583e-07 5.46661e-07 0)
(5.03297e-07 6.89245e-07 0)
(5.98323e-07 8.4136e-07 0)
(1.23724e-08 -1.3731e-08 0)
(3.5515e-08 -6.98883e-09 0)
(6.35963e-08 3.16199e-08 0)
(9.79542e-08 9.41954e-08 0)
(1.39989e-07 1.76931e-07 0)
(1.90136e-07 2.77103e-07 0)
(2.4873e-07 3.92469e-07 0)
(3.15708e-07 5.21114e-07 0)
(3.91088e-07 6.61402e-07 0)
(4.74405e-07 8.11599e-07 0)
)
;

boundaryField
{
    left
    {
        type            fixedDisplacement;
        value           uniform (0 0 0);
    }
    right
    {
        type            solidTraction;
        tractionSeries  
{
        file            "$FOAM_CASE/constant/timeVsTraction";
        outOfBounds     clamp;
}
        pressure        uniform 0;
        secondOrder     false;
        setEffectiveTraction false;
        relaxationFactor 1;
        value           nonuniform List<vector> 
30
(
(7.7698e-06 5.92923e-06 2.09425e-21)
(7.6005e-06 5.87729e-06 2.1076e-21)
(7.42989e-06 5.82546e-06 2.14059e-21)
(7.25745e-06 5.77282e-06 2.19369e-21)
(7.08298e-06 5.71875e-06 2.26592e-21)
(6.90655e-06 5.6628e-06 2.35561e-21)
(6.7284e-06 5.60468e-06 2.46091e-21)
(6.54889e-06 5.54432e-06 2.57976e-21)
(6.36844e-06 5.48178e-06 2.70985e-21)
(6.18752e-06 5.4173e-06 2.84892e-21)
(6.01438e-06 5.35406e-06 2.93431e-21)
(5.84811e-06 5.29214e-06 2.94896e-21)
(5.68215e-06 5.22948e-06 2.95768e-21)
(5.51672e-06 5.16648e-06 2.96044e-21)
(5.35198e-06 5.10354e-06 2.95691e-21)
(5.18792e-06 5.04104e-06 2.94787e-21)
(5.02471e-06 4.97927e-06 2.9339e-21)
(4.86226e-06 4.91861e-06 2.91539e-21)
(4.70049e-06 4.85926e-06 2.89355e-21)
(4.53928e-06 4.80143e-06 2.86927e-21)
(4.37847e-06 4.74524e-06 2.84375e-21)
(4.21786e-06 4.69071e-06 2.8181e-21)
(4.05728e-06 4.63782e-06 2.79345e-21)
(3.89652e-06 4.58646e-06 2.77088e-21)
(3.73543e-06 4.53644e-06 2.75135e-21)
(3.57386e-06 4.48753e-06 2.73561e-21)
(3.41173e-06 4.43943e-06 2.72429e-21)