/*--------------------------------*- C++ -*----------------------------------*\
  =========                 |
  \\      /  F ield         | OpenFOAM: The Open Source CFD Toolbox
   \\    /   O peration     | Website:  https://openfoam.org
    \\  /    A nd           | Version:  9
     \\/     M anipulation  |
\*---------------------------------------------------------------------------*/
FoamFile
{
    format      ascii;
    class       volSymmTensorField;
    location    "5";
    object      epsilon;
}
// * * * * * * * * * * * * * * * * * * * * * * * * * * * * * * * * * * * * * //

dimensions      [0 0 0 0 0 0 0];

internalField   nonuniform List<symmTensor> 
1000
(
(1.38777e-06 -2.77129e-06 2.59353e-19 7.26322e-07 2.87025e-19 7.80115e-34)
(2.79524e-06 -2.14556e-06 -5.63968e-21 -5.37784e-07 3.48581e-21 0)
(3.40406e-06 -1.65016e-06 6.2346e-21 -1.03692e-06 -1.52464e-21 0)
(3.76582e-06 -1.30109e-06 1.72439e-21 -1.36694e-06 -1.33418e-21 0)
(3.95774e-06 -1.02797e-06 -6.92638e-21 -1.55952e-06 9.69763e-22 0)
(4.04769e-06 -8.1331e-07 -8.91344e-22 -1.68066e-06 9.43172e-22 0)
(4.07751e-06 -6.3742e-07 -5.99557e-21 -1.75231e-06 -3.09996e-21 0)
(4.0639e-06 -4.92932e-07 4.25859e-21 -1.79212e-06 1.76388e-21 0)
(4.02972e-06 -3.6945e-07 -1.81896e-21 -1.81113e-06 -2.55732e-21 0)
(3.95522e-06 -2.61302e-07 0 -1.8144e-06 0 0)
(2.33154e-06 -3.213e-06 2.85786e-19 4.6543e-07 3.68045e-19 4.99233e-35)
(3.54528e-06 -2.19806e-06 0 -6.51285e-07 0 0)
(4.01313e-06 -1.59445e-06 4.69266e-21 -1.1182e-06 2.51218e-21 0)
(4.25469e-06 -1.1839e-06 -8.15627e-21 -1.40646e-06 -4.65168e-21 0)
(4.36681e-06 -8.76517e-07 -3.49875e-21 -1.57165e-06 -2.20276e-21 0)
(4.39563e-06 -6.41064e-07 2.25973e-21 -1.67217e-06 2.71665e-21 0)
(4.37649e-06 -4.51428e-07 2.78498e-21 -1.72833e-06 1.86661e-21 0)
(4.32134e-06 -2.99767e-07 6.82982e-21 -1.75782e-06 3.65286e-21 0)
(4.24902e-06 -1.69868e-07 0 -1.76421e-06 0 0)
(4.14928e-06 -6.35944e-08 0 -1.77173e-06 0 0)
(3.92705e-06 -3.40858e-06 2.69008e-19 4.85092e-08 4.02597e-19 0)
(4.37972e-06 -2.16798e-06 0 -7.38895e-07 0 0)
(4.59271e-06 -1.48622e-06 4.53187e-21 -1.1287e-06 2.68019e-21 0)
(4.69272e-06 -1.02178e-06 -1.65357e-21 -1.37096e-06 8.08526e-22 0)
(4.70567e-06 -6.86396e-07 -8.66474e-23 -1.50645e-06 4.76082e-23 0)
(4.66039e-06 -4.33329e-07 -2.09103e-21 -1.58474e-06 -2.66322e-21 0)
(4.58127e-06 -2.34585e-07 3.49158e-21 -1.62328e-06 1.31804e-21 0)
(4.47821e-06 -7.89314e-08 -2.39838e-21 -1.64076e-06 -1.76749e-21 0)
(4.36247e-06 5.15929e-08 -4.20804e-22 -1.63492e-06 4.57532e-22 0)
(4.23156e-06 1.59403e-07 -6.15463e-22 -1.64106e-06 -1.59906e-22 0)
(5.64059e-06 -3.37929e-06 2.14276e-19 -4.71548e-07 3.87286e-19 -2.4779e-35)
(5.26259e-06 -2.10475e-06 2.8802e-21 -8.40821e-07 -8.62352e-22 0)
(5.13224e-06 -1.3553e-06 -2.06992e-21 -1.08202e-06 -1.38615e-21 0)
(5.053e-06 -8.43118e-07 -1.6741e-21 -1.26231e-06 6.35966e-22 0)
(4.94685e-06 -4.80307e-07 2.15688e-21 -1.35885e-06 2.74363e-21 0)
(4.816e-06 -2.12461e-07 -2.99743e-21 -1.4127e-06 -2.00511e-21 0)
(4.66964e-06 -7.61204e-09 -2.59158e-21 -1.43369e-06 -1.85912e-21 0)
(4.51426e-06 1.49253e-07 -5.82433e-21 -1.44018e-06 -4.21258e-21 0)
(4.35351e-06 2.76142e-07 -6.0323e-22 -1.42559e-06 -1.14234e-21 0)
(4.19019e-06 3.82246e-07 1.31415e-21 -1.42912e-06 1.30048e-21 0)
(7.24152e-06 -3.16655e-06 1.58935e-19 -1.04326e-06 3.47874e-19 -4.07188e-34)
(6.19157e-06 -1.99302e-06 1.47919e-25 -9.92755e-07 -2.5954e-26 0)
(5.67162e-06 -1.21387e-06 -6.91818e-21 -1.02568e-06 -3.721e-21 0)
(5.35955e-06 -6.66431e-07 8.1846e-22 -1.10663e-06 -2.3042e-22 0)
(5.10077e-06 -2.79813e-07 -1.25209e-21 -1.14603e-06 4.15737e-22 0)
(4.86321e-06 -1.37863e-09 1.81807e-21 -1.16707e-06 2.31579e-21 0)
(4.63856e-06 2.04627e-07 -4.04369e-22 -1.1683e-06 1.88169e-22 0)
(4.4263e-06 3.57896e-07 2.38916e-21 -1.16489e-06 1.4669e-21 0)
(4.22158e-06 4.75796e-07 4.61409e-23 -1.14589e-06 -1.43066e-21 0)
(4.02738e-06 5.7645e-07 -8.6859e-22 -1.14906e-06 -7.46339e-22 0)
(8.6787e-06 -2.78147e-06 1.01322e-19 -1.60925e-06 2.8885e-19 -3.78227e-34)
(7.15602e-06 -1.79588e-06 1.30637e-25 -1.19423e-06 -3.66923e-27 0)
(6.2364e-06 -1.04413e-06 -8.35391e-26 -9.84675e-07 1.05124e-26 0)
(5.63825e-06 -4.91047e-07 7.58443e-22 -9.2713e-07 -1.43686e-22 0)
(5.18467e-06 -9.73984e-08 -3.0286e-21 -8.87391e-07 -1.96246e-21 0)
(4.81463e-06 1.79983e-07 5.64942e-23 -8.66223e-07 -1.8215e-23 0)
(4.50017e-06 3.78097e-07 2.26048e-21 -8.46943e-07 1.59301e-21 0)
(4.22879e-06 5.20694e-07 4.63975e-21 -8.3651e-07 3.74713e-21 0)
(3.98602e-06 6.24524e-07 8.50905e-22 -8.20931e-07 6.63945e-22 0)
(3.77015e-06 7.15146e-07 -1.40336e-21 -8.27626e-07 -1.30437e-21 0)
(9.84331e-06 -2.23379e-06 6.87549e-20 -2.10409e-06 2.22033e-19 -7.02111e-34)
(8.06339e-06 -1.47839e-06 1.96039e-21 -1.40948e-06 3.04318e-22 0)
(6.78829e-06 -8.16328e-07 2.19628e-21 -9.57893e-07 9.85826e-22 0)
(5.88451e-06 -3.0867e-07 -6.45373e-22 -7.39894e-07 6.27523e-23 0)
(5.21227e-06 5.64311e-08 1.79739e-21 -6.08092e-07 1.89617e-21 0)
(4.69642e-06 3.0912e-07 -1.68237e-21 -5.41128e-07 -1.72859e-21 0)
(4.29037e-06 4.84314e-07 1.08621e-21 -5.04368e-07 -4.24085e-22 0)
(3.96538e-06 6.06907e-07 -1.71055e-21 -4.93361e-07 -1.26134e-21 0)
(3.69684e-06 6.91204e-07 -2.66406e-22 -4.8874e-07 1.76705e-22 0)
(3.47204e-06 7.71407e-07 -8.99081e-22 -5.0799e-07 -5.61821e-22 0)
(1.07521e-05 -1.54812e-06 4.04219e-20 -2.47717e-06 1.46638e-19 -2.33025e-35)
(8.83316e-06 -1.02656e-06 -5.79642e-21 -1.56624e-06 -1.633e-21 0)
(7.2466e-06 -5.15574e-07 4.91025e-23 -9.032e-07 8.12949e-24 0)
(6.06269e-06 -1.19928e-07 9.57289e-22 -5.44616e-07 1.70207e-24 0)
(5.18805e-06 1.67988e-07 4.73388e-21 -3.37595e-07 2.74519e-21 0)
(4.54313e-06 3.67407e-07 -5.41419e-22 -2.38537e-07 1.55326e-22 0)
(4.06189e-06 5.05175e-07 1.48169e-26 -1.95646e-07 -6.31911e-27 0)
(3.69835e-06 6.00847e-07 -1.73054e-21 -1.91529e-07 -8.94125e-22 0)
(3.42123e-06 6.66131e-07 9.24029e-23 -2.06329e-07 -6.83997e-23 0)
(3.19868e-06 7.27183e-07 1.49631e-22 -2.35475e-07 1.12882e-23 0)
(1.11464e-05 -6.84869e-07 1.4606e-20 -2.61247e-06 6.91834e-20 1.6162e-34)
(9.13676e-06 -4.36556e-07 -6.29331e-21 -1.51709e-06 -1.67352e-21 0)
(7.3944e-06 -1.69258e-07 6.75434e-22 -7.41507e-07 2.79343e-22 0)
(6.08919e-06 2.61956e-08 7.99849e-22 -3.40746e-07 1.11682e-22 0)
(5.1361e-06 1.88114e-07 -4.0322e-22 -1.2318e-07 4.4026e-23 0)
(4.43897e-06 3.10755e-07 1.75066e-21 -2.68968e-08 8.72475e-22 0)
(3.92343e-06 4.04961e-07 2.32958e-22 8.54266e-09 -1.15521e-22 0)
(3.53744e-06 4.74526e-07 2.9074e-21 3.74268e-09 1.35102e-21 0)
(3.24729e-06 5.26566e-07 6.31478e-22 -1.97231e-08 3.15124e-22 0)
(3.02909e-06 5.68631e-07 2.71586e-22 -4.93796e-08 3.28275e-22 0)
(1.13426e-05 6.13252e-07 5.34582e-21 -2.26952e-06 1.00384e-21 2.80174e-36)
(8.78701e-06 4.19483e-07 -3.83532e-22 -9.51419e-07 -4.87649e-22 0)
(7.16622e-06 2.39818e-07 2.22836e-21 -3.85935e-07 5.1165e-22 0)
(5.99134e-06 1.72513e-07 1.40589e-22 -1.36689e-07 5.77216e-23 0)
(5.12525e-06 1.9551e-07 6.0842e-27 -2.23342e-08 -2.6758e-28 0)
(4.46455e-06 2.47948e-07 1.95265e-21 2.40293e-08 4.10087e-22 0)
(3.95505e-06 3.07059e-07 7.38058e-23 3.79659e-08 -4.07695e-23 0)
(3.55493e-06 3.5908e-07 1.44031e-21 3.2132e-08 3.88534e-22 0)
(3.23764e-06 3.93587e-07 -5.36067e-23 1.55992e-08 3.07159e-23 0)
(2.98137e-06 4.24391e-07 -3.69066e-23 1.39084e-09 5.56794e-24 0)
(-5.82848e-08 -2.61737e-08 2.71128e-20 2.22303e-08 2.24182e-20 1.47978e-34)
(-7.62976e-08 -4.31726e-08 -1.6071e-22 3.87237e-08 1.99587e-20 1.48371e-36)
(-3.13433e-08 -9.02075e-08 -1.38258e-21 9.46858e-09 1.56226e-20 1.85478e-35)
(8.85375e-08 -1.34908e-07 -2.07291e-24 -5.09612e-08 1.71868e-20 0)
(2.46691e-07 -1.66847e-07 -3.92061e-23 -1.24956e-07 1.49222e-20 -1.50312e-36)
(4.28638e-07 -1.85659e-07 -1.9774e-21 -2.05127e-07 1.71292e-20 3.15947e-35)
(6.14761e-07 -1.9338e-07 2.50517e-22 -2.84343e-07 1.94813e-20 1.51761e-36)
(7.99161e-07 -1.93331e-07 -1.40262e-21 -3.60303e-07 1.82202e-20 2.89927e-35)
(9.71326e-07 -1.86562e-07 9.43985e-22 -4.30405e-07 1.86231e-20 -1.26352e-35)
(1.133e-06 -1.79379e-07 2.15187e-21 -4.93486e-07 1.80479e-20 -3.82532e-35)
(-3.37549e-08 -3.49082e-08 2.83505e-20 -2.41867e-09 5.00598e-21 3.94624e-35)
(3.77702e-11 -1.08374e-07 1.4799e-21 4.539e-08 1.68767e-21 0)
(1.26623e-07 -2.35173e-07 -1.38097e-21 -1.00082e-08 -1.46866e-21 0)
(3.1032e-07 -3.4696e-07 8.53942e-23 -1.11245e-07 -1.24994e-21 0)
(5.08738e-07 -4.26775e-07 0 -2.22704e-07 0 0)
(7.08267e-07 -4.75725e-07 -2.22047e-21 -3.30221e-07 -2.88913e-22 0)
(8.95148e-07 -4.98706e-07 1.92656e-22 -4.26926e-07 1.96761e-21 0)
(1.07003e-06 -5.03393e-07 1.72671e-23 -5.11921e-07 1.05539e-22 0)
(1.22394e-06 -4.9189e-07 -8.08769e-22 -5.84571e-07 -3.55594e-21 0)
(1.36641e-06 -4.79442e-07 8.81214e-22 -6.44235e-07 1.11121e-22 0)
(-4.35016e-08 -9.795e-08 3.07721e-20 1.48232e-08 6.06282e-21 -1.76037e-36)
(4.98612e-08 -2.87902e-07 1.47439e-21 6.67226e-08 1.67382e-21 0)
(2.57558e-07 -4.62492e-07 1.61228e-21 -2.6809e-08 3.29407e-22 0)
(5.13706e-07 -5.91369e-07 1.66553e-22 -1.82522e-07 -1.20897e-21 0)
(7.62394e-07 -6.72246e-07 0 -3.41444e-07 0 0)
(9.90184e-07 -7.143e-07 -2.42838e-21 -4.84331e-07 -6.20398e-22 0)
(1.18813e-06 -7.27082e-07 -3.31263e-21 -6.04538e-07 -9.12175e-22 0)
(1.36241e-06 -7.19645e-07 2.11349e-21 -7.03309e-07 1.371e-21 0)
(1.50536e-06 -6.95731e-07 8.68623e-24 -7.80923e-07 4.50218e-23 0)
(1.63522e-06 -6.71903e-07 -1.88571e-21 -8.40402e-07 -1.27193e-21 0)
(-8.06747e-08 -2.13218e-07 3.94826e-20 1.11307e-07 9.5988e-21 -3.27626e-35)
(1.26808e-07 -5.31121e-07 4.47191e-22 9.07613e-08 -1.42858e-21 0)
(4.23284e-07 -7.28558e-07 1.75892e-21 -6.31686e-08 3.36729e-22 0)
(7.48613e-07 -8.46217e-07 0 -2.74256e-07 0 0)
(1.04076e-06 -9.02662e-07 -3.19574e-21 -4.73626e-07 1.26225e-21 0)
(1.29237e-06 -9.18488e-07 -2.37367e-22 -6.44524e-07 2.98688e-21 0)
(1.49901e-06 -9.0744e-07 2.50901e-24 -7.82407e-07 -1.60353e-21 0)
(1.67198e-06 -8.78697e-07 -1.89006e-22 -8.91092e-07 -2.47443e-21 0)
(1.8048e-06 -8.37257e-07 9.86649e-22 -9.72128e-07 3.23515e-22 0)
(1.92342e-06 -7.98613e-07 1.83122e-21 -1.0313e-06 7.01697e-22 0)
(-1.26792e-07 -3.91513e-07 3.78374e-20 2.74529e-07 1.73767e-20 8.33047e-35)
(2.6065e-07 -8.11334e-07 -3.22066e-21 9.61398e-08 2.21007e-21 0)
(6.58034e-07 -1.00113e-06 -1.84938e-21 -1.4497e-07 -5.57686e-22 0)
(1.04634e-06 -1.08282e-06 -7.06639e-22 -4.15778e-07 2.1851e-21 0)
(1.3696e-06 -1.09698e-06 -3.27991e-23 -6.48112e-07 1.34913e-22 0)
(1.63176e-06 -1.07343e-06 3.05088e-21 -8.3634e-07 -8.89419e-22 0)
(1.83657e-06 -1.02889e-06 1.26164e-21 -9.82293e-07 3.33022e-22 0)
(2.00012e-06 -9.72339e-07 0 -1.09317e-06 0 0)
(2.11793e-06 -9.10156e-07 -1.17999e-21 -1.17195e-06 -1.89312e-21 0)
(2.22166e-06 -8.54402e-07 5.42214e-22 -1.22682e-06 1.27208e-22 0)
(-1.54358e-07 -6.45238e-07 5.59532e-20 4.83361e-07 2.3234e-20 -1.25322e-34)
(4.69438e-07 -1.10443e-06 1.46456e-21 7.48514e-08 -2.61857e-21 0)
(9.72405e-07 -1.24894e-06 -1.40534e-21 -2.69431e-07 -1.7617e-21 0)
(1.40886e-06 -1.27422e-06 4.42203e-22 -5.92454e-07 -1.01839e-21 0)
(1.74352e-06 -1.23181e-06 3.22469e-21 -8.45088e-07 1.12188e-21 0)
(2.00104e-06 -1.16098e-06 -3.2627e-21 -1.03963e-06 4.40265e-22 0)
(2.19231e-06 -1.08053e-06 -1.30061e-23 -1.1834e-06 9.0879e-23 0)
(2.33646e-06 -9.96812e-07 -2.32533e-21 -1.28729e-06 -1.78145e-21 0)
(2.43295e-06 -9.16395e-07 1.17549e-24 -1.35746e-06 3.58963e-23 0)
(2.51637e-06 -8.45649e-07 -2.62207e-21 -1.40306e-06 -1.25729e-21 0)
(-1.26017e-07 -9.78037e-07 9.26121e-20 6.97284e-07 4.90618e-20 -1.3803e-34)
(7.60088e-07 -1.38796e-06 8.04671e-23 1.6749e-08 -1.13965e-22 0)
(1.35828e-06 -1.44621e-06 -6.10732e-26 -4.27953e-07 9.43232e-26 0)
(1.82301e-06 -1.3902e-06 -3.14436e-21 -7.94912e-07 -2.47055e-21 0)
(2.15959e-06 -1.28728e-06 -7.34806e-22 -1.05808e-06 1.64623e-21 0)
(2.40045e-06 -1.17453e-06 -2.97716e-21 -1.24612e-06 -1.2835e-21 0)
(2.56238e-06 -1.06176e-06 5.32858e-21 -1.3753e-06 2.52249e-21 0)
(2.67171e-06 -9.54517e-07 -8.8577e-24 -1.46262e-06 7.24054e-23 0)
(2.73747e-06 -8.59779e-07 1.11944e-21 -1.51841e-06 -5.33596e-23 0)
(2.79022e-06 -7.77848e-07 -1.42347e-21 -1.55013e-06 -7.05062e-22 0)
(2.78039e-09 -1.38396e-06 1.42067e-19 8.7008e-07 8.82478e-20 -2.93734e-34)
(1.14099e-06 -1.6443e-06 2.05612e-21 -8.18758e-08 -2.35395e-21 0)
(1.81613e-06 -1.5732e-06 -8.03289e-22 -6.15963e-07 1.00812e-21 0)
(2.29663e-06 -1.43963e-06 4.97507e-22 -1.00881e-06 -7.21704e-22 0)
(2.5922e-06 -1.28122e-06 4.62897e-26 -1.25759e-06 -8.13904e-26 0)
(2.8016e-06 -1.12731e-06 3.57927e-21 -1.42207e-06 2.22288e-22 0)
(2.94744e-06 -9.87751e-07 4.0088e-22 -1.52944e-06 -1.29278e-21 0)
(3.0305e-06 -8.68391e-07 -2.12664e-22 -1.59898e-06 1.07208e-21 0)
(3.06835e-06 -7.66302e-07 -5.71372e-23 -1.64155e-06 5.38907e-22 0)
(3.08496e-06 -6.81916e-07 1.00565e-21 -1.6612e-06 1.11695e-21 0)
(2.71331e-07 -1.84352e-06 1.84357e-19 9.58282e-07 1.47027e-19 4.2231e-34)
(1.60671e-06 -1.85505e-06 -1.078e-21 -2.26968e-07 4.39903e-21 0)
(2.31352e-06 -1.6499e-06 -7.62692e-26 -8.07509e-07 7.7958e-26 0)
(2.77831e-06 -1.43033e-06 4.57626e-21 -1.18007e-06 1.0978e-21 0)
(3.07321e-06 -1.21737e-06 3.4103e-21 -1.401e-06 1.82959e-21 0)
(3.2393e-06 -1.04367e-06 3.09042e-21 -1.54545e-06 1.62477e-21 0)
(3.33863e-06 -8.98758e-07 -4.87281e-22 -1.6394e-06 1.14811e-21 0)
(3.3927e-06 -7.76022e-07 -3.75045e-21 -1.70072e-06 -2.16265e-21 0)
(3.4084e-06 -6.68541e-07 2.46107e-21 -1.7363e-06 4.34487e-22 0)
(3.40976e-06 -5.79695e-07 1.04249e-21 -1.75448e-06 6.27149e-22 0)
(7.21705e-07 -2.32238e-06 2.25192e-19 9.19633e-07 2.08782e-19 6.49568e-35)
(2.14051e-06 -2.02146e-06 -1.32093e-21 -3.91783e-07 1.00253e-21 0)
(2.84508e-06 -1.66694e-06 -2.19992e-21 -9.4157e-07 -1.15224e-21 0)
(3.27164e-06 -1.37093e-06 9.85536e-21 -1.28691e-06 2.25771e-21 0)
(3.51559e-06 -1.13789e-06 7.0496e-23 -1.49547e-06 -8.03421e-23 0)
(3.65384e-06 -9.49281e-07 -3.09738e-21 -1.63133e-06 -1.83214e-21 0)
(3.72387e-06 -7.91117e-07 -3.5757e-21 -1.71817e-06 -3.46502e-22 0)
(3.74712e-06 -6.57195e-07 -1.27335e-21 -1.77133e-06 -7.67101e-22 0)
(3.73794e-06 -5.44701e-07 4.17759e-22 -1.80311e-06 -1.26837e-21 0)
(3.70887e-06 -4.48645e-07 3.68823e-22 -1.80918e-06 1.52505e-21 0)
(1.27905e-06 -1.63726e-07 1.88665e-21 -5.5083e-07 1.95634e-20 -1.14241e-35)
(1.40681e-06 -1.43522e-07 1.92501e-21 -5.97817e-07 1.80541e-20 -2.51737e-35)
(1.52514e-06 -1.24712e-07 -6.59498e-26 -6.4143e-07 1.54681e-20 -1.47219e-35)
(1.63133e-06 -1.07447e-07 1.97557e-22 -6.80674e-07 1.6992e-20 -6.47515e-37)
(1.72737e-06 -9.13129e-08 -1.11922e-21 -7.16015e-07 1.73368e-20 3.85332e-35)
(1.81323e-06 -7.67257e-08 5.88922e-22 -7.47701e-07 1.78358e-20 0)
(1.89009e-06 -6.34082e-08 5.56065e-22 -7.76012e-07 1.78452e-20 0)
(1.95843e-06 -5.1403e-08 1.06868e-21 -8.0123e-07 1.86639e-20 5.02868e-37)
(2.0191e-06 -4.05211e-08 1.06364e-21 -8.23606e-07 1.80346e-20 -1.31594e-35)
(2.07262e-06 -3.06711e-08 1.60978e-21 -8.43361e-07 1.95011e-20 8.54583e-37)
(2.11957e-06 -2.16942e-08 2.15722e-21 -8.60682e-07 1.84085e-20 -3.99286e-35)
(2.16039e-06 -1.34671e-08 -1.97812e-22 -8.75724e-07 1.76775e-20 1.33833e-35)
(2.19544e-06 -5.85626e-09 2.10763e-21 -8.88609e-07 1.84168e-20 -4.03693e-35)
(2.22501e-06 1.2459e-09 -1.5467e-21 -8.99435e-07 1.53138e-20 -8.10946e-37)
(2.24926e-06 7.93723e-09 3.08318e-22 -9.08254e-07 1.85253e-20 1.3831e-35)
(2.26843e-06 1.42545e-08 2.3962e-22 -9.15135e-07 1.78526e-20 -3.27488e-45)
(2.28246e-06 2.01965e-08 -4.33496e-22 -9.20064e-07 1.69776e-20 -1.47775e-37)
(2.2918e-06 2.55399e-08 8.03144e-22 -9.23103e-07 1.87232e-20 1.06042e-37)
(2.29607e-06 2.99515e-08 6.7917e-22 -9.24041e-07 1.66273e-20 -4.17912e-35)
(2.29626e-06 3.18163e-08 2.40714e-20 -9.22565e-07 1.49025e-20 -6.2318e-35)
(1.48304e-06 -4.45795e-07 1.83936e-21 -6.93368e-07 2.65474e-21 0)
(1.57588e-06 -4.00671e-07 1.3778e-21 -7.25556e-07 3.3498e-22 0)
(1.66473e-06 -3.58689e-07 2.00213e-22 -7.53924e-07 -6.3476e-22 0)
(1.74374e-06 -3.19094e-07 2.81736e-21 -7.78979e-07 2.81161e-21 0)
(1.81678e-06 -2.81635e-07 -6.06323e-22 -8.01018e-07 -1.1347e-22 0)
(1.88253e-06 -2.47397e-07 -2.2366e-21 -8.20813e-07 -2.59316e-21 0)
(1.94246e-06 -2.15757e-07 1.28383e-21 -8.3846e-07 4.20698e-22 0)
(1.99645e-06 -1.86931e-07 0 -8.54339e-07 0 0)
(2.04521e-06 -1.60498e-07 6.13842e-22 -8.68568e-07 1.85554e-22 0)
(2.08891e-06 -1.363e-07 1.25507e-21 -8.81317e-07 4.21032e-22 0)
(2.12799e-06 -1.13993e-07 3.67406e-21 -8.92666e-07 1.80119e-21 0)
(2.16266e-06 -9.3321e-08 1.46506e-23 -9.02691e-07 1.99322e-23 0)
(2.1932e-06 -7.39943e-08 5.90136e-22 -9.11423e-07 -4.71407e-22 0)
(2.2198e-06 -5.57859e-08 6.21145e-22 -9.18874e-07 8.41064e-22 0)
(2.24257e-06 -3.85034e-08 6.38039e-22 -9.24998e-07 8.63525e-22 0)
(2.26171e-06 -2.2086e-08 -6.3267e-22 -9.29706e-07 -8.58216e-22 0)
(2.27697e-06 -6.55845e-09 -6.36868e-22 -9.32752e-07 -8.66384e-22 0)
(2.28857e-06 7.6449e-09 -1.28012e-21 -9.33753e-07 -1.74751e-21 0)
(2.29513e-06 2.01347e-08 -9.83118e-24 -9.31676e-07 -1.23256e-23 0)
(2.29698e-06 2.89598e-08 2.66351e-20 -9.25193e-07 1.46068e-21 6.03004e-35)
(1.72516e-06 -6.23985e-07 4.89846e-22 -8.79699e-07 8.18658e-22 0)
(1.78308e-06 -5.6571e-07 7.78285e-22 -8.9556e-07 2.70289e-22 0)
(1.84161e-06 -5.11078e-07 -1.55989e-21 -9.05631e-07 -2.37809e-21 0)
(1.89175e-06 -4.59798e-07 -2.38379e-22 -9.1337e-07 4.57117e-22 0)
(1.94005e-06 -4.10769e-07 3.04806e-21 -9.18953e-07 2.80709e-21 0)
(1.98366e-06 -3.65628e-07 -2.36261e-21 -9.23764e-07 -2.5739e-21 0)
(2.02471e-06 -3.23461e-07 -6.03043e-22 -9.27891e-07 -8.39803e-22 0)
(2.06237e-06 -2.84662e-07 1.15544e-21 -9.31799e-07 1.5741e-21 0)
(2.09737e-06 -2.48731e-07 1.83728e-22 -9.35547e-07 -1.08804e-21 0)
(2.12953e-06 -2.15549e-07 -1.22448e-21 -9.39245e-07 -1.643e-21 0)
(2.15912e-06 -1.84743e-07 1.17478e-21 -9.42885e-07 1.56645e-21 0)
(2.18616e-06 -1.56051e-07 1.81674e-21 -9.46445e-07 2.41835e-21 0)
(2.21076e-06 -1.29163e-07 1.39735e-23 -9.49851e-07 1.81337e-23 0)
(2.23299e-06 -1.03826e-07 -6.23143e-22 -9.5299e-07 -8.29868e-22 0)
(2.25279e-06 -7.98241e-08 6.17259e-22 -9.55658e-07 8.24854e-22 0)
(2.27022e-06 -5.7016e-08 9.15588e-29 -9.57547e-07 1.18874e-28 0)
(2.28471e-06 -3.53404e-08 -6.37028e-22 -9.58062e-07 -8.56804e-22 0)
(2.29626e-06 -1.48317e-08 6.06654e-24 -9.56395e-07 6.60144e-22 0)
(2.30252e-06 4.35628e-09 -2.49538e-21 -9.50697e-07 -1.00676e-22 0)
(2.30455e-06 2.27014e-08 2.74849e-20 -9.39484e-07 3.92841e-22 4.53735e-38)
(1.98806e-06 -7.38948e-07 0 -1.06151e-06 0 0)
(2.01191e-06 -6.74831e-07 8.2611e-22 -1.06365e-06 2.99765e-22 0)
(2.04146e-06 -6.13497e-07 5.7066e-22 -1.05814e-06 7.82199e-22 0)
(2.06342e-06 -5.56858e-07 6.21887e-22 -1.0513e-06 8.69583e-22 0)
(2.0872e-06 -5.01903e-07 0 -1.04263e-06 0 0)
(2.10839e-06 -4.51067e-07 1.74613e-22 -1.03419e-06 -4.63544e-22 0)
(2.12994e-06 -4.03011e-07 -2.04958e-21 -1.02608e-06 -1.31532e-21 0)
(2.15041e-06 -3.58373e-07 -1.19293e-21 -1.01891e-06 -1.54786e-21 0)
(2.17061e-06 -3.16615e-07 -7.57392e-22 -1.01275e-06 -3.37243e-22 0)
(2.19004e-06 -2.7772e-07 -1.77503e-22 -1.00769e-06 1.05388e-21 0)
(2.20888e-06 -2.41349e-07 -7.61719e-22 -1.00368e-06 2.86496e-22 0)
(2.22693e-06 -2.07292e-07 1.40449e-21 -1.00065e-06 5.54787e-22 0)
(2.24418e-06 -1.75262e-07 1.42473e-21 -9.98444e-07 -4.38701e-23 0)
(2.26051e-06 -1.45011e-07 -5.47169e-23 -9.96843e-07 5.62078e-22 0)
(2.27572e-06 -1.16302e-07 -3.16414e-23 -9.95523e-07 5.93099e-22 0)
(2.28966e-06 -8.88799e-08 -6.31741e-22 -9.94036e-07 -8.33453e-22 0)
(2.30163e-06 -6.25587e-08 -1.35246e-28 -9.91639e-07 -1.7752e-28 0)
(2.31152e-06 -3.68741e-08 1.2685e-21 -9.87428e-07 2.3469e-21 0)
(2.31684e-06 -1.18851e-08 1.09743e-23 -9.79593e-07 -6.46742e-22 0)
(2.31944e-06 1.53491e-08 2.48357e-20 -9.66958e-07 -2.48281e-21 -8.93936e-35)
(2.26029e-06 -7.8636e-07 -8.29023e-23 -1.2459e-06 1.13144e-21 0)
(2.2503e-06 -7.24466e-07 -8.83773e-22 -1.235e-06 -3.97297e-22 0)
(2.25192e-06 -6.6209e-07 -2.09432e-21 -1.21419e-06 -1.93502e-21 0)
(2.24661e-06 -6.06105e-07 1.41123e-21 -1.19367e-06 1.05084e-21 0)
(2.24676e-06 -5.50737e-07 3.69106e-21 -1.1715e-06 2.62212e-21 0)
(2.24605e-06 -4.99354e-07 -6.29397e-22 -1.15045e-06 -7.87563e-22 0)
(2.24837e-06 -4.50154e-07 0 -1.13057e-06 0 0)
(2.2516e-06 -4.03957e-07 6.12822e-22 -1.11258e-06 7.60573e-22 0)
(2.2567e-06 -3.60253e-07 -2.22874e-21 -1.09659e-06 -9.08247e-22 0)
(2.2629e-06 -3.19127e-07 -1.36335e-21 -1.0827e-06 -1.08717e-21 0)
(2.27029e-06 -2.80335e-07 2.41243e-22 -1.07085e-06 -9.31236e-22 0)
(2.27852e-06 -2.43745e-07 -5.59653e-22 -1.06095e-06 -1.32513e-21 0)
(2.28744e-06 -2.09132e-07 -3.17129e-22 -1.0528e-06 1.46176e-21 0)
(2.29681e-06 -1.76262e-07 1.17606e-21 -1.04612e-06 2.12931e-21 0)
(2.30632e-06 -1.44885e-07 6.9559e-22 -1.04055e-06 2.68267e-22 0)
(2.31572e-06 -1.14627e-07 5.85348e-23 -1.03559e-06 -5.58363e-22 0)
(2.32429e-06 -8.51895e-08 1.35096e-21 -1.0305e-06 4.90406e-22 0)
(2.33189e-06 -5.5668e-08 6.65043e-22 -1.02447e-06 2.32517e-22 0)
(2.33642e-06 -2.61942e-08 2.56027e-21 -1.01602e-06 2.11812e-21 0)
(2.33996e-06 7.96574e-09 3.0017e-20 -1.00427e-06 3.0276e-21 9.04299e-35)
(2.52887e-06 -7.74261e-07 4.39842e-22 -1.41132e-06 7.85253e-22 0)
(2.48647e-06 -7.22497e-07 8.94442e-24 -1.39123e-06 3.04863e-23 0)
(2.46259e-06 -6.65187e-07 -1.53823e-21 -1.35846e-06 -1.18158e-21 0)
(2.43187e-06 -6.15179e-07 -3.66199e-21 -1.32671e-06 -3.07739e-21 0)
(2.41005e-06 -5.63945e-07 1.45125e-21 -1.29353e-06 1.08359e-21 0)
(2.3889e-06 -5.16085e-07 1.28323e-21 -1.26188e-06 1.52401e-21 0)
(2.37303e-06 -4.69434e-07 -6.28662e-22 -1.23207e-06 -7.46261e-22 0)
(2.35979e-06 -4.24982e-07 -1.84497e-22 -1.20472e-06 3.64672e-22 0)
(2.35016e-06 -3.82326e-07 3.00641e-21 -1.18004e-06 1.85739e-21 0)
(2.34321e-06 -3.41666e-07 -1.84018e-21 -1.15815e-06 -2.23197e-21 0)
(2.33896e-06 -3.02887e-07 -6.54037e-22 -1.13902e-06 -8.0217e-22 0)
(2.33694e-06 -2.6596e-07 1.60989e-21 -1.12259e-06 3.19068e-21 0)
(2.33695e-06 -2.30744e-07 -3.01547e-21 -1.10867e-06 -7.3069e-22 0)
(2.33867e-06 -1.97047e-07 -1.85119e-21 -1.09702e-06 -2.33049e-21 0)
(2.34177e-06 -1.64628e-07 8.68917e-23 -1.08732e-06 -5.07811e-22 0)
(2.34594e-06 -1.33034e-07 -2.65923e-21 -1.07913e-06 -2.15658e-21 0)
(2.35063e-06 -1.0191e-07 -1.87722e-23 -1.07186e-06 -1.96304e-23 0)
(2.35566e-06 -7.00477e-08 2.53405e-21 -1.0649e-06 2.68492e-21 0)
(2.35964e-06 -3.77514e-08 -3.90958e-23 -1.05724e-06 5.99506e-22 0)
(2.36441e-06 9.79647e-10 3.09116e-20 -1.04828e-06 1.16296e-21 -6.70366e-37)
(2.77614e-06 -7.05891e-07 -4.56921e-22 -1.54816e-06 -7.69946e-22 0)
(2.7069e-06 -6.71601e-07 6.85998e-22 -1.52252e-06 7.42915e-22 0)
(2.66149e-06 -6.26175e-07 9.18167e-22 -1.48247e-06 4.98697e-22 0)
(2.61022e-06 -5.86566e-07 -6.6779e-22 -1.44463e-06 -7.49252e-22 0)
(2.56945e-06 -5.44289e-07 -1.74174e-21 -1.4038e-06 -8.83597e-22 0)
(2.53019e-06 -5.03517e-07 8.53446e-22 -1.3641e-06 4.27548e-22 0)
(2.49786e-06 -4.62749e-07 2.34703e-21 -1.32641e-06 1.61533e-21 0)
(2.46948e-06 -4.22796e-07 -3.76133e-21 -1.29136e-06 -2.71582e-21 0)
(2.44602e-06 -3.83675e-07 -2.33107e-21 -1.25926e-06 -1.6332e-21 0)
(2.42648e-06 -3.45696e-07 3.6505e-21 -1.23037e-06 2.63319e-21 0)
(2.41084e-06 -3.08942e-07 -1.55434e-21 -1.2047e-06 -7.15719e-22 0)
(2.39861e-06 -2.73522e-07 1.83518e-21 -1.18228e-06 2.22663e-21 0)
(2.38956e-06 -2.39401e-07 2.14427e-21 -1.163e-06 1.44686e-21 0)
(2.38334e-06 -2.06461e-07 -1.0693e-21 -1.14672e-06 -1.93007e-21 0)
(2.3797e-06 -1.74492e-07 -1.00227e-21 -1.13321e-06 5.74793e-22 0)
(2.3783e-06 -1.43026e-07 3.68458e-23 -1.12218e-06 3.79638e-23 0)
(2.37889e-06 -1.11695e-07 -3.21259e-21 -1.11327e-06 -2.88114e-21 0)
(2.3812e-06 -7.9139e-08 6.06253e-22 -1.10612e-06 7.90078e-22 0)
(2.38476e-06 -4.58571e-08 1.28098e-21 -1.10026e-06 1.04545e-21 0)
(2.39074e-06 -5.12422e-09 3.11825e-20 -1.09532e-06 1.02072e-21 -2.81261e-37)
(3.01441e-06 -6.1001e-07 2.15786e-24 -1.65185e-06 2.56342e-23 0)
(2.89659e-06 -5.90245e-07 -7.04016e-22 -1.62205e-06 -7.3622e-22 0)
(2.834e-06 -5.56488e-07 2.2863e-22 -1.57947e-06 -2.29355e-22 0)
(2.77064e-06 -5.30057e-07 0 -1.53939e-06 0 0)
(2.71602e-06 -4.97572e-07 0 -1.49642e-06 0 0)
(2.66353e-06 -4.66284e-07 -2.1965e-21 -1.45256e-06 -1.95034e-21 0)
(2.61761e-06 -4.33599e-07 1.88633e-21 -1.41019e-06 2.10043e-21 0)
(2.57648e-06 -4.00336e-07 4.05482e-21 -1.36989e-06 4.10435e-21 0)
(2.54067e-06 -3.66668e-07 -3.00927e-21 -1.33216e-06 -3.44092e-21 0)
(2.50958e-06 -3.33165e-07 -2.71782e-21 -1.29757e-06 -2.63265e-21 0)
(2.48317e-06 -3.00047e-07 1.21452e-21 -1.26625e-06 1.43443e-21 0)
(2.46103e-06 -2.67624e-07 -2.04188e-22 -1.23845e-06 3.21027e-22 0)
(2.44301e-06 -2.35973e-07 2.33347e-21 -1.21422e-06 1.10033e-21 0)
(2.4288e-06 -2.05089e-07 3.49149e-21 -1.19358e-06 2.52458e-21 0)
(2.41827e-06 -1.74827e-07 4.55882e-23 -1.1765e-06 4.68245e-23 0)
(2.41114e-06 -1.44765e-07 1.88867e-21 -1.16289e-06 -6.70495e-22 0)
(2.40747e-06 -1.14576e-07 0 -1.15268e-06 0 0)
(2.40694e-06 -8.28853e-08 -1.40258e-21 -1.14579e-06 -5.56151e-22 0)
(2.41007e-06 -5.03717e-08 6.7612e-22 -1.14231e-06 2.52275e-22 0)
(2.4171e-06 -1.00571e-08 3.34042e-20 -1.14209e-06 1.51669e-21 -7.63733e-37)
(3.31036e-06 -5.03508e-07 -6.37e-25 -1.73736e-06 -2.29196e-23 0)
(3.11998e-06 -5.0175e-07 9.54315e-22 -1.70138e-06 5.83012e-22 0)
(2.99365e-06 -4.77643e-07 -9.41187e-22 -1.65698e-06 -5.92927e-22 0)
(2.90891e-06 -4.56735e-07 -9.29795e-22 -1.61277e-06 -5.78407e-22 0)
(2.84718e-06 -4.35757e-07 2.50596e-21 -1.56909e-06 1.84407e-21 0)
(2.78392e-06 -4.12204e-07 1.83758e-21 -1.52284e-06 1.12465e-21 0)
(2.72811e-06 -3.87683e-07 -2.39966e-21 -1.47806e-06 -1.70942e-21 0)
(2.67663e-06 -3.61429e-07 4.69832e-22 -1.43484e-06 -4.52539e-22 0)
(2.63058e-06 -3.33787e-07 5.10939e-22 -1.39345e-06 5.5964e-22 0)
(2.58935e-06 -3.05535e-07 -4.49567e-22 -1.35482e-06 5.18215e-22 0)
(2.55323e-06 -2.76924e-07 -2.5319e-21 -1.31925e-06 -1.36424e-21 0)
(2.52188e-06 -2.48455e-07 2.05233e-23 -1.28722e-06 2.31658e-23 0)
(2.49535e-06 -2.20293e-07 -9.52869e-22 -1.25897e-06 -1.71236e-21 0)
(2.4734e-06 -1.92545e-07 -3.61215e-23 -1.23474e-06 -3.74462e-23 0)
(2.45611e-06 -1.65138e-07 1.49754e-21 -1.21472e-06 6.81e-22 0)
(2.44325e-06 -1.37738e-07 -2.7632e-23 -1.19904e-06 -2.66009e-23 0)
(2.43526e-06 -1.10073e-07 1.53689e-21 -1.18798e-06 2.57726e-21 0)
(2.43173e-06 -8.08805e-08 -6.92839e-22 -1.18171e-06 -2.77803e-22 0)
(2.43421e-06 -5.09448e-08 -2.95273e-21 -1.1809e-06 -3.23338e-21 0)
(2.44186e-06 -1.34919e-08 3.04626e-20 -1.18561e-06 -9.72788e-22 -5.88324e-35)
(3.58846e-06 -3.74349e-07 -1.33786e-22 -1.80629e-06 -5.892e-23 0)
(3.3778e-06 -3.8558e-07 -1.07279e-21 -1.76167e-06 -6.06737e-22 0)
(3.20396e-06 -3.77705e-07 7.94796e-22 -1.72155e-06 6.95274e-22 0)
(3.05661e-06 -3.63902e-07 -1.9502e-21 -1.67663e-06 -2.16222e-21 0)
(2.9646e-06 -3.55502e-07 -2.07902e-21 -1.631e-06 -2.00723e-21 0)
(2.89713e-06 -3.43228e-07 1.14372e-21 -1.58545e-06 1.52602e-21 0)
(2.83184e-06 -3.2682e-07 9.44036e-22 -1.53931e-06 1.55547e-21 0)
(2.77179e-06 -3.09007e-07 1.85728e-21 -1.49455e-06 1.97731e-21 0)
(2.7166e-06 -2.88361e-07 -2.30285e-21 -1.4505e-06 -1.866e-21 0)
(2.66612e-06 -2.66448e-07 -6.70513e-24 -1.40843e-06 5.83512e-23 0)
(2.62086e-06 -2.43332e-07 4.60004e-24 -1.36887e-06 -1.7155e-22 0)
(2.58069e-06 -2.19714e-07 -1.70673e-21 -1.33258e-06 -1.96509e-21 0)
(2.54585e-06 -1.95853e-07 0 -1.30012e-06 0 0)
(2.51625e-06 -1.71995e-07 -1.81079e-21 -1.27198e-06 -4.65325e-22 0)
(2.49216e-06 -1.48179e-07 -1.71357e-24 -1.24865e-06 -3.87148e-23 0)
(2.47344e-06 -1.2422e-07 -2.25238e-21 -1.23055e-06 -1.01085e-21 0)
(2.46091e-06 -9.9945e-08 5.49325e-22 -1.21828e-06 6.70429e-22 0)
(2.4541e-06 -7.43377e-08 1.42571e-21 -1.21233e-06 5.83922e-22 0)
(2.45556e-06 -4.82169e-08 1.93641e-23 -1.21395e-06 -3.34974e-24 0)
(2.46346e-06 -1.54344e-08 3.16948e-20 -1.22339e-06 5.65061e-23 -2.53273e-37)
(3.79098e-06 -2.41696e-07 1.03426e-21 -1.83281e-06 1.0159e-21 0)
(3.575e-06 -2.40683e-07 -1.05015e-21 -1.78551e-06 -6.18782e-22 0)
(3.38213e-06 -2.60571e-07 -5.44314e-22 -1.75225e-06 -5.04906e-22 0)
(3.20373e-06 -2.60235e-07 9.83932e-22 -1.70683e-06 5.70671e-22 0)
(3.06239e-06 -2.61262e-07 -2.06508e-21 -1.65909e-06 -7.55145e-22 0)
(2.98134e-06 -2.58758e-07 -1.37257e-21 -1.61421e-06 -5.41809e-22 0)
(2.91445e-06 -2.49134e-07 -1.5408e-21 -1.57029e-06 -1.18264e-21 0)
(2.84726e-06 -2.38827e-07 2.82949e-22 -1.5259e-06 -1.92548e-22 0)
(2.78634e-06 -2.2508e-07 3.21863e-21 -1.48218e-06 2.04861e-21 0)
(2.72909e-06 -2.09822e-07 -9.59831e-23 -1.4395e-06 -1.29088e-22 0)
(2.67716e-06 -1.93005e-07 1.7525e-21 -1.3989e-06 9.50724e-22 0)
(2.63024e-06 -1.75336e-07 -7.36197e-23 -1.36113e-06 -1.04174e-22 0)
(2.58892e-06 -1.57075e-07 5.68013e-36 -1.32701e-06 6.81687e-36 0)
(2.55321e-06 -1.38514e-07 -7.79145e-22 -1.29723e-06 -3.57079e-22 0)
(2.52359e-06 -1.19751e-07 7.62165e-22 -1.2725e-06 3.38674e-22 0)
(2.50002e-06 -1.00755e-07 -2.73608e-23 -1.25346e-06 -5.21881e-23 0)
(2.48358e-06 -8.14504e-08 1.96436e-22 -1.24102e-06 -3.74183e-22 0)
(2.47376e-06 -6.12084e-08 3.15879e-24 -1.23586e-06 2.48966e-23 0)
(2.47375e-06 -4.08069e-08 -9.3126e-24 -1.23973e-06 1.08668e-23 0)
(2.48093e-06 -1.52359e-08 3.35326e-20 -1.25299e-06 1.74024e-22 2.98814e-37)
(3.76307e-06 -8.82412e-08 1.02378e-21 -1.78292e-06 8.30992e-22 0)
(3.60055e-06 -1.02802e-07 0 -1.77654e-06 0 0)
(3.41881e-06 -1.35626e-07 -7.33943e-22 -1.74897e-06 -7.32707e-22 0)
(3.24263e-06 -1.53547e-07 9.80817e-36 -1.70756e-06 8.60042e-36 0)
(3.09953e-06 -1.63624e-07 2.32435e-36 -1.662e-06 1.71569e-36 0)
(3.01717e-06 -1.66223e-07 1.08751e-35 -1.61851e-06 8.39899e-36 0)
(2.95024e-06 -1.64689e-07 1.62016e-35 -1.57754e-06 1.42748e-35 0)
(2.88183e-06 -1.59991e-07 -6.18665e-22 -1.53472e-06 -6.83431e-22 0)
(2.81957e-06 -1.52836e-07 0 -1.49252e-06 0 0)
(2.76038e-06 -1.43846e-07 5.92593e-22 -1.45082e-06 6.76397e-22 0)
(2.70628e-06 -1.33436e-07 -6.56626e-37 -1.41094e-06 -1.76766e-36 0)
(2.65694e-06 -1.22039e-07 -5.70387e-22 -1.37364e-06 -6.73903e-22 0)
(2.6131e-06 -1.09926e-07 5.60976e-22 -1.33985e-06 6.74002e-22 0)
(2.57489e-06 -9.73514e-08 8.73169e-36 -1.31034e-06 6.58211e-36 0)
(2.54285e-06 -8.44235e-08 -5.45895e-22 -1.28594e-06 -6.76358e-22 0)
(2.51711e-06 -7.12496e-08 -5.01492e-36 -1.26742e-06 -5.16075e-36 0)
(2.49882e-06 -5.77812e-08 5.36441e-22 -1.25579e-06 6.81103e-22 0)
(2.4875e-06 -4.38535e-08 5.34011e-22 -1.25186e-06 6.84319e-22 0)
(2.48671e-06 -3.01206e-08 -6.08108e-36 -1.25766e-06 -5.65458e-36 0)
(2.49318e-06 -1.32632e-08 3.3955e-20 -1.27346e-06 -5.7e-36 -2.00304e-49)