/*--------------------------------*- C++ -*----------------------------------*\
  =========                 |
  \\      /  F ield         | OpenFOAM: The Open Source CFD Toolbox
   \\    /   O peration     | Website:  https://openfoam.org
    \\  /    A nd           | Version:  9
     \\/     M anipulation  |
\*---------------------------------------------------------------------------*/
FoamFile
{
    format      ascii;
    class       volScalarField;
    location    "5";
    object      epsilonEq;
}
// * * * * * * * * * * * * * * * * * * * * * * * * * * * * * * * * * * * * * //

dimensions      [0 0 0 0 0 0 0];

internalField   nonuniform List<scalar> 
1000
(
3.29886e-06
3.22601e-06
3.2905e-06
3.41734e-06
3.49209e-06
3.52739e-06
3.53149e-06
3.51118e-06
3.47861e-06
3.42e-06
3.97423e-06
3.63908e-06
3.61908e-06
3.66784e-06
3.69426e-06
3.69389e-06
3.67067e-06
3.62887e-06
3.57456e-06
3.50992e-06
4.71823e-06
4.05871e-06
3.89742e-06
3.8567e-06
3.82477e-06
3.7818e-06
3.72528e-06
3.65834e-06
3.58047e-06
3.50363e-06
5.53603e-06
4.52728e-06
4.14055e-06
3.9798e-06
3.87194e-06
3.7788e-06
3.68517e-06
3.5914e-06
3.49097e-06
3.40109e-06
6.36532e-06
5.05015e-06
4.39479e-06
4.06682e-06
3.85353e-06
3.69315e-06
3.5544e-06
3.4312e-06
3.31001e-06
3.20865e-06
7.15186e-06
5.61175e-06
4.67968e-06
4.14194e-06
3.78873e-06
3.54016e-06
3.34725e-06
3.19257e-06
3.05539e-06
2.94796e-06
7.80309e-06
6.14372e-06
4.96655e-06
4.20659e-06
3.69484e-06
3.34512e-06
3.09331e-06
2.90815e-06
2.76048e-06
2.65515e-06
8.31517e-06
6.58193e-06
5.1928e-06
4.23728e-06
3.5818e-06
3.14011e-06
2.83608e-06
2.62517e-06
2.47516e-06
2.36893e-06
8.47466e-06
6.67383e-06
5.19811e-06
4.17779e-06
3.47266e-06
2.98993e-06
2.65429e-06
2.4199e-06
2.25499e-06
2.13931e-06
8.4505e-06
6.21842e-06
4.91898e-06
4.04547e-06
3.43174e-06
2.98216e-06
2.64798e-06
2.39547e-06
2.20068e-06
2.04665e-06
5.67341e-08
8.39762e-08
1.07043e-07
1.75813e-07
2.91212e-07
4.30576e-07
5.75721e-07
7.20662e-07
8.56661e-07
9.84967e-07
4.57983e-08
1.28743e-07
2.85439e-07
4.73446e-07
6.55954e-07
8.22872e-07
9.68811e-07
1.09849e-06
1.20759e-06
1.30843e-06
1.18396e-07
3.34846e-07
5.63976e-07
8.00034e-07
1.0141e-06
1.19727e-06
1.34682e-06
1.4701e-06
1.56399e-06
1.64774e-06
2.70196e-07
6.1791e-07
8.94996e-07
1.15262e-06
1.37353e-06
1.55627e-06
1.69998e-06
1.81301e-06
1.89266e-06
1.96187e-06
5.1038e-07
9.49131e-07
1.25719e-06
1.52319e-06
1.73764e-06
1.90713e-06
2.035e-06
2.13107e-06
2.19356e-06
2.24662e-06
8.38271e-07
1.30812e-06
1.6275e-06
1.8905e-06
2.08482e-06
2.23199e-06
2.33844e-06
2.41337e-06
2.45709e-06
2.49236e-06
1.24e-06
1.67923e-06
1.98706e-06
2.23133e-06
2.40737e-06
2.53375e-06
2.61307e-06
2.65985e-06
2.68109e-06
2.69391e-06
1.69976e-06
2.05623e-06
2.3306e-06
2.56702e-06
2.70683e-06
2.80221e-06
2.86446e-06
2.89434e-06
2.89889e-06
2.89032e-06
2.2038e-06
2.43322e-06
2.66993e-06
2.86958e-06
2.99324e-06
3.06634e-06
3.10775e-06
3.12549e-06
3.11917e-06
3.1052e-06
2.73928e-06
2.81526e-06
2.98112e-06
3.14172e-06
3.24809e-06
3.31165e-06
3.33967e-06
3.34077e-06
3.32355e-06
3.28922e-06
1.10037e-06
1.19987e-06
1.29313e-06
1.37753e-06
1.45424e-06
1.52319e-06
1.58513e-06
1.64039e-06
1.68957e-06
1.73305e-06
1.77126e-06
1.80452e-06
1.8331e-06
1.85723e-06
1.87702e-06
1.89265e-06
1.90408e-06
1.9116e-06
1.91487e-06
1.91432e-06
1.38318e-06
1.43524e-06
1.48785e-06
1.5364e-06
1.58262e-06
1.62569e-06
1.66594e-06
1.70309e-06
1.7373e-06
1.76849e-06
1.79676e-06
1.82212e-06
1.84465e-06
1.86439e-06
1.88132e-06
1.89548e-06
1.90655e-06
1.91446e-06
1.91777e-06
1.91599e-06
1.69125e-06
1.70468e-06
1.72086e-06
1.73527e-06
1.75084e-06
1.76657e-06
1.78301e-06
1.79956e-06
1.81623e-06
1.83262e-06
1.84861e-06
1.86395e-06
1.87849e-06
1.89206e-06
1.90443e-06
1.91536e-06
1.92417e-06
1.93038e-06
1.93155e-06
1.92761e-06
1.98075e-06
1.96472e-06
1.95238e-06
1.93936e-06
1.92935e-06
1.92131e-06
1.91628e-06
1.91355e-06
1.91325e-06
1.91485e-06
1.91813e-06
1.92271e-06
1.92828e-06
1.93449e-06
1.94091e-06
1.94712e-06
1.95221e-06
1.95558e-06
1.95475e-06
1.95031e-06
2.24424e-06
2.20532e-06
2.16997e-06
2.13499e-06
2.10422e-06
2.07636e-06
2.05299e-06
2.0333e-06
2.01761e-06
2.00538e-06
1.99643e-06
1.9903e-06
1.98664e-06
1.98501e-06
1.98491e-06
1.98579e-06
1.98676e-06
1.98724e-06
1.98517e-06
1.98149e-06
2.47247e-06
2.41691e-06
2.36479e-06
2.31285e-06
2.26599e-06
2.22238e-06
2.1842e-06
2.15042e-06
2.12159e-06
2.09719e-06
2.07712e-06
2.06097e-06
2.04843e-06
2.03905e-06
2.03237e-06
2.02787e-06
2.02485e-06
2.02281e-06
2.02041e-06
2.01857e-06
2.65803e-06
2.59228e-06
2.53009e-06
2.46785e-06
2.41002e-06
2.35463e-06
2.305e-06
2.25991e-06
2.22017e-06
2.18536e-06
2.15552e-06
2.13035e-06
2.10961e-06
2.09297e-06
2.08008e-06
2.07052e-06
2.0639e-06
2.05981e-06
2.05781e-06
2.05849e-06
2.82142e-06
2.72966e-06
2.66095e-06
2.59522e-06
2.53185e-06
2.46986e-06
2.41255e-06
2.35939e-06
2.31109e-06
2.26775e-06
2.22949e-06
2.19627e-06
2.16805e-06
2.14464e-06
2.12592e-06
2.11162e-06
2.10175e-06
2.09599e-06
2.09485e-06
2.09842e-06
3.01763e-06
2.88232e-06
2.77708e-06
2.69815e-06
2.6336e-06
2.56632e-06
2.50426e-06
2.44545e-06
2.39086e-06
2.34079e-06
2.29568e-06
2.25568e-06
2.221e-06
2.19166e-06
2.16778e-06
2.14927e-06
2.13658e-06
2.12947e-06
2.1294e-06
2.13583e-06
3.20013e-06
3.04847e-06
2.91912e-06
2.80285e-06
2.72139e-06
2.65444e-06
2.58786e-06
2.52503e-06
2.4652e-06
2.40923e-06
2.35778e-06
2.31128e-06
2.27026e-06
2.23496e-06
2.20582e-06
2.18298e-06
2.16726e-06
2.15861e-06
2.15936e-06
2.16844e-06
3.32359e-06
3.16408e-06
3.02869e-06
2.89433e-06
2.78219e-06
2.70862e-06
2.64344e-06
2.57777e-06
2.51594e-06
2.4568e-06
2.40194e-06
2.35166e-06
2.3068e-06
2.26778e-06
2.23528e-06
2.20962e-06
2.19194e-06
2.18228e-06
2.18359e-06
2.19436e-06
3.27089e-06
3.16567e-06
3.03913e-06
2.90885e-06
2.79691e-06
2.72349e-06
2.66067e-06
2.59571e-06
2.53473e-06
2.47579e-06
2.42088e-06
2.37024e-06
2.32483e-06
2.28517e-06
2.25202e-06
2.22587e-06
2.20798e-06
2.19844e-06
2.20057e-06
2.2124e-06
3.21448e-06
3.12988e-06
3.02128e-06
2.90388e-06
2.80307e-06
2.73375e-06
2.67165e-06
2.60767e-06
2.54698e-06
2.48819e-06
2.43326e-06
2.38245e-06
2.33679e-06
2.2968e-06
2.26333e-06
2.23694e-06
2.2189e-06
2.20935e-06
2.21171e-06
2.2235e-06
3.13295e-06
3.0712e-06
2.9784e-06
2.87915e-06
2.79823e-06
2.73497e-06
2.67224e-06
2.6095e-06
2.54902e-06
2.49087e-06
2.43644e-06
2.38618e-06
2.34096e-06
2.30136e-06
2.26814e-06
2.24198e-06
2.22388e-06
2.2143e-06
2.21653e-06
2.22763e-06
3.03039e-06
2.98784e-06
2.91363e-06
2.83984e-06
2.78118e-06
2.7228e-06
2.65992e-06
2.59907e-06
2.53966e-06
2.48311e-06
2.4301e-06
2.38125e-06
2.33727e-06
2.29874e-06
2.26629e-06
2.24075e-06
2.22251e-06
2.21363e-06
2.21274e-06
2.22456e-06
2.9084e-06
2.88357e-06
2.84305e-06
2.79864e-06
2.74845e-06
2.6913e-06
2.63269e-06
2.57478e-06
2.51847e-06
2.46476e-06
2.41436e-06
2.36791e-06
2.32604e-06
2.28929e-06
2.25834e-06
2.23366e-06
2.21633e-06
2.20665e-06
2.20645e-06
2.2137e-06
2.78562e-06
2.7819e-06
2.76463e-06
2.72992e-06
2.68934e-06
2.63982e-06
2.58868e-06
2.53652e-06
2.48529e-06
2.43593e-06
2.38939e-06
2.34633e-06
2.30741e-06
2.27318e-06
2.2442e-06
2.22094e-06
2.2042e-06
2.19401e-06
2.19239e-06
2.19718e-06
2.66441e-06
2.6733e-06
2.66817e-06
2.64426e-06
2.61409e-06
2.57428e-06
2.53158e-06
2.48648e-06
2.44149e-06
2.39756e-06
2.35584e-06
2.31704e-06
2.28185e-06
2.25077e-06
2.22431e-06
2.20284e-06
2.18688e-06
2.17658e-06
2.17314e-06
2.17493e-06
2.54181e-06
2.56016e-06
2.56378e-06
2.54951e-06
2.52859e-06
2.49793e-06
2.46372e-06
2.42627e-06
2.38824e-06
2.35054e-06
2.31443e-06
2.28064e-06
2.24985e-06
2.22254e-06
2.19912e-06
2.17986e-06
2.16505e-06
2.15472e-06
2.1496e-06
2.14826e-06
2.41974e-06
2.44386e-06
2.45409e-06
2.4479e-06
2.43516e-06
2.41321e-06
2.3873e-06
2.35773e-06
2.32704e-06
2.29609e-06
2.26616e-06
2.23796e-06
2.21214e-06
2.18915e-06
2.16925e-06
2.15266e-06
2.13935e-06
2.12935e-06
2.12264e-06
2.11818e-06
2.29756e-06
2.32523e-06
2.3407e-06
2.34151e-06
2.33607e-06
2.32216e-06
2.3042e-06
2.28249e-06
2.25931e-06
2.23545e-06
2.21212e-06
2.18996e-06
2.1696e-06
2.15138e-06
2.13547e-06
2.12198e-06
2.11061e-06
2.10131e-06
2.09336e-06
2.08608e-06
2.17438e-06
2.20438e-06
2.22426e-06
2.23121e-06
2.23247e-06
2.22614e-06
2.21591e-06
2.20205e-06
2.1865e-06
2.16998e-06
2.15356e-06
2.13781e-06
2.12326e-06
2.11021e-06
2.09869e-06
2.08872e-06
2.07975e-06
2.07162e-06
2.06293e-06
2.05334e-06
2.04903e-06
2.08094e-06
2.10486e-06
2.1176e-06
2.12531e-06
2.12639e-06
2.12385e-06
2.11788e-06
2.11012e-06
2.10115e-06
2.0919e-06
2.08284e-06
2.07441e-06
2.06682e-06
2.06002e-06
2.05394e-06
2.04779e-06
2.04134e-06
2.03257e-06
2.02142e-06
1.92031e-06
1.95443e-06
1.98252e-06
2.00115e-06
2.01548e-06
2.02411e-06
2.02944e-06
2.03159e-06
2.03184e-06
2.03067e-06
2.02882e-06
2.02667e-06
2.02455e-06
2.02263e-06
2.02077e-06
2.01882e-06
2.01589e-06
2.01161e-06
2.00351e-06
1.99173e-06
1.78702e-06
1.82429e-06
1.85726e-06
1.88242e-06
1.90395e-06
1.92066e-06
1.93432e-06
1.94498e-06
1.9536e-06
1.96051e-06
1.96629e-06
1.9712e-06
1.97551e-06
1.97932e-06
1.98247e-06
1.98477e-06
1.98529e-06
1.98361e-06
1.97696e-06
1.96561e-06
1.64892e-06
1.69092e-06
1.72997e-06
1.76278e-06
1.7925e-06
1.81807e-06
1.84075e-06
1.86045e-06
1.87785e-06
1.89314e-06
1.9067e-06
1.91875e-06
1.92946e-06
1.9389e-06
1.94693e-06
1.95338e-06
1.95739e-06
1.9585e-06
1.95402e-06
1.94417e-06
1.50577e-06
1.55476e-06
1.60179e-06
1.6439e-06
1.68321e-06
1.7188e-06
1.75139e-06
1.78082e-06
1.80747e-06
1.83141e-06
1.8529e-06
1.87204e-06
1.88897e-06
1.90375e-06
1.91629e-06
1.92649e-06
1.9337e-06
1.93753e-06
1.9357e-06
1.92834e-06
1.36146e-06
1.42016e-06
1.47731e-06
1.5305e-06
1.58082e-06
1.62745e-06
1.6707e-06
1.7103e-06
1.74642e-06
1.77904e-06
1.80829e-06
1.83423e-06
1.85695e-06
1.87653e-06
1.89295e-06
1.90621e-06
1.91595e-06
1.92196e-06
1.92274e-06
1.91841e-06
1.21834e-06
1.29011e-06
1.36013e-06
1.42652e-06
1.48944e-06
1.54822e-06
1.60285e-06
1.65301e-06
1.69874e-06
1.73996e-06
1.77671e-06
1.80903e-06
1.83698e-06
1.86064e-06
1.88005e-06
1.89531e-06
1.90635e-06
1.91334e-06
1.91584e-06
1.9144e-06
1.09636e-06
1.18299e-06
1.26681e-06
1.34647e-06
1.42175e-06
1.49199e-06
1.5571e-06
1.61674e-06
1.6709e-06
1.71949e-06
1.76253e-06
1.80005e-06
1.83209e-06
1.8587e-06
1.87995e-06
1.89598e-06
1.90687e-06
1.91316e-06
1.91517e-06
1.91453e-06
1.92713e-06
2.03761e-06
2.25996e-06
2.52408e-06
2.79884e-06
3.05435e-06
3.25602e-06
3.3786e-06
3.41524e-06
3.35923e-06
1.82089e-06
1.93342e-06
2.14142e-06
2.38276e-06
2.64418e-06
2.89684e-06
3.11277e-06
3.26764e-06
3.34893e-06
3.32917e-06
1.72666e-06
1.83854e-06
2.03253e-06
2.25217e-06
2.49128e-06
2.72817e-06
2.94276e-06
3.11408e-06
3.23392e-06
3.26225e-06
1.6396e-06
1.75051e-06
1.93199e-06
2.1354e-06
2.35324e-06
2.57354e-06
2.78104e-06
2.95789e-06
3.09806e-06
3.15997e-06
1.55639e-06
1.66651e-06
1.83785e-06
2.02597e-06
2.22794e-06
2.42835e-06
2.62601e-06
2.8006e-06
2.95152e-06
3.03944e-06
1.4761e-06
1.58628e-06
1.74963e-06
1.92574e-06
2.11309e-06
2.29867e-06
2.47879e-06
2.64589e-06
2.79619e-06
2.89589e-06
1.39723e-06
1.50814e-06
1.66558e-06
1.8317e-06
2.00731e-06
2.17999e-06
2.34707e-06
2.50121e-06
2.64091e-06
2.75714e-06
1.31919e-06
1.43153e-06
1.58469e-06
1.74289e-06
1.90852e-06
2.07101e-06
2.22733e-06
2.37432e-06
2.50347e-06
2.62312e-06
1.2412e-06
1.3555e-06
1.50568e-06
1.65737e-06
1.81446e-06
1.96783e-06
2.11444e-06
2.25435e-06
2.3754e-06
2.49321e-06
1.16275e-06
1.27944e-06
1.42755e-06
1.5738e-06
1.72339e-06
1.86859e-06
2.00642e-06
2.13912e-06
2.2529e-06
2.36595e-06
1.08331e-06
1.20263e-06
1.34923e-06
1.49063e-06
1.63336e-06
1.77085e-06
1.90063e-06
2.02607e-06
2.13355e-06
2.24096e-06
1.00246e-06
1.12447e-06
1.26972e-06
1.40645e-06
1.54259e-06
1.67259e-06
1.79476e-06
1.91297e-06
2.01466e-06
2.1165e-06
9.19807e-07
1.04426e-06
1.18783e-06
1.3196e-06
1.44903e-06
1.57156e-06
1.68645e-06
1.79763e-06
1.89405e-06
1.99062e-06
8.3519e-07
9.61472e-07
1.10243e-06
1.22843e-06
1.35065e-06
1.46554e-06
1.57339e-06
1.67789e-06
1.7696e-06
1.86147e-06
7.48508e-07
8.75076e-07
1.01153e-06
1.13036e-06
1.24459e-06
1.35169e-06
1.45284e-06
1.5513e-06
1.63913e-06
1.72719e-06
6.60432e-07
7.84765e-07
9.13708e-07
1.02336e-06
1.12857e-06
1.22784e-06
1.32289e-06
1.41628e-06
1.50143e-06
1.58688e-06
5.72041e-07
6.87928e-07
8.03947e-07
9.01965e-07
9.97513e-07
1.08969e-06
1.18006e-06
1.27021e-06
1.35467e-06
1.43948e-06
4.86535e-07
5.84578e-07
6.81061e-07
7.65275e-07
8.51281e-07
9.38036e-07
1.02603e-06
1.11549e-06
1.20184e-06
1.28844e-06
4.07981e-07
4.62237e-07
5.28645e-07
5.99433e-07
6.79829e-07
7.66143e-07
8.5666e-07
9.50063e-07
1.04258e-06
1.135e-06
3.21633e-07
3.15761e-07
3.5592e-07
4.20742e-07
5.02913e-07
5.95207e-07
6.93706e-07
7.95878e-07
8.98458e-07
1.00047e-06
)
;

boundaryField
{
    left
    {
        type            calculated;
        value           nonuniform List<scalar> 
30
(
1.88801e-06
1.78118e-06
1.68781e-06
1.60146e-06
1.51898e-06
1.43923e-06
1.36082e-06
1.28314e-06
1.20546e-06
1.12734e-06
1.04832e-06
9.68104e-07
8.86491e-07
8.03583e-07
7.19834e-07
6.36626e-07
5.57301e-07
4.8747e-07
4.42774e-07
4.03957e-07
8.71248e-06
6.00813e-06
4.78156e-06
3.99314e-06
3.42744e-06
2.99496e-06
2.66173e-06
2.40058e-06
2.19384e-06
2.01209e-06
)
;
    }
    right
    {
        type            calculated;
        value           nonuniform List<scalar> 
30
(
1.91405e-06
1.91627e-06
1.92833e-06
1.95158e-06
1.98323e-06
2.02069e-06
2.06086e-06
2.10093e-06
2.13834e-06
2.1709e-06
2.19646e-06
2.21416e-06
2.22473e-06
2.22835e-06
2.22417e-06
2.21313e-06
2.19612e-06
2.17332e-06
2.14614e-06
2.11562e-06
2.0832e-06
2.05029e-06
2.01835e-06
1.98882e-06
1.96303e-06
1.9421e-06
1.9269e-06
1.91764e-06
1.9142e-06
1.91433e-06
)
;
    }
    down
    {
        type            calculated;
        value           nonuniform List<scalar> 
30
(
7.61142e-08
8.74671e-08
6.21427e-08
8.69715e-08
2.07774e-07
3.56884e-07
5.11232e-07
6.64714e-07
8.08237e-07
9.43118e-07
1.06503e-06
1.17169e-06
1.2705e-06
1.35919e-06
1.4394e-06
1.51113e-06
1.57533e-06
1.63243e-06
1.68311e-06
1.72782e-06
1.76705e-06
1.80115e-06
1.83043e-06
1.85514e-06
1.8754e-06
1.89142e-06
1.90315e-06
1.91094e-06
1.91452e-06
1.91467e-06
)
;
    }
    up
    {
        type            calculated;
        value           nonuniform List<scalar> 
30
(
3.17426e-07
3.13577e-07
3.54875e-07
4.19561e-07
5.01492e-07
5.93637e-07
6.92098e-07
7.94384e-07
8.96982e-07
9.99432e-07
1.09538e-06
1.1824e-06
1.26662e-06
1.34657e-06
1.42215e-06
1.49261e-06
1.55791e-06
1.61769e-06
1.67195e-06
1.72059e-06
1.76365e-06
1.80113e-06
1.83309e-06
1.8596e-06
1.88068e-06
1.89651e-06
1.90719e-06
1.91329e-06
1.91518e-06
1.91475e-06
)
;
    }
    hole
    {
        type            calculated;
        value           nonuniform List<scalar> 
20
(
3.59893e-06
4.33562e-06
4.92578e-06
5.67191e-06
6.51975e-06
7.34251e-06
8.0176e-06
8.54391e-06
8.72153e-06
8.80456e-06
6.68901e-08
5.71497e-08
7.53252e-08
2.14953e-07
4.81241e-07
8.60513e-07
1.32852e-06
1.85886e-06
2.42583e-06
3.00835e-06
)
;
    }
    frontAndBack
    {
        type            empty;
    }
}


// ************************************************************************* //
