/*--------------------------------*- C++ -*----------------------------------*\
  =========                 |
  \\      /  F ield         | OpenFOAM: The Open Source CFD Toolbox
   \\    /   O peration     | Website:  https://openfoam.org
    \\  /    A nd           | Version:  9
     \\/     M anipulation  |
\*---------------------------------------------------------------------------*/
FoamFile
{
    format      ascii;
    class       pointVectorField;
    location    "5";
    object      pointD;
}
// * * * * * * * * * * * * * * * * * * * * * * * * * * * * * * * * * * * * * //

dimensions      [0 1 0 0 0 0 0];

internalField   nonuniform List<vector> 
2142
(
(4.58348e-06 1.26477e-06 -3.53214e-20)
(4.21743e-06 1.51455e-06 0)
(3.97156e-06 1.68283e-06 0)
(3.79336e-06 1.81838e-06 0)
(3.66321e-06 1.93077e-06 0)
(3.56681e-06 2.028e-06 0)
(3.49523e-06 2.11426e-06 0)
(3.44251e-06 2.19252e-06 0)
(3.40421e-06 2.2648e-06 0)
(3.37718e-06 2.33257e-06 0)
(3.35686e-06 2.40669e-06 0)
(4.23958e-06 1.12251e-06 -4.3708e-20)
(3.84268e-06 1.33875e-06 0)
(3.58302e-06 1.48386e-06 0)
(3.39456e-06 1.6006e-06 0)
(3.25522e-06 1.69683e-06 0)
(3.15086e-06 1.77959e-06 0)
(3.07219e-06 1.85256e-06 0)
(3.01313e-06 1.91846e-06 0)
(2.969e-06 1.97904e-06 0)
(2.93673e-06 2.03584e-06 0)
(2.85771e-06 2.04892e-06 0)
(3.85401e-06 9.7969e-07 -4.8614e-20)
(3.45356e-06 1.15127e-06 0)
(3.18712e-06 1.27249e-06 0)
(2.99152e-06 1.37014e-06 0)
(2.84545e-06 1.45057e-06 0)
(2.73498e-06 1.51941e-06 0)
(2.65091e-06 1.57973e-06 0)
(2.58709e-06 1.6339e-06 0)
(2.53872e-06 1.68332e-06 0)
(2.50255e-06 1.72959e-06 0)
(2.4282e-06 1.73655e-06 0)
(3.41822e-06 8.47022e-07 -4.72551e-20)
(3.05073e-06 9.61312e-07 0)
(2.78741e-06 1.05457e-06 0)
(2.58915e-06 1.13265e-06 0)
(2.43958e-06 1.19767e-06 0)
(2.32572e-06 1.25344e-06 0)
(2.23879e-06 1.30219e-06 0)
(2.17257e-06 1.34581e-06 0)
(2.12228e-06 1.38532e-06 0)
(2.08447e-06 1.4222e-06 0)
(2.01757e-06 1.42523e-06 0)
(2.95673e-06 7.25321e-07 -4.21876e-20)
(2.63739e-06 7.79403e-07 0)
(2.38729e-06 8.39604e-07 0)
(2.19256e-06 8.96506e-07 0)
(2.0438e-06 9.46036e-07 0)
(1.93022e-06 9.89603e-07 0)
(1.84367e-06 1.02809e-06 0)
(1.77805e-06 1.06268e-06 0)
(1.72864e-06 1.0939e-06 0)
(1.69182e-06 1.12296e-06 0)
(1.63471e-06 1.12425e-06 0)
(2.48166e-06 6.13633e-07 -3.53006e-20)
(2.21408e-06 6.11792e-07 0)
(1.98713e-06 6.36331e-07 0)
(1.80408e-06 6.70477e-07 0)
(1.66241e-06 7.04495e-07 0)
(1.55423e-06 7.36855e-07 0)
(1.4723e-06 7.66641e-07 0)
(1.41085e-06 7.94016e-07 0)
(1.36536e-06 8.18873e-07 0)
(1.33218e-06 8.41923e-07 0)
(1.28654e-06 8.43427e-07 0)
(1.99584e-06 5.12189e-07 -2.73758e-20)
(1.77983e-06 4.62412e-07 0)
(1.58513e-06 4.52223e-07 0)
(1.42376e-06 4.63484e-07 0)
(1.29767e-06 4.82603e-07 0)
(1.20159e-06 5.05034e-07 0)
(1.12945e-06 5.27792e-07 0)
(1.07604e-06 5.49762e-07 0)
(1.03733e-06 5.7005e-07 0)
(1.00988e-06 5.88756e-07 0)
(9.76299e-07 5.91741e-07 0)
(1.50418e-06 4.20176e-07 -1.90895e-20)
(1.33587e-06 3.33026e-07 0)
(1.18041e-06 2.93376e-07 0)
(1.05124e-06 2.84621e-07 0)
(9.5032e-07 2.90927e-07 0)
(8.73775e-07 3.05135e-07 0)
(8.16671e-07 3.2234e-07 0)
(7.74763e-07 3.40178e-07 0)
(7.4483e-07 3.57011e-07 0)
(7.24124e-07 3.72277e-07 0)
(7.01258e-07 3.76923e-07 0)
(1.01109e-06 3.3274e-07 -1.09954e-20)
(8.83079e-07 2.22023e-07 0)
(7.73349e-07 1.64113e-07 0)
(6.8664e-07 1.42754e-07 0)
(6.19845e-07 1.40315e-07 0)
(5.69344e-07 1.48157e-07 0)
(5.31431e-07 1.60401e-07 0)
(5.03319e-07 1.74071e-07 0)
(4.82917e-07 1.87178e-07 0)
(4.68708e-07 1.9879e-07 0)
(4.53675e-07 2.04158e-07 0)
(5.45096e-07 2.3854e-07 -3.55967e-21)
(4.34502e-07 1.24396e-07 0)
(3.75082e-07 7.06448e-08 0)
(3.35122e-07 4.97463e-08 0)
(3.05037e-07 4.47083e-08 0)
(2.82027e-07 4.78152e-08 0)
(2.64188e-07 5.44203e-08 0)
(2.50417e-07 6.22221e-08 0)
(2.39858e-07 6.97139e-08 0)
(2.31825e-07 7.61379e-08 0)
(2.23382e-07 7.98251e-08 0)
(1.63047e-07 9.40382e-08 -3.28344e-23)
(0 0 0)
(0 0 0)
(0 0 0)
(0 0 0)
(0 0 0)
(0 0 0)
(0 0 0)
(0 0 0)
(0 0 0)
(0 0 0)
(4.58348e-06 1.26477e-06 -3.53214e-20)
(4.21743e-06 1.51455e-06 0)
(3.97156e-06 1.68283e-06 0)
(3.79336e-06 1.81838e-06 0)
(3.66321e-06 1.93077e-06 0)
(3.56681e-06 2.028e-06 0)
(3.49523e-06 2.11426e-06 0)
(3.44251e-06 2.19252e-06 0)
(3.40421e-06 2.2648e-06 0)
(3.37718e-06 2.33257e-06 0)
(3.35686e-06 2.40669e-06 0)
(4.23958e-06 1.12251e-06 -4.3708e-20)
(3.84268e-06 1.33875e-06 0)
(3.58302e-06 1.48386e-06 0)
(3.39456e-06 1.6006e-06 0)
(3.25522e-06 1.69683e-06 0)
(3.15086e-06 1.77959e-06 0)
(3.07219e-06 1.85256e-06 0)
(3.01313e-06 1.91846e-06 0)
(2.969e-06 1.97904e-06 0)
(2.93673e-06 2.03584e-06 0)
(2.85771e-06 2.04892e-06 0)
(3.85401e-06 9.7969e-07 -4.8614e-20)
(3.45356e-06 1.15127e-06 0)
(3.18712e-06 1.27249e-06 0)
(2.99152e-06 1.37014e-06 0)
(2.84545e-06 1.45057e-06 0)
(2.73498e-06 1.51941e-06 0)
(2.65091e-06 1.57973e-06 0)
(2.58709e-06 1.6339e-06 0)
(2.53872e-06 1.68332e-06 0)
(2.50255e-06 1.72959e-06 0)
(2.4282e-06 1.73655e-06 0)
(3.41822e-06 8.47022e-07 -4.72551e-20)
(3.05073e-06 9.61312e-07 0)
(2.78741e-06 1.05457e-06 0)
(2.58915e-06 1.13265e-06 0)
(2.43958e-06 1.19767e-06 0)
(2.32572e-06 1.25344e-06 0)
(2.23879e-06 1.30219e-06 0)
(2.17257e-06 1.34581e-06 0)
(2.12228e-06 1.38532e-06 0)
(2.08447e-06 1.4222e-06 0)
(2.01757e-06 1.42523e-06 0)
(2.95673e-06 7.25321e-07 -4.21876e-20)
(2.63739e-06 7.79403e-07 0)
(2.38729e-06 8.39604e-07 0)
(2.19256e-06 8.96506e-07 0)
(2.0438e-06 9.46036e-07 0)
(1.93022e-06 9.89603e-07 0)
(1.84367e-06 1.02809e-06 0)
(1.77805e-06 1.06268e-06 0)
(1.72864e-06 1.0939e-06 0)
(1.69182e-06 1.12296e-06 0)
(1.63471e-06 1.12425e-06 0)
(2.48166e-06 6.13633e-07 -3.53006e-20)
(2.21408e-06 6.11792e-07 0)
(1.98713e-06 6.36331e-07 0)
(1.80408e-06 6.70477e-07 0)
(1.66241e-06 7.04495e-07 0)
(1.55423e-06 7.36855e-07 0)
(1.4723e-06 7.66641e-07 0)
(1.41085e-06 7.94016e-07 0)
(1.36536e-06 8.18873e-07 0)
(1.33218e-06 8.41923e-07 0)
(1.28654e-06 8.43427e-07 0)
(1.99584e-06 5.12189e-07 -2.73758e-20)
(1.77983e-06 4.62412e-07 0)
(1.58513e-06 4.52223e-07 0)
(1.42376e-06 4.63484e-07 0)
(1.29767e-06 4.82603e-07 0)
(1.20159e-06 5.05034e-07 0)
(1.12945e-06 5.27792e-07 0)
(1.07604e-06 5.49762e-07 0)
(1.03733e-06 5.7005e-07 0)
(1.00988e-06 5.88756e-07 0)
(9.76299e-07 5.91741e-07 0)
(1.50418e-06 4.20176e-07 -1.90895e-20)
(1.33587e-06 3.33026e-07 0)
(1.18041e-06 2.93376e-07 0)
(1.05124e-06 2.84621e-07 0)
(9.5032e-07 2.90927e-07 0)
(8.73775e-07 3.05135e-07 0)
(8.16671e-07 3.2234e-07 0)
(7.74763e-07 3.40178e-07 0)
(7.4483e-07 3.57011e-07 0)
(7.24124e-07 3.72277e-07 0)
(7.01258e-07 3.76923e-07 0)
(1.01109e-06 3.3274e-07 -1.09954e-20)
(8.83079e-07 2.22023e-07 0)
(7.73349e-07 1.64113e-07 0)
(6.8664e-07 1.42754e-07 0)
(6.19845e-07 1.40315e-07 0)
(5.69344e-07 1.48157e-07 0)
(5.31431e-07 1.60401e-07 0)
(5.03319e-07 1.74071e-07 0)
(4.82917e-07 1.87178e-07 0)
(4.68708e-07 1.9879e-07 0)
(4.53675e-07 2.04158e-07 0)
(5.45096e-07 2.3854e-07 -3.55967e-21)
(4.34502e-07 1.24396e-07 0)
(3.75082e-07 7.06448e-08 0)
(3.35122e-07 4.97463e-08 0)
(3.05037e-07 4.47083e-08 0)
(2.82027e-07 4.78152e-08 0)
(2.64188e-07 5.44203e-08 0)
(2.50417e-07 6.22221e-08 0)
(2.39858e-07 6.97139e-08 0)
(2.31825e-07 7.61379e-08 0)
(2.23382e-07 7.98251e-08 0)
(1.63047e-07 9.40382e-08 -3.28344e-23)
(0 0 0)
(0 0 0)
(0 0 0)
(0 0 0)
(0 0 0)
(0 0 0)
(0 0 0)
(0 0 0)
(0 0 0)
(0 0 0)
(7.10054e-06 2.17778e-06 -2.27606e-21)
(7.15061e-06 2.37803e-06 -1.46958e-21)
(7.14244e-06 2.63966e-06 -1.6062e-21)
(7.13236e-06 2.88731e-06 -1.7471e-21)
(7.1265e-06 3.1178e-06 -1.89082e-21)
(7.12821e-06 3.33142e-06 -2.03614e-21)
(7.13951e-06 3.53003e-06 -2.18226e-21)
(7.16099e-06 3.71599e-06 -2.32865e-21)
(7.19278e-06 3.8916e-06 -2.47494e-21)
(7.23418e-06 4.05911e-06 -2.62101e-21)
(7.28472e-06 4.21969e-06 -2.7291e-21)
(6.94394e-06 2.10255e-06 -3.2215e-21)
(6.92018e-06 2.3704e-06 0)
(6.89689e-06 2.63135e-06 0)
(6.87814e-06 2.87665e-06 0)
(6.86753e-06 3.10338e-06 0)
(6.86655e-06 3.3122e-06 0)
(6.8759e-06 3.50523e-06 0)
(6.89535e-06 3.68509e-06 0)
(6.92453e-06 3.85425e-06 0)
(6.96253e-06 4.01514e-06 0)
(7.01284e-06 4.16987e-06 0)
(6.73338e-06 2.07261e-06 -3.34012e-21)
(6.68672e-06 2.34447e-06 0)
(6.64306e-06 2.60405e-06 0)
(6.60802e-06 2.84518e-06 0)
(6.58495e-06 3.06605e-06 0)
(6.57442e-06 3.26812e-06 0)
(6.57613e-06 3.45396e-06 0)
(6.58903e-06 3.62644e-06 0)
(6.61218e-06 3.78817e-06 0)
(6.64415e-06 3.9417e-06 0)
(6.69343e-06 4.09072e-06 0)
(6.51561e-06 2.02002e-06 -3.5423e-21)
(6.44076e-06 2.30065e-06 0)
(6.37281e-06 2.55837e-06 0)
(6.31788e-06 2.79339e-06 0)
(6.27912e-06 3.00589e-06 0)
(6.25614e-06 3.19879e-06 0)
(6.24766e-06 3.37531e-06 0)
(6.25184e-06 3.53864e-06 0)
(6.26714e-06 3.6915e-06 0)
(6.29159e-06 3.83651e-06 0)
(6.33944e-06 3.97979e-06 0)
(6.28647e-06 1.94836e-06 -4.19768e-21)
(6.17731e-06 2.23951e-06 0)
(6.08233e-06 2.49414e-06 0)
(6.00591e-06 2.7211e-06 0)
(5.95037e-06 2.9231e-06 0)
(5.91395e-06 3.10483e-06 0)
(5.89434e-06 3.27026e-06 0)
(5.88888e-06 3.4229e-06 0)
(5.89548e-06 3.56558e-06 0)
(5.91166e-06 3.70092e-06 0)
(5.95796e-06 3.83832e-06 0)
(6.04334e-06 1.86058e-06 -5.78479e-21)
(5.89412e-06 2.16103e-06 0)
(5.77052e-06 2.41027e-06 0)
(5.67259e-06 2.62689e-06 0)
(5.60066e-06 2.81642e-06 0)
(5.5512e-06 2.98534e-06 0)
(5.52075e-06 3.13832e-06 0)
(5.50584e-06 3.27907e-06 0)
(5.50379e-06 3.41053e-06 0)
(5.51167e-06 3.53525e-06 0)
(5.55656e-06 3.66673e-06 0)
(5.78474e-06 1.75951e-06 -8.75006e-21)
(5.59107e-06 2.06531e-06 0)
(5.43857e-06 2.30591e-06 0)
(5.32022e-06 2.50988e-06 0)
(5.23334e-06 2.68535e-06 0)
(5.1723e-06 2.84033e-06 0)
(5.13222e-06 2.97999e-06 0)
(5.10875e-06 3.1082e-06 0)
(5.09859e-06 3.22787e-06 0)
(5.09848e-06 3.34141e-06 0)
(5.14208e-06 3.46707e-06 0)
(5.50992e-06 1.64757e-06 -1.33685e-20)
(5.26959e-06 1.95239e-06 0)
(5.08934e-06 2.18054e-06 0)
(4.95286e-06 2.36957e-06 0)
(4.85328e-06 2.52964e-06 0)
(4.78215e-06 2.66995e-06 0)
(4.73364e-06 2.796e-06 0)
(4.70285e-06 2.91162e-06 0)
(4.68563e-06 3.0195e-06 0)
(4.67843e-06 3.12181e-06 0)
(4.72136e-06 3.24201e-06 0)
(5.2183e-06 1.5268e-06 -1.96365e-20)
(4.93178e-06 1.82248e-06 0)
(4.72634e-06 2.03404e-06 0)
(4.57401e-06 2.20595e-06 0)
(4.46344e-06 2.34997e-06 0)
(4.38404e-06 2.47579e-06 0)
(4.32812e-06 2.58855e-06 0)
(4.29032e-06 2.69182e-06 0)
(4.26617e-06 2.78801e-06 0)
(4.25219e-06 2.87909e-06 0)
(4.29559e-06 2.99426e-06 0)
(4.90941e-06 1.399e-06 -2.71953e-20)
(4.58028e-06 1.6761e-06 0)
(4.35275e-06 1.86721e-06 0)
(4.1866e-06 2.021e-06 0)
(4.06615e-06 2.14924e-06 0)
(3.97868e-06 2.26088e-06 0)
(3.91517e-06 2.3605e-06 0)
(3.86979e-06 2.45132e-06 0)
(3.8383e-06 2.53555e-06 0)
(3.8174e-06 2.61489e-06 0)
(3.86186e-06 2.72515e-06 0)
(7.10054e-06 2.17778e-06 -2.27606e-21)
(7.15061e-06 2.37803e-06 -1.46958e-21)
(7.14244e-06 2.63966e-06 -1.6062e-21)
(7.13236e-06 2.88731e-06 -1.7471e-21)
(7.1265e-06 3.1178e-06 -1.89082e-21)
(7.12821e-06 3.33142e-06 -2.03614e-21)
(7.13951e-06 3.53003e-06 -2.18226e-21)
(7.16099e-06 3.71599e-06 -2.32865e-21)
(7.19278e-06 3.8916e-06 -2.47494e-21)
(7.23418e-06 4.05911e-06 -2.62101e-21)
(7.28472e-06 4.21969e-06 -2.7291e-21)
(6.94394e-06 2.10255e-06 -3.2215e-21)
(6.92018e-06 2.3704e-06 0)
(6.89689e-06 2.63135e-06 0)
(6.87814e-06 2.87665e-06 0)
(6.86753e-06 3.10338e-06 0)
(6.86655e-06 3.3122e-06 0)
(6.8759e-06 3.50523e-06 0)
(6.89535e-06 3.68509e-06 0)
(6.92453e-06 3.85425e-06 0)
(6.96253e-06 4.01514e-06 0)
(7.01284e-06 4.16987e-06 0)
(6.73338e-06 2.07261e-06 -3.34012e-21)
(6.68672e-06 2.34447e-06 0)
(6.64306e-06 2.60405e-06 0)
(6.60802e-06 2.84518e-06 0)
(6.58495e-06 3.06605e-06 0)
(6.57442e-06 3.26812e-06 0)
(6.57613e-06 3.45396e-06 0)
(6.58903e-06 3.62644e-06 0)
(6.61218e-06 3.78817e-06 0)
(6.64415e-06 3.9417e-06 0)
(6.69343e-06 4.09072e-06 0)
(6.51561e-06 2.02002e-06 -3.5423e-21)
(6.44076e-06 2.30065e-06 0)
(6.37281e-06 2.55837e-06 0)
(6.31788e-06 2.79339e-06 0)
(6.27912e-06 3.00589e-06 0)
(6.25614e-06 3.19879e-06 0)
(6.24766e-06 3.37531e-06 0)
(6.25184e-06 3.53864e-06 0)
(6.26714e-06 3.6915e-06 0)
(6.29159e-06 3.83651e-06 0)
(6.33944e-06 3.97979e-06 0)
(6.28647e-06 1.94836e-06 -4.19768e-21)
(6.17731e-06 2.23951e-06 0)
(6.08233e-06 2.49414e-06 0)
(6.00591e-06 2.7211e-06 0)
(5.95037e-06 2.9231e-06 0)
(5.91395e-06 3.10483e-06 0)
(5.89434e-06 3.27026e-06 0)
(5.88888e-06 3.4229e-06 0)
(5.89548e-06 3.56558e-06 0)
(5.91166e-06 3.70092e-06 0)
(5.95796e-06 3.83832e-06 0)
(6.04334e-06 1.86058e-06 -5.78479e-21)
(5.89412e-06 2.16103e-06 0)
(5.77052e-06 2.41027e-06 0)
(5.67259e-06 2.62689e-06 0)
(5.60066e-06 2.81642e-06 0)
(5.5512e-06 2.98534e-06 0)
(5.52075e-06 3.13832e-06 0)
(5.50584e-06 3.27907e-06 0)
(5.50379e-06 3.41053e-06 0)
(5.51167e-06 3.53525e-06 0)
(5.55656e-06 3.66673e-06 0)
(5.78474e-06 1.75951e-06 -8.75006e-21)
(5.59107e-06 2.06531e-06 0)
(5.43857e-06 2.30591e-06 0)
(5.32022e-06 2.50988e-06 0)
(5.23334e-06 2.68535e-06 0)
(5.1723e-06 2.84033e-06 0)
(5.13222e-06 2.97999e-06 0)
(5.10875e-06 3.1082e-06 0)
(5.09859e-06 3.22787e-06 0)
(5.09848e-06 3.34141e-06 0)
(5.14208e-06 3.46707e-06 0)
(5.50992e-06 1.64757e-06 -1.33685e-20)
(5.26959e-06 1.95239e-06 0)
(5.08934e-06 2.18054e-06 0)
(4.95286e-06 2.36957e-06 0)
(4.85328e-06 2.52964e-06 0)
(4.78215e-06 2.66995e-06 0)
(4.73364e-06 2.796e-06 0)
(4.70285e-06 2.91162e-06 0)
(4.68563e-06 3.0195e-06 0)
(4.67843e-06 3.12181e-06 0)
(4.72136e-06 3.24201e-06 0)
(5.2183e-06 1.5268e-06 -1.96365e-20)
(4.93178e-06 1.82248e-06 0)
(4.72634e-06 2.03404e-06 0)
(4.57401e-06 2.20595e-06 0)
(4.46344e-06 2.34997e-06 0)
(4.38404e-06 2.47579e-06 0)
(4.32812e-06 2.58855e-06 0)
(4.29032e-06 2.69182e-06 0)
(4.26617e-06 2.78801e-06 0)
(4.25219e-06 2.87909e-06 0)
(4.29559e-06 2.99426e-06 0)
(4.90941e-06 1.399e-06 -2.71953e-20)
(4.58028e-06 1.6761e-06 0)
(4.35275e-06 1.86721e-06 0)
(4.1866e-06 2.021e-06 0)
(4.06615e-06 2.14924e-06 0)
(3.97868e-06 2.26088e-06 0)
(3.91517e-06 2.3605e-06 0)
(3.86979e-06 2.45132e-06 0)
(3.8383e-06 2.53555e-06 0)
(3.8174e-06 2.61489e-06 0)
(3.86186e-06 2.72515e-06 0)
(7.34437e-06 4.37538e-06 -2.76016e-21)
(7.41191e-06 4.52828e-06 -2.75174e-21)
(7.48612e-06 4.67872e-06 -2.74251e-21)
(7.5663e-06 4.82748e-06 -2.73253e-21)
(7.65182e-06 4.97523e-06 -2.72191e-21)
(7.74207e-06 5.12249e-06 -2.71073e-21)
(7.83653e-06 5.26969e-06 -2.69906e-21)
(7.93469e-06 5.41717e-06 -2.68697e-21)
(8.03613e-06 5.56523e-06 -2.67452e-21)
(8.14044e-06 5.71409e-06 -2.66175e-21)
(8.24725e-06 5.86393e-06 -2.6487e-21)
(8.35622e-06 6.01489e-06 -2.63541e-21)
(8.46703e-06 6.16709e-06 -2.6219e-21)
(8.57939e-06 6.3206e-06 -2.6082e-21)
(8.69298e-06 6.47545e-06 -2.59435e-21)
(8.80752e-06 6.63163e-06 -2.58037e-21)
(8.92269e-06 6.78907e-06 -2.56629e-21)
(9.0382e-06 6.94763e-06 -2.55218e-21)
(9.15364e-06 7.10704e-06 -2.53811e-21)
(9.18465e-06 7.21047e-06 8.93985e-23)
(7.07888e-06 4.32171e-06 0)
(7.15476e-06 4.47194e-06 0)
(7.23586e-06 4.61998e-06 0)
(7.32162e-06 4.76664e-06 0)
(7.41166e-06 4.91257e-06 0)
(7.50551e-06 5.05827e-06 0)
(7.60282e-06 5.20417e-06 0)
(7.70322e-06 5.35059e-06 0)
(7.80639e-06 5.49781e-06 0)
(7.91201e-06 5.64602e-06 0)
(8.01981e-06 5.79541e-06 0)
(8.12951e-06 5.9461e-06 0)
(8.24088e-06 6.0982e-06 0)
(8.35367e-06 6.25177e-06 0)
(8.46766e-06 6.40684e-06 0)
(8.58261e-06 6.5634e-06 0)
(8.69831e-06 6.72138e-06 0)
(8.81454e-06 6.88062e-06 0)
(8.93104e-06 7.04089e-06 0)
(9.04704e-06 7.20161e-06 2.73279e-21)
(6.76809e-06 4.24045e-06 0)
(6.85586e-06 4.39044e-06 0)
(6.9473e-06 4.53832e-06 0)
(7.04195e-06 4.68494e-06 0)
(7.13964e-06 4.83095e-06 0)
(7.24006e-06 4.97685e-06 0)
(7.34302e-06 5.12306e-06 0)
(7.44827e-06 5.26991e-06 0)
(7.55564e-06 5.41766e-06 0)
(7.66491e-06 5.56654e-06 0)
(7.77592e-06 5.7167e-06 0)
(7.88849e-06 5.86829e-06 0)
(8.00246e-06 6.02141e-06 0)
(8.11766e-06 6.17612e-06 0)
(8.23394e-06 6.33247e-06 0)
(8.35114e-06 6.49045e-06 0)
(8.4691e-06 6.65001e-06 0)
(8.58765e-06 6.81105e-06 0)
(8.70652e-06 6.97341e-06 0)
(8.82435e-06 7.13658e-06 2.77355e-21)
(6.42412e-06 4.1292e-06 0)
(6.52595e-06 4.28148e-06 0)
(6.6299e-06 4.43164e-06 0)
(6.73559e-06 4.58048e-06 0)
(6.84303e-06 4.72867e-06 0)
(6.95206e-06 4.87669e-06 0)
(7.06262e-06 5.02499e-06 0)
(7.17462e-06 5.1739e-06 0)
(7.28799e-06 5.32371e-06 0)
(7.40265e-06 5.47464e-06 0)
(7.51851e-06 5.62689e-06 0)
(7.63552e-06 5.7806e-06 0)
(7.75357e-06 5.93589e-06 0)
(7.8726e-06 6.09285e-06 0)
(7.99252e-06 6.25154e-06 0)
(8.11323e-06 6.41198e-06 0)
(8.23461e-06 6.57419e-06 0)
(8.35654e-06 6.73816e-06 0)
(8.47875e-06 6.90382e-06 0)
(8.59941e-06 7.07081e-06 2.85695e-21)
(6.05365e-06 3.98899e-06 0)
(6.17106e-06 4.14579e-06 0)
(6.28909e-06 4.30042e-06 0)
(6.40739e-06 4.45353e-06 0)
(6.52616e-06 4.60581e-06 0)
(6.64535e-06 4.75775e-06 0)
(6.76505e-06 4.90981e-06 0)
(6.88528e-06 5.06234e-06 0)
(7.0061e-06 5.21565e-06 0)
(7.12751e-06 5.37e-06 0)
(7.24956e-06 5.5256e-06 0)
(7.37225e-06 5.68264e-06 0)
(7.49558e-06 5.84124e-06 0)
(7.61955e-06 6.00154e-06 0)
(7.74414e-06 6.16362e-06 0)
(7.86932e-06 6.32757e-06 0)
(7.99502e-06 6.49345e-06 0)
(8.12116e-06 6.66136e-06 0)
(8.24754e-06 6.83132e-06 0)
(8.37198e-06 7.0031e-06 2.98184e-21)
(5.66387e-06 3.82024e-06 0)
(5.79777e-06 3.98375e-06 0)
(5.93084e-06 4.14493e-06 0)
(6.06275e-06 4.30427e-06 0)
(6.1939e-06 4.46251e-06 0)
(6.3243e-06 4.62011e-06 0)
(6.45421e-06 4.77755e-06 0)
(6.58373e-06 4.93522e-06 0)
(6.71303e-06 5.09346e-06 0)
(6.84222e-06 5.25257e-06 0)
(6.97141e-06 5.41279e-06 0)
(7.10071e-06 5.57433e-06 0)
(7.23019e-06 5.73738e-06 0)
(7.35992e-06 5.90208e-06 0)
(7.48995e-06 6.06858e-06 0)
(7.62031e-06 6.23702e-06 0)
(7.751e-06 6.40752e-06 0)
(7.882e-06 6.58025e-06 0)
(8.01321e-06 6.75535e-06 0)
(8.14227e-06 6.93263e-06 3.14356e-21)
(5.26109e-06 3.6248e-06 0)
(5.41175e-06 3.79691e-06 0)
(5.56026e-06 3.9665e-06 0)
(5.7063e-06 4.13386e-06 0)
(5.85043e-06 4.29974e-06 0)
(5.99273e-06 4.46458e-06 0)
(6.13355e-06 4.62891e-06 0)
(6.27309e-06 4.79314e-06 0)
(6.4116e-06 4.95765e-06 0)
(6.54928e-06 5.12278e-06 0)
(6.68633e-06 5.28881e-06 0)
(6.82291e-06 5.45599e-06 0)
(6.95917e-06 5.62455e-06 0)
(7.09526e-06 5.79468e-06 0)
(7.23128e-06 5.96657e-06 0)
(7.36734e-06 6.1404e-06 0)
(7.50351e-06 6.31635e-06 0)
(7.63986e-06 6.49467e-06 0)
(7.77639e-06 6.67554e-06 0)
(7.91075e-06 6.85887e-06 3.33659e-21)
(4.85196e-06 3.40525e-06 0)
(5.01883e-06 3.58755e-06 0)
(5.18243e-06 3.76699e-06 0)
(5.34257e-06 3.94383e-06 0)
(5.49982e-06 4.11881e-06 0)
(5.65429e-06 4.29233e-06 0)
(5.8064e-06 4.4649e-06 0)
(5.9564e-06 4.63698e-06 0)
(6.1046e-06 4.80899e-06 0)
(6.25126e-06 4.98132e-06 0)
(6.39663e-06 5.15428e-06 0)
(6.54094e-06 5.32817e-06 0)
(6.68442e-06 5.50325e-06 0)
(6.82725e-06 5.67976e-06 0)
(6.96964e-06 5.85792e-06 0)
(7.11174e-06 6.03796e-06 0)
(7.25371e-06 6.2201e-06 0)
(7.39571e-06 6.40466e-06 0)
(7.53788e-06 6.59182e-06 0)
(7.6781e-06 6.78159e-06 3.55499e-21)
(4.43973e-06 3.16443e-06 0)
(4.62369e-06 3.35852e-06 0)
(4.80192e-06 3.54898e-06 0)
(4.97565e-06 3.73633e-06 0)
(5.1458e-06 3.92148e-06 0)
(5.3124e-06 4.10483e-06 0)
(5.47587e-06 4.28679e-06 0)
(5.63651e-06 4.46785e-06 0)
(5.79463e-06 4.64846e-06 0)
(5.95052e-06 4.82904e-06 0)
(6.10449e-06 5.00996e-06 0)
(6.25681e-06 5.19155e-06 0)
(6.40775e-06 5.3741e-06 0)
(6.55757e-06 5.55788e-06 0)
(6.70652e-06 5.74314e-06 0)
(6.85485e-06 5.93014e-06 0)
(7.0028e-06 6.11913e-06 0)
(7.1506e-06 6.31045e-06 0)
(7.29855e-06 6.5043e-06 0)
(7.44505e-06 6.70082e-06 3.79258e-21)
(4.02194e-06 2.90395e-06 0)
(4.22619e-06 3.11178e-06 0)
(4.4211e-06 3.31474e-06 0)
(4.60865e-06 3.51374e-06 0)
(4.79131e-06 3.70994e-06 0)
(4.9699e-06 3.90401e-06 0)
(5.1447e-06 4.09629e-06 0)
(5.316e-06 4.28725e-06 0)
(5.48413e-06 4.4774e-06 0)
(5.64937e-06 4.66716e-06 0)
(5.81206e-06 4.85694e-06 0)
(5.9725e-06 5.0471e-06 0)
(6.13101e-06 5.23795e-06 0)
(6.2879e-06 5.4298e-06 0)
(6.44348e-06 5.6229e-06 0)
(6.59806e-06 5.81753e-06 0)
(6.752e-06 6.01394e-06 0)
(6.9056e-06 6.21247e-06 0)
(7.05931e-06 6.41332e-06 0)
(7.21235e-06 6.61682e-06 4.04285e-21)
(3.63692e-06 2.66824e-06 0)
(3.85956e-06 2.88843e-06 0)
(4.07058e-06 3.10233e-06 0)
(4.27121e-06 3.31156e-06 0)
(4.46432e-06 3.51733e-06 0)
(4.65272e-06 3.72062e-06 0)
(4.83694e-06 3.92184e-06 0)
(5.01712e-06 4.12143e-06 0)
(5.19362e-06 4.31991e-06 0)
(5.36669e-06 4.51773e-06 0)
(5.53668e-06 4.71529e-06 0)
(5.70389e-06 4.91295e-06 0)
(5.86869e-06 5.11103e-06 0)
(6.0314e-06 5.30982e-06 0)
(6.1924e-06 5.50958e-06 0)
(6.35205e-06 5.71056e-06 0)
(6.51078e-06 5.91301e-06 0)
(6.66898e-06 6.1172e-06 0)
(6.82723e-06 6.3233e-06 0)
(6.98561e-06 6.53188e-06 4.25442e-21)
(7.34437e-06 4.37538e-06 -2.76016e-21)
(7.41191e-06 4.52828e-06 -2.75174e-21)
(7.48612e-06 4.67872e-06 -2.74251e-21)
(7.5663e-06 4.82748e-06 -2.73253e-21)
(7.65182e-06 4.97523e-06 -2.72191e-21)
(7.74207e-06 5.12249e-06 -2.71073e-21)
(7.83653e-06 5.26969e-06 -2.69906e-21)
(7.93469e-06 5.41717e-06 -2.68697e-21)
(8.03613e-06 5.56523e-06 -2.67452e-21)
(8.14044e-06 5.71409e-06 -2.66175e-21)
(8.24725e-06 5.86393e-06 -2.6487e-21)
(8.35622e-06 6.01489e-06 -2.63541e-21)
(8.46703e-06 6.16709e-06 -2.6219e-21)
(8.57939e-06 6.3206e-06 -2.6082e-21)
(8.69298e-06 6.47545e-06 -2.59435e-21)
(8.80752e-06 6.63163e-06 -2.58037e-21)
(8.92269e-06 6.78907e-06 -2.56629e-21)
(9.0382e-06 6.94763e-06 -2.55218e-21)
(9.15364e-06 7.10704e-06 -2.53811e-21)
(9.18465e-06 7.21047e-06 8.93985e-23)
(7.07888e-06 4.32171e-06 0)
(7.15476e-06 4.47194e-06 0)
(7.23586e-06 4.61998e-06 0)
(7.32162e-06 4.76664e-06 0)
(7.41166e-06 4.91257e-06 0)
(7.50551e-06 5.05827e-06 0)
(7.60282e-06 5.20417e-06 0)
(7.70322e-06 5.35059e-06 0)
(7.80639e-06 5.49781e-06 0)
(7.91201e-06 5.64602e-06 0)
(8.01981e-06 5.79541e-06 0)
(8.12951e-06 5.9461e-06 0)
(8.24088e-06 6.0982e-06 0)
(8.35367e-06 6.25177e-06 0)
(8.46766e-06 6.40684e-06 0)
(8.58261e-06 6.5634e-06 0)
(8.69831e-06 6.72138e-06 0)
(8.81454e-06 6.88062e-06 0)
(8.93104e-06 7.04089e-06 0)
(9.04704e-06 7.20161e-06 2.73279e-21)
(6.76809e-06 4.24045e-06 0)
(6.85586e-06 4.39044e-06 0)
(6.9473e-06 4.53832e-06 0)
(7.04195e-06 4.68494e-06 0)
(7.13964e-06 4.83095e-06 0)
(7.24006e-06 4.97685e-06 0)
(7.34302e-06 5.12306e-06 0)
(7.44827e-06 5.26991e-06 0)
(7.55564e-06 5.41766e-06 0)
(7.66491e-06 5.56654e-06 0)
(7.77592e-06 5.7167e-06 0)
(7.88849e-06 5.86829e-06 0)
(8.00246e-06 6.02141e-06 0)
(8.11766e-06 6.17612e-06 0)
(8.23394e-06 6.33247e-06 0)
(8.35114e-06 6.49045e-06 0)
(8.4691e-06 6.65001e-06 0)
(8.58765e-06 6.81105e-06 0)
(8.70652e-06 6.97341e-06 0)
(8.82435e-06 7.13658e-06 2.77355e-21)
(6.42412e-06 4.1292e-06 0)
(6.52595e-06 4.28148e-06 0)
(6.6299e-06 4.43164e-06 0)
(6.73559e-06 4.58048e-06 0)
(6.84303e-06 4.72867e-06 0)
(6.95206e-06 4.87669e-06 0)
(7.06262e-06 5.02499e-06 0)
(7.17462e-06 5.1739e-06 0)
(7.28799e-06 5.32371e-06 0)
(7.40265e-06 5.47464e-06 0)
(7.51851e-06 5.62689e-06 0)
(7.63552e-06 5.7806e-06 0)
(7.75357e-06 5.93589e-06 0)
(7.8726e-06 6.09285e-06 0)
(7.99252e-06 6.25154e-06 0)
(8.11323e-06 6.41198e-06 0)
(8.23461e-06 6.57419e-06 0)
(8.35654e-06 6.73816e-06 0)
(8.47875e-06 6.90382e-06 0)
(8.59941e-06 7.07081e-06 2.85695e-21)
(6.05365e-06 3.98899e-06 0)
(6.17106e-06 4.14579e-06 0)
(6.28909e-06 4.30042e-06 0)
(6.40739e-06 4.45353e-06 0)
(6.52616e-06 4.60581e-06 0)
(6.64535e-06 4.75775e-06 0)
(6.76505e-06 4.90981e-06 0)
(6.88528e-06 5.06234e-06 0)
(7.0061e-06 5.21565e-06 0)
(7.12751e-06 5.37e-06 0)
(7.24956e-06 5.5256e-06 0)
(7.37225e-06 5.68264e-06 0)
(7.49558e-06 5.84124e-06 0)
(7.61955e-06 6.00154e-06 0)
(7.74414e-06 6.16362e-06 0)
(7.86932e-06 6.32757e-06 0)
(7.99502e-06 6.49345e-06 0)
(8.12116e-06 6.66136e-06 0)
(8.24754e-06 6.83132e-06 0)
(8.37198e-06 7.0031e-06 2.98184e-21)
(5.66387e-06 3.82024e-06 0)
(5.79777e-06 3.98375e-06 0)
(5.93084e-06 4.14493e-06 0)
(6.06275e-06 4.30427e-06 0)
(6.1939e-06 4.46251e-06 0)
(6.3243e-06 4.62011e-06 0)
(6.45421e-06 4.77755e-06 0)
(6.58373e-06 4.93522e-06 0)
(6.71303e-06 5.09346e-06 0)
(6.84222e-06 5.25257e-06 0)
(6.97141e-06 5.41279e-06 0)
(7.10071e-06 5.57433e-06 0)
(7.23019e-06 5.73738e-06 0)
(7.35992e-06 5.90208e-06 0)
(7.48995e-06 6.06858e-06 0)
(7.62031e-06 6.23702e-06 0)
(7.751e-06 6.40752e-06 0)
(7.882e-06 6.58025e-06 0)
(8.01321e-06 6.75535e-06 0)
(8.14227e-06 6.93263e-06 3.14356e-21)
(5.26109e-06 3.6248e-06 0)
(5.41175e-06 3.79691e-06 0)
(5.56026e-06 3.9665e-06 0)
(5.7063e-06 4.13386e-06 0)
(5.85043e-06 4.29974e-06 0)
(5.99273e-06 4.46458e-06 0)
(6.13355e-06 4.62891e-06 0)
(6.27309e-06 4.79314e-06 0)
(6.4116e-06 4.95765e-06 0)
(6.54928e-06 5.12278e-06 0)
(6.68633e-06 5.28881e-06 0)
(6.82291e-06 5.45599e-06 0)
(6.95917e-06 5.62455e-06 0)
(7.09526e-06 5.79468e-06 0)
(7.23128e-06 5.96657e-06 0)
(7.36734e-06 6.1404e-06 0)
(7.50351e-06 6.31635e-06 0)
(7.63986e-06 6.49467e-06 0)
(7.77639e-06 6.67554e-06 0)
(7.91075e-06 6.85887e-06 3.33659e-21)
(4.85196e-06 3.40525e-06 0)
(5.01883e-06 3.58755e-06 0)
(5.18243e-06 3.76699e-06 0)
(5.34257e-06 3.94383e-06 0)
(5.49982e-06 4.11881e-06 0)
(5.65429e-06 4.29233e-06 0)
(5.8064e-06 4.4649e-06 0)
(5.9564e-06 4.63698e-06 0)
(6.1046e-06 4.80899e-06 0)
(6.25126e-06 4.98132e-06 0)
(6.39663e-06 5.15428e-06 0)
(6.54094e-06 5.32817e-06 0)
(6.68442e-06 5.50325e-06 0)
(6.82725e-06 5.67976e-06 0)
(6.96964e-06 5.85792e-06 0)
(7.11174e-06 6.03796e-06 0)
(7.25371e-06 6.2201e-06 0)
(7.39571e-06 6.40466e-06 0)
(7.53788e-06 6.59182e-06 0)
(7.6781e-06 6.78159e-06 3.55499e-21)
(4.43973e-06 3.16443e-06 0)
(4.62369e-06 3.35852e-06 0)
(4.80192e-06 3.54898e-06 0)
(4.97565e-06 3.73633e-06 0)
(5.1458e-06 3.92148e-06 0)
(5.3124e-06 4.10483e-06 0)
(5.47587e-06 4.28679e-06 0)
(5.63651e-06 4.46785e-06 0)
(5.79463e-06 4.64846e-06 0)
(5.95052e-06 4.82904e-06 0)
(6.10449e-06 5.00996e-06 0)
(6.25681e-06 5.19155e-06 0)
(6.40775e-06 5.3741e-06 0)
(6.55757e-06 5.55788e-06 0)
(6.70652e-06 5.74314e-06 0)
(6.85485e-06 5.93014e-06 0)
(7.0028e-06 6.11913e-06 0)
(7.1506e-06 6.31045e-06 0)
(7.29855e-06 6.5043e-06 0)
(7.44505e-06 6.70082e-06 3.79258e-21)
(4.02194e-06 2.90395e-06 0)
(4.22619e-06 3.11178e-06 0)
(4.4211e-06 3.31474e-06 0)
(4.60865e-06 3.51374e-06 0)
(4.79131e-06 3.70994e-06 0)
(4.9699e-06 3.90401e-06 0)
(5.1447e-06 4.09629e-06 0)
(5.316e-06 4.28725e-06 0)
(5.48413e-06 4.4774e-06 0)
(5.64937e-06 4.66716e-06 0)
(5.81206e-06 4.85694e-06 0)
(5.9725e-06 5.0471e-06 0)
(6.13101e-06 5.23795e-06 0)
(6.2879e-06 5.4298e-06 0)
(6.44348e-06 5.6229e-06 0)
(6.59806e-06 5.81753e-06 0)
(6.752e-06 6.01394e-06 0)
(6.9056e-06 6.21247e-06 0)
(7.05931e-06 6.41332e-06 0)
(7.21235e-06 6.61682e-06 4.04285e-21)
(3.63692e-06 2.66824e-06 0)
(3.85956e-06 2.88843e-06 0)
(4.07058e-06 3.10233e-06 0)
(4.27121e-06 3.31156e-06 0)
(4.46432e-06 3.51733e-06 0)
(4.65272e-06 3.72062e-06 0)
(4.83694e-06 3.92184e-06 0)
(5.01712e-06 4.12143e-06 0)
(5.19362e-06 4.31991e-06 0)
(5.36669e-06 4.51773e-06 0)
(5.53668e-06 4.71529e-06 0)
(5.70389e-06 4.91295e-06 0)
(5.86869e-06 5.11103e-06 0)
(6.0314e-06 5.30982e-06 0)
(6.1924e-06 5.50958e-06 0)
(6.35205e-06 5.71056e-06 0)
(6.51078e-06 5.91301e-06 0)
(6.66898e-06 6.1172e-06 0)
(6.82723e-06 6.3233e-06 0)
(6.98561e-06 6.53188e-06 4.25442e-21)
(3.05451e-06 2.2649e-06 0)
(3.33965e-06 2.51096e-06 0)
(3.57091e-06 2.73675e-06 0)
(3.79017e-06 2.95607e-06 0)
(3.99814e-06 3.1708e-06 0)
(4.19696e-06 3.38183e-06 0)
(4.39052e-06 3.5901e-06 0)
(4.57982e-06 3.79619e-06 0)
(4.76477e-06 4.00057e-06 0)
(4.94578e-06 4.20373e-06 0)
(5.12306e-06 4.40606e-06 0)
(5.29695e-06 4.60796e-06 0)
(5.46774e-06 4.80972e-06 0)
(5.63581e-06 5.01165e-06 0)
(5.80151e-06 5.21398e-06 0)
(5.96522e-06 5.41695e-06 0)
(6.12736e-06 5.62075e-06 0)
(6.28838e-06 5.82558e-06 0)
(6.44872e-06 6.03165e-06 0)
(6.60905e-06 6.23906e-06 0)
(6.76982e-06 6.44837e-06 4.3642e-21)
(2.82159e-06 2.15177e-06 0)
(3.09967e-06 2.39582e-06 0)
(3.33187e-06 2.6228e-06 0)
(3.55301e-06 2.84434e-06 0)
(3.76319e-06 3.06189e-06 0)
(3.96449e-06 3.2758e-06 0)
(4.16053e-06 3.4868e-06 0)
(4.35218e-06 3.6956e-06 0)
(4.53938e-06 3.90272e-06 0)
(4.72249e-06 4.10859e-06 0)
(4.90172e-06 4.31356e-06 0)
(5.07739e-06 4.51795e-06 0)
(5.24981e-06 4.72202e-06 0)
(5.41933e-06 4.92599e-06 0)
(5.58632e-06 5.13006e-06 0)
(5.75117e-06 5.33442e-06 0)
(5.91432e-06 5.53919e-06 0)
(6.07623e-06 5.74453e-06 0)
(6.23736e-06 5.95054e-06 0)
(6.39842e-06 6.15725e-06 0)
(6.55984e-06 6.36501e-06 4.40564e-21)
(2.61069e-06 2.04255e-06 0)
(2.87956e-06 2.28414e-06 0)
(3.10934e-06 2.51138e-06 0)
(3.32946e-06 2.73436e-06 0)
(3.53977e-06 2.95407e-06 0)
(3.74238e-06 3.17038e-06 0)
(3.93994e-06 3.38383e-06 0)
(4.13299e-06 3.59515e-06 0)
(4.32154e-06 3.80488e-06 0)
(4.50591e-06 4.01335e-06 0)
(4.68631e-06 4.22087e-06 0)
(4.86307e-06 4.42768e-06 0)
(5.0365e-06 4.63398e-06 0)
(5.20695e-06 4.83995e-06 0)
(5.37478e-06 5.04573e-06 0)
(5.54039e-06 5.25142e-06 0)
(5.70421e-06 5.45712e-06 0)
(5.86672e-06 5.66289e-06 0)
(6.02838e-06 5.86876e-06 0)
(6.18989e-06 6.07469e-06 0)
(6.35168e-06 6.28079e-06 4.42695e-21)
(2.42057e-06 1.93839e-06 0)
(2.67822e-06 2.17669e-06 0)
(2.90307e-06 2.40334e-06 0)
(3.11982e-06 2.62698e-06 0)
(3.32854e-06 2.84809e-06 0)
(3.53131e-06 3.06623e-06 0)
(3.72935e-06 3.2818e-06 0)
(3.92274e-06 3.49547e-06 0)
(4.11168e-06 3.70765e-06 0)
(4.29642e-06 3.9186e-06 0)
(4.47721e-06 4.12856e-06 0)
(4.65435e-06 4.3377e-06 0)
(4.82816e-06 4.54615e-06 0)
(4.99898e-06 4.75403e-06 0)
(5.16718e-06 4.96142e-06 0)
(5.33315e-06 5.16838e-06 0)
(5.4973e-06 5.37494e-06 0)
(5.66007e-06 5.5811e-06 0)
(5.82199e-06 5.78679e-06 0)
(5.98372e-06 5.99188e-06 0)
(6.14558e-06 6.19632e-06 4.42723e-21)
(2.25001e-06 1.84e-06 0)
(2.49478e-06 2.07437e-06 0)
(2.7124e-06 2.29962e-06 0)
(2.92429e-06 2.5231e-06 0)
(3.13054e-06 2.74481e-06 0)
(3.33215e-06 2.96421e-06 0)
(3.52923e-06 3.18158e-06 0)
(3.72177e-06 3.39737e-06 0)
(3.91001e-06 3.6118e-06 0)
(4.09417e-06 3.82506e-06 0)
(4.2745e-06 4.03728e-06 0)
(4.4513e-06 4.24858e-06 0)
(4.62486e-06 4.45904e-06 0)
(4.79552e-06 4.66871e-06 0)
(4.96362e-06 4.87761e-06 0)
(5.12954e-06 5.08575e-06 0)
(5.29366e-06 5.2931e-06 0)
(5.45641e-06 5.49959e-06 0)
(5.61828e-06 5.70506e-06 0)
(5.77988e-06 5.90936e-06 0)
(5.94148e-06 6.11223e-06 4.40655e-21)
(2.09722e-06 1.74804e-06 0)
(2.32858e-06 1.97793e-06 0)
(2.53801e-06 2.20098e-06 0)
(2.74427e-06 2.42345e-06 0)
(2.94669e-06 2.64508e-06 0)
(3.14527e-06 2.8653e-06 0)
(3.33971e-06 3.08411e-06 0)
(3.53006e-06 3.30168e-06 0)
(3.71645e-06 3.51807e-06 0)
(3.89906e-06 3.73337e-06 0)
(4.0781e-06 3.94763e-06 0)
(4.25384e-06 4.16088e-06 0)
(4.42653e-06 4.37316e-06 0)
(4.59649e-06 4.58445e-06 0)
(4.76403e-06 4.79472e-06 0)