/*--------------------------------*- C++ -*----------------------------------*\
  =========                 |
  \\      /  F ield         | OpenFOAM: The Open Source CFD Toolbox
   \\    /   O peration     | Website:  https://openfoam.org
    \\  /    A nd           | Version:  9
     \\/     M anipulation  |
\*---------------------------------------------------------------------------*/
FoamFile
{
    format      ascii;
    class       volScalarField;
    location    "5";
    object      sigmaEq;
}
// * * * * * * * * * * * * * * * * * * * * * * * * * * * * * * * * * * * * * //

dimensions      [1 -1 -2 0 0 0 0];

internalField   nonuniform List<scalar> 
1000
(
928628
862069
811976
787945
772323
760440
750511
741218
732893
722578
1.10501e+06
933115
860170
823065
800862
784945
772297
760940
750772
739616
1.24237e+06
1.00179e+06
904298
854163
824775
804296
788470
774768
762522
750034
1.34643e+06
1.07176e+06
947192
881917
843861
817995
798392
781910
767305
753297
1.41635e+06
1.13931e+06
992011
909299
860003
826812
802170
782091
764664
748807
1.45926e+06
1.20062e+06
1.03849e+06
937750
874549
831550
800121
775375
754668
736968
1.47633e+06
1.24822e+06
1.08105e+06
965362
887646
833212
793599
763263
739036
719528
1.48162e+06
1.28219e+06
1.11447e+06
988279
897755
832304
784481
748549
721248
698751
1.4586e+06
1.28177e+06
1.12369e+06
998708
904475
833285
779779
738933
707923
673438
1.46404e+06
1.25021e+06
1.10855e+06
997155
909482
839709
784866
741367
706649
669006
7753.92
7080.06
11301.2
37304.8
70496
107582
144978
181802
215907
248203
6156.5
22783.3
67796.1
116881
162596
204016
240031
272203
299061
324675
12654.1
75388.2
139865
199948
251036
293589
327851
356329
377905
398458
47831
148030
225170
289561
340380
380540
411179
435266
451805
467777
105937
235505
319175
382694
429241
463794
488553
506829
517886
529031
188925
334003
417264
475755
514122
540734
558532
570411
575998
582230
296483
439375
514648
562611
593017
612555
622479
626513
625945
626144
427465
550129
609897
649991
667991
671500
668937
665171
660362
656079
579158
662903
705501
714331
708618
702484
697104
691892
685897
680880
747682
779504
765320
750448
740674
732804
725457
718180
710875
703847
276801
301632
324766
345593
364474
381390
396555
410055
422046
432626
441904
449960
456860
462660
467388
471090
473755
475483
476217
476238
343135
356556
370230
382606
394372
405193
415252
424453
432869
440481
447328
453420
458780
463431
467375
470650
473206
475118
476124
476413
408898
412972
418518
423289
428448
433397
438411
443252
447968
452452
456695
460649
464294
467613
470574
473173
475298
476965
477719
477816
471572
468059
466937
465284
464699
464358
464688
465355
466431
467752
469291
470956
472696
474455
476164
477778
479140
480224
480546
480421
527185
517646
511222
504413
499201
494482
490862
487909
485745
484175
483170
482617
482452
482590
482946
483440
483914
484313
484228
483957
575671
561326
550887
539985
531081
522813
515925
509913
504936
500789
497452
494809
492795
491316
490287
489613
489169
488873
488475
488158
615205
597715
584642
570945
559405
548404
538938
530430
523086
516712
511305
506760
503025
500010
497647
495839
494519
493581
492970
492696
645074
626634
611435
596710
583420
570766
559410
549036
539772
531532
524320
518072
512757
508307
504685
501805
499672
498155
497418
497257
667744
649427
636270
617703
604044
589939
577336
565514
554745
544942
536185
528431
521699
515940
511162
507294
504419
502388
501578
501558
689476
669637
652774
638371
621335
607239
593338
580439
568383
557229
547085
537954
529898
522903
517017
512197
508597
506066
505178
505310
705813
685079
666905
649868
635262
618899
605100
591213
578449
566366
555296
545202
536208
528320
521628
516113
511982
509086
508118
508326
701695
685998
668757
652084
637605
621175
607766
593919
581249
569132
557994
547773
538622
530560
523696
518038
513811
510890
510025
510393
698746
684746
669096
653429
639212
623312
609793
595939
583185
570984
559757
549438
540183
532018
525053
519325
515043
512122
511300
511689
693309
681379
667092
653077
638322
623460
609527
595823
583031
570914
559759
549529
540355
532267
525363
519706
515447
512604
511795
512140
685923
675708
663145
650308
634876
620929
606695
593354
580729
568932
558057
548122
539210
531363
524648
519173
514935
512358
510893
511896
676459
668016
655445
641551
628045
614214
600856
588130
576153
564960
554644
545227
536785
529350
523013
517794
513896
511235
510356
510512
654975
646234
638083
626642
615565
603446
591698
580217
569321
559067
549580
540909
533129
526283
520438
515638
511998
509497
508522
508526
627301
621897
617088
608444
599864
589869
579981
570029
560488
551414
542984
535257
528318
522212
516999
512708
509423
507131
506081
505907
599083
596593
594304
588162
581887
574030
566089
557856
549866
542175
534991
528384
522447
517226
512764
509095
506242
504222
503137
502789
570848
570556
570282
566386
562227
556478
550495
544077
537754
531585
525791
520447
515645
511434
507839
504890
502558
500882
499802
499295
542521
543969
545395
543539
541337
537618
533570
529010
524431
519887
515595
511627
508073
504978
502349
500212
498486
497227
496214
495594
514007
516906
519845
519869
519518
517772
515648
512978
510199
507357
504653
502151
499932
498035
496453
495204
494161
493389
492521
491847
485138
489364
493729
495558
497022
497233
497046
496304
495378
494304
493254
492285
491465
490825
490346
490038
489740
489515
488877
488220
455719
461296
467111
470764
474080
476292
478094
479339
480328
481082
481741
482351
482966
483611
484260
484915
485397
485759
485433
484872
425622
432707
440102
445699
450984
455298
459184
462499
465474
468112
470521
472733
474790
476713
478474
480072
481330
482284
482337
481944
394764
403663
412887
420651
428101
434679
440785
446275
451313
455884
460066
463876
467349
470502
473311
475782
477757
479259
479726
479553
363382
374520
385926
396159
406027
415068
423544
431312
438477
445006
450951
456320
461137
465421
469161
472368
474933
476868
477724
477792
331854
345799
359844
372917
385496
397210
408200
418330
427654
436131
443790
450633
456679
461949
466446
470195
473143
475315
476433
476687
301688
319014
336144
352366
367866
382365
395911
408384
419802
430127
439372
447538
454640
460698
465723
469749
472774
474866
475947
476227
274488
295723
316303
335853
354364
371638
387670
402363
415721
427711
438346
447624
455558
462161
467445
471444
474182
475788
476341
476279
624343
633606
659179
696894
717743
731056
737484
736390
728451
714131
586352
597003
623218
657700
698665
716755
727245
730845
727658
714584
552617
563972
588806
620913
657383
695818
709828
716421
718145
710334
522249
533940
557922
587753
621905
657221
691563
702857
707482
703115
493914
505858
528790
556523
588181
620838
653394
682297
694735
693972
467271
479457
501663
527669
557287
587663
617805
645807
670658
682012
441699
454148
475768
500340
528188
556669
584770
611081
634125
654201
416928
429670
450918
474363
500777
527783
554342
579933
601528
623211
392612
405671
426678
449214
474407
500120
525276
550095
570703
592831
368514
381903
402784
424590
448766
473360
497320
521288
541100
562885
344386
358097
378910
400094
423386
446960
469870
492957
512156
533345
320004
334008
354767
375388
397882
420511
442492
464695
483387
503920
295161
309386
330039
350093
371824
393559
414714
436087
454377
474295
269621
283950
304371
323797
344755
365637
386064
406704
424721
444139
243241
257432
277368
296039
316180
336262
356084
376154
394082
413190
215708
229404
248470
266217
285496
304881
324287
344035
362145
381225
187205
199556
217054
233673
252112
271032
290347
310167
328868
348339
156968
166798
181953
197416
215246
234167
253943
274429
294313
314749
126750
130290
141958
156680
174726
194619
215791
237837
259708
281865
90961.9
85291.9
94539.3
110227
130160
152557
176476
201324
226248
251151
)
;

boundaryField
{
    left
    {
        type            calculated;
        value           nonuniform List<scalar> 
30
(
624227
584819
550323
519247
490382
463276
437326
412230
387640
363315
339011
314513
289639
264176
238071
211063
183772
155839
132496
110765
1.5034e+06
1.21436e+06
1.08934e+06
993794
914153
846736
791521
746165
709189
670974
)
;
    }
    right
    {
        type            calculated;
        value           nonuniform List<scalar> 
30
(
476152
476399
477745
480349
483919
488177
492784
497420
501783
505607
508627
510726
511984
512416
511918
510605
508587
505892
502696
499129
495364
491568
487910
484552
481638
479286
477585
476552
476169
476184
)
;
    }
    down
    {
        type            calculated;
        value           nonuniform List<scalar> 
30
(
3157
6784.1
2495.49
26813.3
59003.5
96039.8
133928
171465
206511
239422
269154
295161
319249
340864
360415
377893
393540
407452
419801
430695
440254
448563
455697
461717
466653
470556
473413
475313
476184
476221
)
;
    }
    up
    {
        type            calculated;
        value           nonuniform List<scalar> 
30
(
86306.9
85355.6
95545
111452
131542
154092
178155
203130
228167
253157
276555
297771
318301
337788
356209
373380
389294
403860
417083
428933
439425
448557
456346
462802
467940
471797
474399
475883
476345
476240
)
;
    }
    hole
    {
        type            calculated;
        value           nonuniform List<scalar> 
20
(
929145
1.1649e+06
1.31322e+06
1.38788e+06
1.43015e+06
1.45369e+06
1.46091e+06
1.46385e+06
1.44241e+06
1.43289e+06
1106.53
4926.46
1495.2
27925.9
78480.2
156597
262994
397104
556439
735934
)
;
    }
    frontAndBack
    {
        type            empty;
    }
}


// ************************************************************************* //
