/*--------------------------------*- C++ -*----------------------------------*\
  =========                 |
  \\      /  F ield         | OpenFOAM: The Open Source CFD Toolbox
   \\    /   O peration     | Website:  https://openfoam.org
    \\  /    A nd           | Version:  9
     \\/     M anipulation  |
\*---------------------------------------------------------------------------*/
FoamFile
{
    format      ascii;
    class       volSymmTensorField;
    location    "5";
    object      sigma;
}
// * * * * * * * * * * * * * * * * * * * * * * * * * * * * * * * * * * * * * //

dimensions      [1 -1 -2 0 0 0 0];

internalField   nonuniform List<symmTensor> 
1000
(
(689342 -444281 -2.64159e-10 356653 -3.24044e-10 90352.2)
(753823 -339185 -2.1308e-10 174088 -2.45603e-10 81913.9)
(758759 -260970 -1.68443e-10 93257 -1.89184e-10 75552.3)
(756438 -205618 -1.37758e-10 37395.1 -1.49757e-10 70950.1)
(752034 -162849 -1.1419e-10 2437.4 -1.20093e-10 68201.6)
(744862 -129271 -9.61865e-11 -21923.2 -9.72924e-11 66229.4)
(737158 -101921 -8.1713e-11 -38471.6 -7.90985e-11 64912.1)
(728524 -79479.9 -7.01466e-11 -50091 -6.44764e-11 63951.3)
(720329 -60405.5 -6.03909e-11 -58101.3 -5.22485e-11 63306.8)
(709161 -43518 -5.23725e-11 -64590.5 -4.17353e-11 62635.3)
(845640 -515513 -2.96237e-10 374803 -3.67171e-10 102764)
(837584 -352654 -2.0691e-10 188705 -2.49596e-10 86733.1)
(827663 -257641 -1.54775e-10 105281 -1.8327e-10 79975.1)
(814973 -192854 -1.20114e-10 50711 -1.38623e-10 75371)
(803684 -144780 -9.44765e-11 16678.3 -1.06113e-10 72598.2)
(791221 -107935 -7.5364e-11 -6934.94 -8.16445e-11 70585.9)
(779151 -78373.9 -6.02699e-11 -23031.1 -6.23712e-11 69201.5)
(766438 -54652.8 -4.86101e-11 -34736.9 -4.72039e-11 68095.9)
(754951 -34502.7 -3.87319e-11 -42196.4 -3.45555e-11 67405.6)
(739816 -17507.6 -3.13686e-11 -50720.4 -2.40898e-11 66338.4)
(998878 -552383 -2.93251e-10 372441 -3.80073e-10 107929)
(935770 -355490 -1.91777e-10 210895 -2.46391e-10 93361.3)
(902568 -247908 -1.359e-10 128990 -1.73744e-10 86170.2)
(877335 -174667 -9.82055e-11 75681.7 -1.24652e-10 81436)
(856959 -122051 -7.1325e-11 42228.4 -8.99065e-11 78481.1)
(837736 -82301.1 -5.15678e-11 19123.3 -6.40833e-11 76326.9)
(820178 -51141.5 -3.64022e-11 3472.11 -4.41977e-11 74806.8)
(802801 -26578.5 -2.50031e-11 -8227.25 -2.88118e-11 73527.7)
(787306 -6139.82 -1.55964e-11 -15348.6 -1.62785e-11 72711.8)
(768211 11398.9 -8.60033e-12 -25135.1 -5.63998e-12 71349.7)
(1.15123e+06 -554911 -2.70613e-10 350477 -3.69618e-10 111950)
(1.03809e+06 -353630 -1.7321e-10 231874 -2.39814e-10 100181)
(980298 -235732 -1.14793e-10 161757 -1.63155e-10 93580)
(939869 -154904 -7.49615e-11 111217 -1.10466e-10 88743)
(909103 -97827.1 -4.70686e-11 79246.1 -7.36944e-11 85648.4)
(881935 -55516.1 -2.70681e-11 56597.5 -4.68129e-11 83284.5)
(857930 -23117.5 -1.22132e-11 41083.6 -2.65866e-11 81541.4)
(835174 1949.94 -1.40464e-12 29030 -1.12189e-11 80006.9)
(814985 22148.3 7.07931e-12 21563 8.66812e-13 78942.3)
(791962 39736.9 1.34276e-11 10764.4 1.13459e-11 77299.1)
(1.27976e+06 -527850 -2.34906e-10 308924 -3.40409e-10 113691)
(1.13892e+06 -343935 -1.50519e-10 244058 -2.27667e-10 106200)
(1.05934e+06 -222235 -9.26233e-11 196239 -1.51762e-10 101281)
(1.0021e+06 -135948 -5.20099e-11 153623 -9.73383e-11 96781.5)
(959156 -75002.2 -2.36772e-11 125234 -5.91999e-11 93686.7)
(922471 -30710.4 -4.00889e-12 103780 -3.17937e-11 91109.8)
(890907 2267.19 9.96095e-12 88418.1 -1.17253e-11 89076.4)
(862040 27206.2 1.96688e-11 75670.4 3.19599e-12 87196.7)
(836699 46465.3 2.67135e-11 67144.7 1.44107e-11 85761.6)
(809655 63586.6 3.20804e-11 55037.1 2.44164e-11 83783.6)
(1.38609e+06 -473633 -1.86995e-10 257044 -2.94592e-10 114180)
(1.23667e+06 -320845 -1.20693e-10 246265 -2.06421e-10 111393)
(1.13933e+06 -204475 -6.78408e-11 228289 -1.37399e-10 108886)
(1.06411e+06 -117440 -2.92426e-11 199485 -8.47743e-11 105183)
(1.00668e+06 -55152.1 -2.25866e-12 177391 -4.72462e-11 102213)
(958497 -10533.2 1.57972e-11 158013 -2.0574e-11 99383.9)
(918010 21798.3 2.79202e-11 142580 -1.52166e-12 96937.5)
(882366 45657.1 3.58339e-11 128601 1.23412e-11 94593.4)
(851560 63346.3 4.09707e-11 117838 2.23506e-11 92622.1)
(821187 79312.5 4.50516e-11 104182 3.15094e-11 90290.3)
(1.46532e+06 -394031 -1.28459e-10 202889 -2.34245e-10 114054)
(1.32395e+06 -279008 -8.16777e-11 240467 -1.73311e-10 115835)
(1.21513e+06 -177656 -3.85056e-11 255668 -1.17182e-10 116074)
(1.12286e+06 -97718 -6.28821e-12 245183 -7.16449e-11 113466)
(1.04991e+06 -39383.9 1.60946e-11 231557 -3.83441e-11 110650)
(989147 2134.09 3.0335e-11 214815 -1.47109e-11 107476)
(939166 31692.1 3.92369e-11 198927 1.95723e-12 104481)
(896608 53183.8 4.45367e-11 182881 1.39937e-11 101532)
(860912 68537.7 4.73761e-11 169077 2.24094e-11 98934.7)
(827598 83364 5.02008e-11 152687 3.08474e-11 96133.3)
(1.52721e+06 -294076 -6.02991e-11 157927 -1.62784e-10 114860)
(1.40047e+06 -217179 -3.2421e-11 236970 -1.28345e-10 120706)
(1.282e+06 -139676 -3.98855e-12 282612 -9.04161e-11 123184)
(1.17368e+06 -76483.6 1.6206e-11 289069 -5.79543e-11 121250)
(1.08526e+06 -29069.1 2.97889e-11 282322 -3.32035e-11 118192)
(1.01235e+06 5265.35 3.78055e-11 266868 -1.50836e-11 114411)
(953514 29993 4.23215e-11 249342 -1.97984e-12 110697)
(905010 48104.8 4.45403e-11 230605 7.69739e-12 107083)
(865479 61208.9 4.52751e-11 212882 1.47126e-11 103809)
(829806 73449.8 4.64362e-11 194687 2.16195e-11 100500)
(1.55391e+06 -167775 1.84802e-11 132084 -7.83574e-11 117130)
(1.44387e+06 -134607 2.43427e-11 249353 -7.36036e-11 126591)
(1.32276e+06 -94027 3.10225e-11 315045 -6.09534e-11 130028)
(1.20584e+06 -60047.4 3.2626e-11 328216 -4.82397e-11 127548)
(1.1094e+06 -30613.6 3.42069e-11 322385 -3.55865e-11 123675)
(1.02968e+06 -6968.11 3.46839e-11 305430 -2.46423e-11 119092)
(965499 11887.4 3.47462e-11 285649 -1.54811e-11 114708)
(912893 26606.9 3.41907e-11 264576 -8.07216e-12 110547)
(870459 38106.9 3.34213e-11 244758 -2.12005e-12 106863)
(822595 47821.9 3.40905e-11 223985 3.89855e-12 101500)
(1.62073e+06 13606.2 1.3935e-10 183580 3.80977e-11 131551)
(1.47353e+06 -17697.3 1.01645e-10 328206 -2.92772e-12 140428)
(1.34121e+06 -39502.3 6.83523e-11 366867 -2.88197e-11 138367)
(1.22146e+06 -42191.7 4.69805e-11 361380 -3.82932e-11 132507)
(1.12258e+06 -31798.4 3.63345e-11 341928 -3.69288e-11 126396)
(1.04095e+06 -17743.2 3.05435e-11 318174 -3.17214e-11 120663)
(974688 -3627.83 2.73257e-11 295096 -2.54778e-11 115670)
(920174 8683.8 2.50032e-11 273494 -1.96966e-11 111291)
(875258 17733.6 2.23824e-11 254114 -1.55116e-11 107471)
(826320 25803.5 2.15579e-11 235229 -1.09368e-11 102371)
(-5500.1 3494.25 -3.14579e-11 -2270.27 -1.79771e-11 73.3547)
(-6807.75 828.449 -3.28318e-11 172.713 -1.98027e-11 77.0416)
(3868.4 -6139.02 -3.73414e-11 -483.109 -2.43857e-11 1019.65)
(30417.8 -13116.6 -4.179e-11 -1306.82 -2.8987e-11 3570.54)
(64772.6 -18433.5 -4.51229e-11 -2117.36 -3.2502e-11 6943.08)
(104046 -21998.7 -4.72585e-11 -2627.49 -3.48765e-11 10864.6)
(143995 -23997.2 -4.83571e-11 -2958.9 -3.62243e-11 14890.3)
(183534 -24890.9 -4.87103e-11 -3024.74 -3.68516e-11 18909)
(220180 -24743.4 -4.84182e-11 -3142.61 -3.67881e-11 22643.7)
(255005 -24548.8 -4.80289e-11 -2714.35 -3.67074e-11 26232.5)
(-2160.44 2427.02 -3.25107e-11 -4982.86 -1.8606e-11 204.138)
(19918.4 -10188.6 -3.83337e-11 10174.3 -2.73764e-11 3365.47)
(54180.9 -29622.9 -5.01265e-11 13696.2 -4.03183e-11 6836.84)
(96026.8 -46556.3 -6.0995e-11 12101 -5.14731e-11 10750.8)
(138396 -58695.9 -6.90544e-11 8575.76 -5.94144e-11 14648.4)
(179878 -66348.4 -7.42519e-11 4925.41 -6.43943e-11 18511)
(218020 -70206.1 -7.69876e-11 1565.59 -6.68785e-11 22108)
(253624 -71443.9 -7.79418e-11 -1007.15 -6.76563e-11 25540.1)
(284374 -70256.6 -7.73326e-11 -3350.21 -6.6838e-11 28528.1)
(314007 -69074.2 -7.64941e-11 -4016.97 -6.60697e-11 31522.3)
(1787.76 -7241.39 -3.80149e-11 -148.72 -2.51196e-11 815.449)
(48502.2 -38203.5 -5.40983e-11 24775.9 -4.62848e-11 6929.65)
(102252 -65040.9 -7.04509e-11 28893.8 -6.41419e-11 12326.8)
(156521 -84275.1 -8.33717e-11 22770.7 -7.66955e-11 17150.6)
(205230 -96167.1 -9.20166e-11 13752.8 -8.43223e-11 21304.5)
(248361 -102353 -9.69915e-11 4974.89 -8.81901e-11 24988.2)
(285070 -104283 -9.91012e-11 -2631.63 -8.9281e-11 28161.6)
(317452 -103370 -9.91605e-11 -8497.61 -8.85438e-11 31059.1)
(343506 -100049 -9.75435e-11 -13203.7 -8.62468e-11 33428.7)
(368904 -96987.5 -9.57223e-11 -15278 -8.41955e-11 35916.5)
(14449.3 -26212.9 -4.72067e-11 20434 -3.82245e-11 3313.74)
(89089.1 -76180 -7.5487e-11 44354.8 -7.19123e-11 11933.5)
(159247 -106276 -9.44343e-11 44297.3 -9.18133e-11 18658.9)
(223147 -123522 -1.06865e-10 32239.5 -1.02896e-10 24068.3)
(275903 -131437 -1.13709e-10 17746.3 -1.07749e-10 28299.2)
(319493 -133387 -1.16618e-10 4335.42 -1.08694e-10 31757.8)
(354255 -131466 -1.16791e-10 -6972.84 -1.07139e-10 34521.9)
(383306 -127117 -1.15068e-10 -15703.6 -1.04052e-10 36923.1)
(404849 -120950 -1.11954e-10 -22556.9 -9.98131e-11 38718.7)
(426214 -115520 -1.08831e-10 -26012.4 -9.61576e-11 40729.6)
(39617.4 -56067.6 -6.11719e-11 56113.1 -5.89467e-11 8016.73)
(144917 -120063 -1.00272e-10 66133.7 -1.01511e-10 18566.3)
(228572 -148402 -1.1939e-10 56390.4 -1.1999e-10 25999.2)
(298116 -159775 -1.29177e-10 36151.6 -1.26973e-10 31481.5)
(351598 -161050 -1.32542e-10 16085.5 -1.27292e-10 35481.7)
(392881 -156869 -1.32091e-10 -1319.56 -1.24079e-10 38506.1)
(423741 -149732 -1.29352e-10 -15563.5 -1.18999e-10 40735.9)
(448066 -141046 -1.25178e-10 -26471.9 -1.12986e-10 42560.6)
(464479 -131619 -1.20211e-10 -34820.2 -1.06552e-10 43771.9)
(481307 -123522 -1.15534e-10 -39219.7 -1.01107e-10 45290.2)
(82288.1 -98549.6 -8.12338e-11 105274 -8.83945e-11 15293.3)
(218303 -166336 -1.26309e-10 89183.1 -1.32738e-10 27048.5)
(311814 -186989 -1.42399e-10 65597.8 -1.45765e-10 34603.9)
(382821 -189402 -1.47639e-10 36787.7 -1.466e-10 39748.7)
(432701 -181923 -1.46124e-10 11614.1 -1.41e-10 43140)
(468748 -170474 -1.41497e-10 -9062.11 -1.32899e-10 45499.3)
(493958 -157838 -1.35525e-10 -25201.6 -1.24134e-10 47095.4)
(512316 -144983 -1.28865e-10 -37216.8 -1.15338e-10 48291.2)
(523022 -132731 -1.22206e-10 -46204 -1.07017e-10 48914.7)
(534742 -122323 -1.16116e-10 -50911.1 -1.00035e-10 49922.7)
(146462 -153773 -1.08162e-10 162850 -1.26501e-10 25186.4)
(308143 -211506 -1.51682e-10 111247 -1.63227e-10 37155.6)
(406557 -218282 -1.61032e-10 72142.5 -1.6667e-10 44296.1)
(473280 -207934 -1.59427e-10 33957.1 -1.58822e-10 48513.6)
(518271 -191210 -1.52572e-10 4754.02 -1.4701e-10 51249.4)
(548148 -173423 -1.44116e-10 -17392.3 -1.34684e-10 52964.4)
(565538 -155889 -1.35119e-10 -34084.1 -1.22668e-10 53792.7)
(575379 -139413 -1.26225e-10 -46414.9 -1.11467e-10 54148.5)
(578919 -124917 -1.18182e-10 -55516.1 -1.01658e-10 54064.5)
(583596 -112723 -1.11e-10 -60328.1 -9.34892e-11 54371.6)
(236640 -220389 -1.41914e-10 222885 -1.72213e-10 37747.1)
(415129 -252985 -1.74814e-10 131683 -1.91255e-10 48949)
(512513 -239458 -1.73428e-10 76347.9 -1.80851e-10 55110.5)
(574661 -217156 -1.65104e-10 31570.7 -1.64933e-10 58559.3)
(607082 -191903 -1.53174e-10 12.5806 -1.4742e-10 59965.3)
(618744 -167821 -1.39862e-10 -23896.9 -1.30364e-10 59348)
(621553 -146290 -1.27167e-10 -41244.9 -1.15107e-10 58208.9)
(621649 -127938 -1.16639e-10 -53629.7 -1.02442e-10 57408.3)
(619770 -112271 -1.0791e-10 -62438.3 -9.18976e-11 56838.1)
(618523 -99525.4 -1.00683e-10 -67313.6 -8.34746e-11 56643.2)
(355479 -295024 -1.81197e-10 279098 -2.23127e-10 52843.9)
(535606 -287804 -1.94144e-10 148191 -2.14794e-10 61933.4)
(626053 -253643 -1.81153e-10 81485.6 -1.90461e-10 66866.5)
(653014 -218074 -1.6236e-10 29745.2 -1.64187e-10 65240.1)
(658629 -184672 -1.42721e-10 -4673.01 -1.39862e-10 62685.8)
(658496 -157444 -1.27359e-10 -29180.6 -1.20624e-10 60798.5)
(657026 -134919 -1.14759e-10 -46197.3 -1.05049e-10 59543.8)
(654431 -115938 -1.04289e-10 -58407.7 -9.21795e-11 58666.8)
(650583 -99392.2 -9.53511e-11 -66995.8 -8.12254e-11 58064.5)
(647487 -85852.1 -8.79713e-11 -72406.7 -7.23805e-11 57755.1)
(505729 -372158 -2.23344e-10 325191 -2.75429e-10 70384.6)
(669401 -316551 -2.09464e-10 164908 -2.34353e-10 76379.7)
(698297 -259445 -1.77683e-10 85672.8 -1.91761e-10 72145.4)
(702754 -212293 -1.50739e-10 30967.6 -1.57194e-10 67704.1)
(703241 -175648 -1.30018e-10 -3849.09 -1.31118e-10 64987.4)
(700546 -146109 -1.13694e-10 -28285.9 -1.10585e-10 63071.1)
(696111 -121468 -1.00326e-10 -45571.3 -9.38406e-11 61725.9)
(690521 -100683 -8.92733e-11 -57864.7 -8.00175e-11 60767.9)
(683873 -83208.3 -8.02577e-11 -67000.5 -6.86196e-11 60013.1)
(678436 -68549.5 -7.25658e-11 -71603.8 -5.92816e-11 59729)
(285853 -22998.6 -4.68515e-11 -2707.24 -3.57174e-11 29404.4)
(312976 -20749.5 -4.51839e-11 -2264.85 -3.42756e-11 32237.4)
(338076 -18649.8 -4.36325e-11 -1877.9 -3.29284e-11 34857.8)
(360558 -16705.6 -4.22069e-11 -1565.49 -3.16791e-11 37203.4)
(380887 -14873.3 -4.08681e-11 -1268.48 -3.05009e-11 39326.3)
(399037 -13209 -3.96576e-11 -1027.11 -2.94294e-11 41220.5)
(415277 -11681.5 -3.85501e-11 -808.791 -2.84458e-11 42916)
(429700 -10298 -3.75512e-11 -629.119 -2.75539e-11 44421.2)
(442491 -9036.68 -3.66435e-11 -475.464 -2.67401e-11 45756.1)
(453757 -7886.06 -3.582e-11 -351.329 -2.59968e-11 46931.7)
(463623 -6826.98 -3.50677e-11 -251.405 -2.53119e-11 47961.3)
(472177 -5843.68 -3.43749e-11 -175.586 -2.46748e-11 48854.1)
(479493 -4918.64 -3.37293e-11 -122.386 -2.40742e-11 49618.1)
(485632 -4037.7 -3.31232e-11 -90.6351 -2.35009e-11 50259.8)
(490625 -3187.76 -3.25463e-11 -81.5028 -2.29461e-11 50782.4)
(494525 -2364.69 -3.19956e-11 -90.2103 -2.24075e-11 51191.7)
(497319 -1568.61 -3.14716e-11 -117.819 -2.18849e-11 51486.3)
(499132 -837.612 -3.09934e-11 -133.96 -2.14048e-11 51680.8)
(499921 -221.141 -3.05891e-11 -112.935 -2.09997e-11 51771.8)
(500109 18.2038 -3.03979e-11 144.042 -2.08497e-11 51812.9)
(336798 -64603.6 -7.36857e-11 -5406.24 -6.31072e-11 33813.4)
(354997 -58480.5 -6.96844e-11 -5698.9 -5.90823e-11 35738.3)
(372898 -52859.3 -6.59289e-11 -5436.4 -5.54039e-11 37665.4)
(388705 -47527.3 -6.23814e-11 -5244.41 -5.19121e-11 39369.5)
(403459 -42498.3 -5.90078e-11 -4863.08 -4.86242e-11 40975.3)
(416714 -37895.3 -5.59235e-11 -4528.59 -4.5614e-11 42418.8)
(428839 -33644.7 -5.30673e-11 -4156.08 -4.28361e-11 43744.4)
(439742 -29767.8 -5.04643e-11 -3828.17 -4.03018e-11 44936.7)
(449585 -26209.7 -4.80759e-11 -3522.24 -3.7976e-11 46014.6)
(458378 -22945.3 -4.58892e-11 -3263.67 -3.58412e-11 46977.8)
(466208 -19927.8 -4.38725e-11 -3044.6 -3.38671e-11 47836.2)
(473111 -17120.4 -4.20028e-11 -2870.13 -3.20293e-11 48593.8)
(479137 -14483.2 -4.02525e-11 -2734.31 -3.03015e-11 49256.7)
(484331 -11985.5 -3.86014e-11 -2629.08 -2.86638e-11 49830.4)
(488718 -9600.63 -3.7031e-11 -2543.71 -2.70993e-11 50318.6)
(492362 -7324.92 -3.55324e-11 -2445.27 -2.56062e-11 50730.4)
(495241 -5164.4 -3.41061e-11 -2302.02 -2.41896e-11 51065.7)
(497506 -3196.72 -3.2785e-11 -2002.14 -2.29038e-11 51346.7)
(498961 -1483.88 -3.15952e-11 -1437.85 -2.17929e-11 51560.4)
(500045 -354.378 -3.06923e-11 -240.574 -2.10841e-11 51773.3)
(384915 -90231.6 -9.15844e-11 -17373.2 -7.96999e-11 37497.6)
(395155 -82025.6 -8.62946e-11 -17693.7 -7.42936e-11 38637.9)
(406766 -74512.2 -8.12475e-11 -16647.3 -6.93846e-11 40006.4)
(416594 -67430.2 -7.65053e-11 -15717.4 -6.47547e-11 41178.2)
(426394 -60708.6 -7.19426e-11 -14424.5 -6.03725e-11 42368.2)
(435231 -54515.4 -6.77407e-11 -13238.4 -5.63345e-11 43444.6)
(443634 -48743.6 -6.38087e-11 -12029 -5.25745e-11 44472.3)
(451319 -43428.6 -6.01931e-11 -10947.6 -4.9111e-11 45410.8)
(458449 -38505.1 -5.68457e-11 -9962.06 -4.59021e-11 46280.2)
(464945 -33950.1 -5.37589e-11 -9115.21 -4.29316e-11 47069.8)
(470867 -29712.3 -5.08971e-11 -8393.65 -4.01658e-11 47787)
(476205 -25753.6 -4.82366e-11 -7801.01 -3.75796e-11 48431.4)
(480987 -22030.5 -4.57471e-11 -7322.1 -3.5145e-11 49007.6)
(485235 -18510.1 -4.34042e-11 -6937.06 -3.28405e-11 49519.4)
(488955 -15164.2 -4.11856e-11 -6614.78 -3.06488e-11 49970.5)
(492202 -11979.1 -3.90736e-11 -6293.66 -2.85624e-11 50370.8)
(494918 -8952.89 -3.70559e-11 -5899.27 -2.65824e-11 50719.8)
(497237 -6109.62 -3.51241e-11 -5264.48 -2.47294e-11 51043.1)
(498812 -3482.43 -3.3275e-11 -4203.33 -2.30304e-11 51317.8)
(500167 -1051.97 -3.14383e-11 -2335.04 -2.14837e-11 51625.3)
(435863 -106858 -1.03597e-10 -28766 -9.03802e-11 41641.4)
(438397 -97607.2 -9.77166e-11 -29332.6 -8.42709e-11 41992.4)
(444001 -89042.3 -9.19523e-11 -27750.1 -7.86783e-11 42801.3)
(447957 -81096 -8.66259e-11 -26380 -7.34855e-11 43417.7)
(452844 -73473 -8.14174e-11 -24418.9 -6.85235e-11 44167)
(457203 -66419 -7.65963e-11 -22589.6 -6.39322e-11 44844.8)
(461779 -59776.8 -7.20311e-11 -20704 -5.9614e-11 45542.9)
(466094 -53604.8 -6.77943e-11 -18989.2 -5.56008e-11 46195.2)
(470340 -47833.7 -6.38339e-11 -17407.1 -5.18476e-11 46825.3)
(474354 -42450.8 -6.01524e-11 -16022.3 -4.83443e-11 47411.9)
(478176 -37409.6 -5.67183e-11 -14820.5 -4.50609e-11 47960.8)
(481750 -32677.5 -5.3511e-11 -13809.1 -4.19753e-11 48466.4)
(485079 -28215.7 -5.05032e-11 -12966.8 -3.90627e-11 48930.9)
(488153 -23990.3 -4.76694e-11 -12268 -3.63015e-11 49355.7)
(490955 -19971.2 -4.49841e-11 -11670.1 -3.36731e-11 49742.4)
(493505 -16129 -4.24185e-11 -11101.9 -3.11602e-11 50098.8)
(495713 -12443.6 -3.99472e-11 -10476.1 -2.87521e-11 50422.1)
(497675 -8866.29 -3.75156e-11 -9631.5 -2.64211e-11 50734.4)
(498994 -5412.7 -3.51129e-11 -8402.36 -2.41819e-11 51007)
(500212 -1700.78 -3.24471e-11 -6490.22 -2.17921e-11 51322)
(484942 -113494 -1.09485e-10 -42159.8 -9.44185e-11 45594.3)
(480200 -104387 -1.03753e-10 -42826.3 -8.83938e-11 45193.2)
(480392 -95623.3 -9.77845e-11 -40485.5 -8.26861e-11 45506.9)
(478955 -87700.9 -9.2428e-11 -38579.6 -7.7519e-11 45610.9)
(479383 -79992.4 -8.70812e-11 -35849.4 -7.25182e-11 45961.5)
(479618 -72837.6 -8.21158e-11 -33290 -6.78773e-11 46272.2)
(480648 -66024.5 -7.73527e-11 -30643.9 -6.34648e-11 46665.4)
(481798 -59626.6 -7.28859e-11 -28209 -5.93199e-11 47049.7)
(483297 -53579.4 -6.86674e-11 -25942.9 -5.54019e-11 47452.3)
(484907 -47881.7 -6.47088e-11 -23932.4 -5.17067e-11 47843)
(486653 -42499.7 -6.09869e-11 -22164.4 -4.82128e-11 48225.6)
(488442 -37410.9 -5.74897e-11 -20652.3 -4.49047e-11 48590)
(490254 -32584.8 -5.41947e-11 -19374.6 -4.17631e-11 48936.1)
(492048 -27988.9 -5.10773e-11 -18306.7 -3.87671e-11 49262)
(493788 -23590.8 -4.81113e-11 -17403.4 -3.58967e-11 49567.8)
(495460 -19342.7 -4.52553e-11 -16598.6 -3.31221e-11 49857.3)
(496969 -15207.7 -4.24762e-11 -15810.4 -3.04216e-11 50127.4)
(498357 -11068.8 -3.96797e-11 -14912.4 -2.77216e-11 50393.1)
(499282 -6950.06 -3.68642e-11 -13773.9 -2.50411e-11 50628.5)
(500201 -2198.71 -3.35796e-11 -12194.9 -2.19564e-11 50904)
(532581 -111670 -1.09712e-10 -53941.4 -9.29267e-11 49637.6)
(520802 -103813 -1.04896e-10 -55114.4 -8.77038e-11 48463.7)
(516078 -95714.9 -9.93166e-11 -52296.4 -8.24436e-11 48300.3)
(509681 -88577.7 -9.44419e-11 -50023.6 -7.77993e-11 47913.1)
(505978 -81425.4 -8.93987e-11 -46744.4 -7.31768e-11 47873.4)
(502409 -74748.3 -8.46809e-11 -43611.9 -6.88632e-11 47830.1)
(500104 -68285.6 -8.00785e-11 -40371.5 -6.46955e-11 47920.3)
(498261 -62130 -7.57004e-11 -37343.1 -6.07242e-11 48038.2)
(497105 -56230.8 -7.15096e-11 -34497.2 -5.69175e-11 48209.5)
(496359 -50601.2 -6.75299e-11 -31933.9 -5.32807e-11 48398.3)
(496026 -45224.7 -6.375e-11 -29650 -4.98031e-11 48605.7)
(495988 -40092.2 -6.01687e-11 -27668.7 -4.64779e-11 48817.8)
(496206 -35183.7 -5.67709e-11 -25976.7 -4.32922e-11 49032.2)
(496616 -30471.4 -5.35369e-11 -24559.4 -4.02281e-11 49243.5)
(497169 -25922.7 -5.04417e-11 -23381.8 -3.72651e-11 49450)
(497820 -21476.5 -4.74396e-11 -22397.7 -3.43643e-11 49651.1)
(498493 -17085.3 -4.44913e-11 -21544.3 -3.14959e-11 49844.2)
(499168 -12582.2 -4.14788e-11 -20749.3 -2.8552e-11 50034.9)
(499632 -8015.02 -3.84214e-11 -19915.5 -2.5567e-11 50207.9)
(500151 -2532.81 -3.4758e-11 -18961.5 -2.19823e-11 50408.1)
(575584 -101839 -1.04504e-10 -63516 -8.62171e-11 53481.1)
(558177 -96320.4 -1.01302e-10 -65231.2 -8.25141e-11 51660.3)
(549286 -89848.9 -9.67815e-11 -62336.4 -7.83238e-11 51053.6)
(538711 -84103 -9.28447e-11 -60198.7 -7.45881e-11 50210.2)
(531460 -78189.1 -8.85792e-11 -56645.3 -7.07859e-11 49810.1)
(524535 -72494.3 -8.44604e-11 -53148.9 -6.71266e-11 49436.1)
(519242 -66854.6 -8.03432e-11 -49479 -6.35103e-11 49240.5)
(514672 -61331.1 -7.63225e-11 -45992.6 -5.99661e-11 49103.8)
(511052 -55932.9 -7.24002e-11 -42671.1 -5.65007e-11 49050.4)
(508075 -50685.4 -6.86122e-11 -39638.7 -5.31268e-11 49039.8)
(505736 -45600.3 -6.49668e-11 -36900.9 -4.98523e-11 49070.7)
(503897 -40685.6 -6.14763e-11 -34499.9 -4.66807e-11 49126)
(502511 -35935.4 -5.81362e-11 -32433.9 -4.36085e-11 49201.2)
(501496 -31330.2 -5.49363e-11 -30706.6 -4.06227e-11 49287.8)
(500804 -26841.2 -5.18538e-11 -29299.6 -3.77043e-11 49382.8)
(500362 -22399.9 -4.8844e-11 -28196.9 -3.48088e-11 49480.7)
(500132 -17956.6 -4.58701e-11 -27360.1 -3.19048e-11 49581.2)
(500026 -13314.2 -4.28031e-11 -26778.4 -2.88621e-11 49678.9)
(500010 -8550.24 -3.9684e-11 -26382.6 -2.57343e-11 49774.2)
(500075 -2689.96 -3.58932e-11 -26220.6 -2.18775e-11 49876.6)
(609977 -88335.5 -9.55128e-11 -70333.4 -7.6684e-11 56292.4)
(590334 -84603 -9.46056e-11 -72421.4 -7.46192e-11 54595)
(577698 -79676.1 -9.11761e-11 -70067 -7.14273e-11 53545)
(564865 -75768 -8.84516e-11 -68050.3 -6.8897e-11 52435.9)
(554637 -71158.7 -8.50994e-11 -64899 -6.59399e-11 51684.4)
(545231 -66781.1 -8.18343e-11 -61346.2 -6.31477e-11 51042.3)
(537359 -62257.3 -7.84371e-11 -57590.1 -6.02666e-11 50573.4)
(530459 -57668.2 -7.49986e-11 -53876.9 -5.73422e-11 50201.7)
(524611 -53035.4 -7.15389e-11 -50257 -5.43874e-11 49931.3)
(519589 -48421.8 -6.81208e-11 -46876.6 -5.14391e-11 49727.7)
(515361 -43855 -6.47665e-11 -43765.4 -4.8515e-11 49585.3)
(511797 -39370 -6.15091e-11 -40993.4 -4.56355e-11 49485)
(508849 -34974.7 -5.83577e-11 -38582.2 -4.28055e-11 49420.4)
(506424 -30663.1 -5.53123e-11 -36563.4 -4.00199e-11 49379.8)
(504484 -26412.4 -5.23605e-11 -34945.1 -3.72634e-11 49359.1)
(502933 -22157.9 -4.94641e-11 -33748.7 -3.44926e-11 49347.8)
(501785 -17852.9 -4.65914e-11 -32965.6 -3.16771e-11 49348.8)
(500878 -13290.4 -4.36185e-11 -32649.3 -2.86787e-11 49344.5)
(500386 -8576.97 -4.06059e-11 -32753.8 -2.55693e-11 49354.5)
(499980 -2679.54 -3.69183e-11 -33461.4 -2.16627e-11 49347)
(636195 -73890.5 -8.27875e-11 -75355.6 -6.529e-11 57318.5)
(616061 -72351.1 -8.52318e-11 -77388.6 -6.55268e-11 56272)
(605190 -68421.1 -8.45077e-11 -75176 -6.38922e-11 56146.3)
(587317 -65117.7 -8.23113e-11 -73930.6 -6.17331e-11 54458.7)
(575887 -62134.3 -8.00213e-11 -70849.6 -5.98441e-11 53556)
(564297 -58807.2 -7.74666e-11 -67454 -5.77373e-11 52664.6)
(554516 -55411.1 -7.48148e-11 -63766 -5.55954e-11 51979.8)
(545593 -51783 -7.20115e-11 -60092.1 -5.3301e-11 51384.9)
(537821 -47984.7 -6.90866e-11 -56381.6 -5.08968e-11 50912.6)
(530916 -44100.4 -6.61272e-11 -52852.3 -4.84316e-11 50517.1)
(524922 -40163.8 -6.31591e-11 -49535 -4.59267e-11 50200)
(519698 -36233.9 -6.02361e-11 -46536.2 -4.34179e-11 49938.5)
(515221 -32329.3 -5.73768e-11 -43900.8 -4.0916e-11 49726.9)
(511396 -28457 -5.45951e-11 -41691 -3.8424e-11 49550.8)
(508202 -24602.7 -5.18871e-11 -39943.1 -3.59312e-11 49405.7)
(505533 -20709.4 -4.92249e-11 -38717 -3.33981e-11 49277.3)
(503456 -16737 -4.65868e-11 -38038.2 -3.07978e-11 49171.1)
(501744 -12486.9 -4.38618e-11 -38020.6 -2.79961e-11 49058.7)
(500774 -8082.51 -4.11251e-11 -38644.8 -2.5075e-11 48978.1)
(499890 -2501.13 -3.77662e-11 -40218.3 -2.13512e-11 48855.1)
(662291 -56293.6 -6.81327e-11 -78381.1 -5.20434e-11 58663.4)
(640803 -56650.6 -7.18943e-11 -79397.1 -5.36609e-11 57612.3)
(623431 -54491.5 -7.34653e-11 -79925.7 -5.34279e-11 56873.2)
(610243 -51868.2 -7.4002e-11 -78333.3 -5.27742e-11 56566.9)
(593934 -50419.3 -7.31691e-11 -76360.2 -5.19845e-11 55171)
(581714 -48693.1 -7.1665e-11 -73088.4 -5.09286e-11 54183.2)
(569959 -46397.4 -6.9768e-11 -69651.5 -4.95026e-11 53263.1)
(559378 -43937.2 -6.77424e-11 -66099.8 -4.79727e-11 52473.5)
(549882 -41109.7 -6.54509e-11 -62380.4 -4.62067e-11 51811.8)
(541314 -38115.7 -6.30534e-11 -58712.4 -4.43302e-11 51243.6)
(533732 -34959 -6.05628e-11 -55162.1 -4.23445e-11 50770)
(527013 -31723.9 -5.80536e-11 -51870.8 -4.03004e-11 50367)
(521148 -28438.9 -5.55567e-11 -48925.2 -3.82144e-11 50027)
(516043 -25127.2 -5.31019e-11 -46427.8 -3.60986e-11 49732.9)
(511693 -21786.9 -5.06988e-11 -44453.9 -3.39497e-11 49478.6)
(507981 -18378.4 -4.83373e-11 -43106.8 -3.17386e-11 49245.4)
(505022 -14872.6 -4.60077e-11 -42450.6 -2.94443e-11 49040.8)
(502541 -11099.9 -4.36259e-11 -42656.1 -2.69499e-11 48827)
(501105 -7190.08 -4.12746e-11 -43738.4 -2.43409e-11 48658.9)
(499777 -2192.83 -3.84077e-11 -46110.3 -2.09788e-11 48424.8)
(684466 -38341.6 -5.37418e-11 -76632.6 -3.92007e-11 60385.8)
(662573 -36893.9 -5.64925e-11 -77620.5 -3.96958e-11 59377.8)
(641865 -38458.8 -6.08895e-11 -79874.4 -4.19371e-11 58183.1)
(624709 -37488.1 -6.30991e-11 -79406.2 -4.25239e-11 57527.3)
(611256 -37150.8 -6.46338e-11 -77031.7 -4.32397e-11 57081.8)
(595661 -36661.6 -6.40808e-11 -74719.1 -4.29679e-11 55662.9)
(583488 -35298.8 -6.28385e-11 -71647.9 -4.21456e-11 54660.4)
(571273 -33841.7 -6.15284e-11 -68525.1 -4.12627e-11 53658.6)
(560514 -31948.7 -5.98903e-11 -65126.5 -4.0102e-11 52831.6)
(550529 -29860.1 -5.81162e-11 -61684.3 -3.88145e-11 52089.5)
(541610 -27568.1 -5.62085e-11 -58271.6 -3.7393e-11 51457.1)
(533585 -25154.9 -5.42447e-11 -55047.1 -3.58872e-11 50904.2)
(526498 -22648.1 -5.22578e-11 -52121.3 -3.43122e-11 50426.8)
(520257 -20074.6 -5.02846e-11 -49623.8 -3.26819e-11 50006.1)
(514878 -17439 -4.83416e-11 -47660.2 -3.09959e-11 49636)
(510248 -14720.3 -4.64363e-11 -46364.6 -2.92369e-11 49295.4)
(506510 -11901.2 -4.45707e-11 -45835.9 -2.73908e-11 48992.3)
(503365 -8863.76 -4.26996e-11 -46280.7 -2.53732e-11 48683)
(501481 -5729.55 -4.09062e-11 -47758.4 -2.32637e-11 48429.5)
(499737 -1703.18 -3.8752e-11 -50739.1 -2.05231e-11 48095.2)
(686920 -16549 -4.01552e-11 -71143.3 -2.55363e-11 61800.1)
(666304 -17028.2 -4.40299e-11 -77427.3 -2.67718e-11 60192.1)
(646341 -20493.3 -4.94502e-11 -80017.2 -3.01501e-11 58931.4)
(629027 -22148.8 -5.32626e-11 -79868.9 -3.24e-11 58149.4)
(615401 -23084.3 -5.56695e-11 -77756.1 -3.39539e-11 57655.1)
(599511 -23302.2 -5.56052e-11 -75668.4 -3.41414e-11 56179.8)
(587321 -23072.5 -5.51397e-11 -72937.6 -3.40561e-11 55134.8)
(574831 -22394.7 -5.43663e-11 -70054.9 -3.36794e-11 54076.5)
(563836 -21427.3 -5.33541e-11 -66861.8 -3.31225e-11 53197.4)
(553515 -20220 -5.21701e-11 -63575.2 -3.2411e-11 52397.1)
(544245 -18832.6 -5.08633e-11 -60281.2 -3.15818e-11 51707.3)
(535833 -17306.4 -4.94855e-11 -57148.3 -3.06576e-11 51095.5)
(528349 -15670.2 -4.80709e-11 -54297.2 -2.96536e-11 50559.8)
(521711 -13944.8 -4.6655e-11 -51868.7 -2.85797e-11 50081.4)
(515947 -12134.7 -4.52558e-11 -49981.8 -2.74351e-11 49654.5)
(510965 -10238.6 -4.38951e-11 -48780.5 -2.62152e-11 49259.4)
(506916 -8241.81 -4.25781e-11 -48382.5 -2.49067e-11 48903.3)
(503523 -6093.18 -4.13038e-11 -48994.2 -2.34698e-11 48543.9)
(501494 -3893.77 -4.0147e-11 -50713.5 -2.19693e-11 48244.9)
(499650 -1093.66 -3.88229e-11 -53984.9 -2.00282e-11 47861.9)
(689834 6501.63 -2.56743e-11 -63670.5 -1.11881e-11 63496.6)
(669606 3547.44 -3.10356e-11 -72095 -1.38148e-11 61586.6)
(650724 -2155.41 -3.76572e-11 -75951.9 -1.84515e-11 60159.3)
(633616 -5977.32 -4.27744e-11 -77128.2 -2.19701e-11 59168.7)
(619412 -8346.71 -4.59522e-11 -76215.7 -2.42909e-11 58387.1)
(603513 -9501.21 -4.66041e-11 -74926.6 -2.50727e-11 56839.9)
(590785 -10348.1 -4.69077e-11 -72717.5 -2.56811e-11 55687.1)
(577910 -10552 -4.67648e-11 -70264.9 -2.58728e-11 54545.9)
(566518 -10551.6 -4.64193e-11 -67371.6 -2.59441e-11 53590.8)
(555831 -10273.9 -4.58696e-11 -64325.9 -2.58377e-11 52722.6)
(546222 -9823.67 -4.51933e-11 -61216.8 -2.56205e-11 51971.4)
(537487 -9208.81 -4.44242e-11 -58233.1 -2.52921e-11 51302.9)
(529697 -8462.71 -4.36012e-11 -55503 -2.4871e-11 50714.4)
(522773 -7602.88 -4.27576e-11 -53177.6 -2.43641e-11 50186.9)
(516737 -6640.69 -4.19194e-11 -51387.5 -2.37753e-11 49713.1)
(511525 -5595.38 -4.112e-11 -50279.6 -2.31129e-11 49275.7)
(507257 -4456.52 -4.03723e-11 -49995.2 -2.23664e-11 48876.8)
(503726 -3255.52 -3.97217e-11 -50703.2 -2.15511e-11 48482.7)
(501590 -2043.96 -3.92195e-11 -52557.2 -2.06974e-11 48148.9)
(499652 -503.518 -3.87202e-11 -55929.9 -1.95835e-11 47731)
(688405 26828.9 -1.35121e-11 -55762.6 1.09189e-12 64968.2)
(669453 22615.4 -1.94795e-11 -66024 -2.11203e-12 62867.1)
(651867 15462.6 -2.67891e-11 -70890.2 -7.50957e-12 61336.4)
(635990 10106.6 -3.26617e-11 -73281.2 -1.18312e-11 60213.9)
(620164 6732.29 -3.59423e-11 -74025.6 -1.44184e-11 58837.8)
(604898 4672.14 -3.72865e-11 -73539.5 -1.57743e-11 57284.8)
(591437 2811.5 -3.8322e-11 -71859 -1.7035e-11 56004.5)
(578501 1663.55 -3.88354e-11 -69752 -1.78388e-11 54818.7)
(566904 659.13 -3.91715e-11 -67101.6 -1.8565e-11 53810.8)
(556148 -32.1776 -3.92739e-11 -64259.3 -1.90912e-11 52907)
(546470 -545.213 -3.92421e-11 -61321 -1.95039e-11 52122.6)
(537689 -861.533 -3.90929e-11 -58487.4 -1.97845e-11 51425.2)
(529854 -1022.7 -3.88717e-11 -55887.1 -1.99574e-11 50809.8)
(522890 -1047.56 -3.86134e-11 -53673.8 -2.00304e-11 50257.5)
(516812 -956.683 -3.83487e-11 -51975 -2.00131e-11 49760.4)
(511582 -797.12 -3.81293e-11 -50941.5 -1.99323e-11 49302.9)
(507272 -548.821 -3.79605e-11 -50700.5 -1.97712e-11 48883.8)
(503789 -363.465 -3.7962e-11 -51406.9 -1.96253e-11 48480.2)
(501609 -106.881 -3.80808e-11 -53307.8 -1.93994e-11 48124.7)
(499622 148.901 -3.84042e-11 -56653.2 -1.91328e-11 47685.3)
(683968 45520.8 -2.78571e-12 -46964.3 1.20549e-11 66357.9)
(666526 39902.1 -9.38926e-12 -58518 8.15487e-12 64132.4)
(650786 31652.4 -1.70843e-11 -64325.9 2.25451e-12 62540.7)
(635294 26235.2 -2.25135e-11 -68392.2 -1.74395e-12 61067.4)
(617765 22338.6 -2.54632e-11 -70796.6 -4.22484e-12 59049.2)
(603254 18993.5 -2.77248e-11 -70981.6 -6.40904e-12 57506.4)
(589266 16180.9 -2.94567e-11 -69874.4 -8.27992e-12 56117.6)
(576629 13872.6 -3.07615e-11 -68097.7 -9.83921e-12 54921.9)
(565121 11828 -3.1808e-11 -65738.8 -1.12426e-11 53887.1)
(554619 10111.9 -3.26017e-11 -63140 -1.24372e-11 52977.1)