/*--------------------------------*- C++ -*----------------------------------*\
  =========                 |
  \\      /  F ield         | OpenFOAM: The Open Source CFD Toolbox
   \\    /   O peration     | Website:  https://openfoam.org
    \\  /    A nd           | Version:  9
     \\/     M anipulation  |
\*---------------------------------------------------------------------------*/
FoamFile
{
    format      ascii;
    class       volVectorField;
    location    "1";
    object      D;
}
// * * * * * * * * * * * * * * * * * * * * * * * * * * * * * * * * * * * * * //

dimensions      [0 1 0 0 0 0 0];

internalField   nonuniform List<vector> 
1000
(
(6.77958e-07 2.27216e-07 0)
(6.32838e-07 2.5096e-07 0)
(6.00041e-07 2.70931e-07 0)
(5.76368e-07 2.86529e-07 0)
(5.59506e-07 2.99985e-07 0)
(5.47643e-07 3.11553e-07 0)
(5.39649e-07 3.21971e-07 0)
(5.34618e-07 3.31453e-07 0)
(5.31835e-07 3.40295e-07 0)
(5.30934e-07 3.48673e-07 0)
(6.10963e-07 2.04842e-07 0)
(5.64087e-07 2.22091e-07 0)
(5.30232e-07 2.37212e-07 0)
(5.05898e-07 2.48876e-07 0)
(4.88585e-07 2.59114e-07 0)
(4.76357e-07 2.6791e-07 0)
(4.68012e-07 2.75883e-07 0)
(4.6259e-07 2.83169e-07 0)
(4.59355e-07 2.89924e-07 0)
(4.57812e-07 2.9651e-07 0)
(5.42536e-07 1.82427e-07 0)
(4.95206e-07 1.92755e-07 0)
(4.61221e-07 2.02821e-07 0)
(4.36921e-07 2.10504e-07 0)
(4.19687e-07 2.17579e-07 0)
(4.07512e-07 2.23719e-07 0)
(3.99144e-07 2.29407e-07 0)
(3.93602e-07 2.34669e-07 0)
(3.90144e-07 2.39538e-07 0)
(3.8825e-07 2.44415e-07 0)
(4.73022e-07 1.60329e-07 0)
(4.26603e-07 1.63582e-07 0)
(3.93482e-07 1.68576e-07 0)
(3.69966e-07 1.72361e-07 0)
(3.53387e-07 1.76428e-07 0)
(3.41714e-07 1.80103e-07 0)
(3.33687e-07 1.83721e-07 0)
(3.28314e-07 1.87175e-07 0)
(3.24897e-07 1.90395e-07 0)
(3.22868e-07 1.93746e-07 0)
(4.02593e-07 1.38881e-07 0)
(3.58494e-07 1.35192e-07 0)
(3.27279e-07 1.35316e-07 0)
(3.05356e-07 1.35456e-07 0)
(2.90048e-07 1.36807e-07 0)
(2.7935e-07 1.38321e-07 0)
(2.72024e-07 1.40178e-07 0)
(2.67102e-07 1.42114e-07 0)
(2.63947e-07 1.43978e-07 0)
(2.61974e-07 1.46041e-07 0)
(3.31552e-07 1.18232e-07 0)
(2.91075e-07 1.08022e-07 0)
(2.62838e-07 1.03748e-07 0)
(2.43348e-07 1.00705e-07 0)
(2.29945e-07 9.98018e-08 0)
(2.20693e-07 9.95858e-08 0)
(2.14414e-07 1.00085e-07 0)
(2.102e-07 1.0087e-07 0)
(2.07496e-07 1.01726e-07 0)
(2.0573e-07 1.02809e-07 0)
(2.5963e-07 9.8369e-08 0)
(2.24192e-07 8.23642e-08 0)
(2.00089e-07 7.4504e-08 0)
(1.83933e-07 6.90338e-08 0)
(1.73086e-07 6.6546e-08 0)
(1.65729e-07 6.51746e-08 0)
(1.60805e-07 6.48034e-08 0)
(1.57511e-07 6.48546e-08 0)
(1.55398e-07 6.508e-08 0)
(1.53959e-07 6.55182e-08 0)
(1.87337e-07 7.87263e-08 0)
(1.58124e-07 5.81228e-08 0)
(1.394e-07 4.80763e-08 0)
(1.27441e-07 4.13461e-08 0)
(1.19691e-07 3.81949e-08 0)
(1.14545e-07 3.63889e-08 0)
(1.11158e-07 3.57012e-08 0)
(1.08895e-07 3.54672e-08 0)
(1.07442e-07 3.54415e-08 0)
(1.06398e-07 3.55756e-08 0)
(1.13058e-07 5.73666e-08 0)
(9.24196e-08 3.46038e-08 0)
(8.05829e-08 2.47416e-08 0)
(7.3571e-08 1.86091e-08 0)
(6.93274e-08 1.59823e-08 0)
(6.65569e-08 1.45351e-08 0)
(6.47745e-08 1.4035e-08 0)
(6.35607e-08 1.38706e-08 0)
(6.27685e-08 1.38624e-08 0)
(6.21485e-08 1.39351e-08 0)
(3.8949e-08 3.00148e-08 0)
(2.93872e-08 1.27311e-08 0)
(2.57493e-08 6.66332e-09 0)
(2.38299e-08 3.61516e-09 0)
(2.2718e-08 2.56647e-09 0)
(2.19431e-08 2.09381e-09 0)
(2.14385e-08 2.02911e-09 0)
(2.10699e-08 2.07031e-09 0)
(2.08198e-08 2.14903e-09 0)
(2.05997e-08 2.23562e-09 0)
(1.19535e-06 3.68482e-07 0)
(1.19357e-06 4.14313e-07 0)
(1.1924e-06 4.5701e-07 0)
(1.19264e-06 4.96089e-07 0)
(1.19463e-06 5.31952e-07 0)
(1.1985e-06 5.65046e-07 0)
(1.20428e-06 5.95888e-07 0)
(1.21184e-06 6.2493e-07 0)
(1.22112e-06 6.52525e-07 0)
(1.23189e-06 6.79068e-07 0)
(1.1579e-06 3.65428e-07 0)
(1.15278e-06 4.11124e-07 0)
(1.14937e-06 4.53296e-07 0)
(1.14796e-06 4.91584e-07 0)
(1.14876e-06 5.26481e-07 0)
(1.15163e-06 5.58463e-07 0)
(1.15651e-06 5.88098e-07 0)
(1.16315e-06 6.15861e-07 0)
(1.17149e-06 6.42123e-07 0)
(1.18119e-06 6.67331e-07 0)
(1.11816e-06 3.59259e-07 0)
(1.1091e-06 4.04836e-07 0)
(1.10262e-06 4.46146e-07 0)
(1.0988e-06 4.83193e-07 0)
(1.09768e-06 5.16728e-07 0)
(1.09895e-06 5.47294e-07 0)
(1.10241e-06 5.75499e-07 0)
(1.10773e-06 6.01825e-07 0)
(1.11479e-06 6.26655e-07 0)
(1.12317e-06 6.50451e-07 0)
(1.07522e-06 3.50303e-07 0)
(1.06172e-06 3.9566e-07 0)
(1.05167e-06 4.35913e-07 0)
(1.04498e-06 4.71445e-07 0)
(1.04152e-06 5.03343e-07 0)
(1.04079e-06 5.32232e-07 0)
(1.0425e-06 5.58776e-07 0)
(1.04622e-06 5.83461e-07 0)
(1.0518e-06 6.06686e-07 0)
(1.05867e-06 6.28906e-07 0)
(1.02856e-06 3.38646e-07 0)
(1.0102e-06 3.8342e-07 0)
(9.96338e-07 4.22284e-07 0)
(9.86621e-07 4.55952e-07 0)
(9.80672e-07 4.85895e-07 0)
(9.77831e-07 5.1282e-07 0)
(9.777e-07 5.37458e-07 0)
(9.79734e-07 5.60289e-07 0)
(9.83754e-07 5.81736e-07 0)
(9.89086e-07 6.02221e-07 0)
(9.78133e-07 3.24557e-07 0)
(9.54633e-07 3.68131e-07 0)
(9.36874e-07 4.05203e-07 0)
(9.24132e-07 4.3669e-07 0)
(9.15719e-07 4.64415e-07 0)
(9.10792e-07 4.89143e-07 0)
(9.0884e-07 5.1167e-07 0)
(9.09219e-07 5.32464e-07 0)
(9.11714e-07 5.51974e-07 0)
(9.1555e-07 5.70569e-07 0)
(9.24061e-07 3.08248e-07 0)
(8.95347e-07 3.49792e-07 0)
(8.73774e-07 3.84563e-07 0)
(8.58143e-07 4.13522e-07 0)
(8.47417e-07 4.38774e-07 0)
(8.4055e-07 4.61101e-07 0)
(8.36908e-07 4.81348e-07 0)
(8.3576e-07 4.99961e-07 0)
(8.36837e-07 5.17406e-07 0)
(8.39303e-07 5.33994e-07 0)
(8.66628e-07 2.90025e-07 0)
(8.32878e-07 3.28575e-07 0)
(8.07732e-07 3.60482e-07 0)
(7.89458e-07 3.86568e-07 0)
(7.76658e-07 4.09124e-07 0)
(7.68071e-07 4.28889e-07 0)
(7.62936e-07 4.46738e-07 0)
(7.60446e-07 4.63064e-07 0)
(7.60265e-07 4.78361e-07 0)
(7.61539e-07 4.92837e-07 0)
(8.06196e-07 2.70199e-07 0)
(7.67859e-07 3.04745e-07 0)
(7.39549e-07 3.33204e-07 0)
(7.18989e-07 3.56078e-07 0)
(7.04431e-07 3.75739e-07 0)
(6.94408e-07 3.92824e-07 0)
(6.88024e-07 4.08195e-07 0)
(6.84418e-07 4.22195e-07 0)
(6.83159e-07 4.35282e-07 0)
(6.83458e-07 4.47619e-07 0)
(7.43169e-07 2.49133e-07 0)
(7.0096e-07 2.78705e-07 0)
(6.70049e-07 3.0316e-07 0)
(6.47656e-07 3.22519e-07 0)
(6.3172e-07 3.39131e-07 0)
(6.20583e-07 3.53465e-07 0)
(6.13232e-07 3.66344e-07 0)
(6.0876e-07 3.78016e-07 0)
(6.06638e-07 3.88931e-07 0)
(6.06242e-07 3.98994e-07 0)
(1.24472e-06 7.04598e-07 0)
(1.25942e-06 7.29935e-07 0)
(1.27523e-06 7.54865e-07 0)
(1.29203e-06 7.79506e-07 0)
(1.30974e-06 8.03984e-07 0)
(1.32824e-06 8.28372e-07 0)
(1.34747e-06 8.52752e-07 0)
(1.36734e-06 8.7718e-07 0)
(1.38778e-06 9.01712e-07 0)
(1.40874e-06 9.26389e-07 0)
(1.43014e-06 9.51249e-07 0)
(1.45194e-06 9.76322e-07 0)
(1.47408e-06 1.00164e-06 0)
(1.4965e-06 1.02721e-06 0)
(1.51916e-06 1.05306e-06 0)
(1.54201e-06 1.07919e-06 0)
(1.56499e-06 1.10559e-06 0)
(1.58807e-06 1.13226e-06 0)
(1.61119e-06 1.15913e-06 0)
(1.6343e-06 1.18613e-06 0)
(1.19456e-06 6.91894e-07 0)
(1.21105e-06 7.1681e-07 0)
(1.22841e-06 7.41342e-07 0)
(1.2465e-06 7.65632e-07 0)
(1.26531e-06 7.89812e-07 0)
(1.28473e-06 8.13946e-07 0)
(1.30473e-06 8.3812e-07 0)
(1.32525e-06 8.62384e-07 0)
(1.34624e-06 8.86794e-07 0)
(1.36765e-06 9.11387e-07 0)
(1.38944e-06 9.362e-07 0)
(1.41157e-06 9.61262e-07 0)
(1.43398e-06 9.86599e-07 0)
(1.45666e-06 1.01223e-06 0)
(1.47956e-06 1.03817e-06 0)
(1.50264e-06 1.06442e-06 0)
(1.52587e-06 1.09098e-06 0)
(1.54921e-06 1.11784e-06 0)
(1.57263e-06 1.14493e-06 0)
(1.59608e-06 1.17221e-06 0)
(1.13727e-06 6.74285e-07 0)
(1.15606e-06 6.99245e-07 0)
(1.17548e-06 7.23835e-07 0)
(1.19536e-06 7.48174e-07 0)
(1.21573e-06 7.72421e-07 0)
(1.23652e-06 7.96627e-07 0)
(1.25772e-06 8.20891e-07 0)
(1.27928e-06 8.45259e-07 0)
(1.3012e-06 8.69791e-07 0)
(1.32342e-06 8.94523e-07 0)
(1.34594e-06 9.19495e-07 0)
(1.36872e-06 9.44736e-07 0)
(1.39173e-06 9.70271e-07 0)
(1.41496e-06 9.96122e-07 0)
(1.43838e-06 1.0223e-06 0)
(1.46197e-06 1.04883e-06 0)
(1.4857e-06 1.0757e-06 0)
(1.50955e-06 1.1029e-06 0)
(1.53348e-06 1.13041e-06 0)
(1.55743e-06 1.1582e-06 0)
(1.07368e-06 6.52155e-07 0)
(1.09521e-06 6.77522e-07 0)
(1.11714e-06 7.02533e-07 0)
(1.13921e-06 7.27245e-07 0)
(1.16156e-06 7.51865e-07 0)
(1.1841e-06 7.76421e-07 0)
(1.20687e-06 8.01033e-07 0)
(1.22984e-06 8.25743e-07 0)
(1.25301e-06 8.50616e-07 0)
(1.27637e-06 8.75693e-07 0)
(1.29991e-06 9.01016e-07 0)
(1.32363e-06 9.26615e-07 0)
(1.34751e-06 9.5252e-07 0)
(1.37155e-06 9.78755e-07 0)
(1.39574e-06 1.00534e-06 0)
(1.42005e-06 1.03229e-06 0)
(1.44449e-06 1.05962e-06 0)
(1.46902e-06 1.08734e-06 0)
(1.49363e-06 1.11544e-06 0)
(1.51825e-06 1.14392e-06 0)
(1.00518e-06 6.25083e-07 0)
(1.02978e-06 6.51265e-07 0)
(1.05455e-06 6.77115e-07 0)
(1.07913e-06 7.02568e-07 0)
(1.10377e-06 7.27905e-07 0)
(1.12835e-06 7.53128e-07 0)
(1.15297e-06 7.78376e-07 0)
(1.17761e-06 8.03693e-07 0)
(1.20229e-06 8.29153e-07 0)
(1.22703e-06 8.548e-07 0)
(1.25184e-06 8.80682e-07 0)
(1.27671e-06 9.06834e-07 0)
(1.30167e-06 9.33291e-07 0)
(1.3267e-06 9.60081e-07 0)
(1.35183e-06 9.87231e-07 0)
(1.37704e-06 1.01477e-06 0)
(1.40233e-06 1.04271e-06 0)
(1.42769e-06 1.07109e-06 0)
(1.45311e-06 1.09994e-06 0)
(1.47853e-06 1.12926e-06 0)
(9.32878e-07 5.93227e-07 0)
(9.60779e-07 6.20607e-07 0)
(9.88638e-07 6.47681e-07 0)
(1.01596e-06 6.74223e-07 0)
(1.04312e-06 7.00601e-07 0)
(1.06997e-06 7.2679e-07 0)
(1.09667e-06 7.52952e-07 0)
(1.12318e-06 7.79135e-07 0)
(1.14959e-06 8.0542e-07 0)
(1.1759e-06 8.3186e-07 0)
(1.20214e-06 8.58507e-07 0)
(1.22835e-06 8.85405e-07 0)
(1.25453e-06 9.12592e-07 0)
(1.28072e-06 9.40105e-07 0)
(1.30692e-06 9.67978e-07 0)
(1.33315e-06 9.96245e-07 0)
(1.35942e-06 1.02494e-06 0)
(1.38571e-06 1.05411e-06 0)
(1.41204e-06 1.08382e-06 0)
(1.43836e-06 1.1141e-06 0)
(8.57979e-07 5.56647e-07 0)
(8.89297e-07 5.85609e-07 0)
(9.20401e-07 6.14283e-07 0)
(9.50616e-07 6.42269e-07 0)
(9.80451e-07 6.70003e-07 0)
(1.00973e-06 6.97458e-07 0)
(1.03865e-06 7.24805e-07 0)
(1.0672e-06 7.52106e-07 0)
(1.09547e-06 7.79451e-07 0)
(1.12349e-06 8.06903e-07 0)
(1.1513e-06 8.34521e-07 0)
(1.17896e-06 8.62356e-07 0)
(1.20649e-06 8.90454e-07 0)
(1.23393e-06 9.18857e-07 0)
(1.26131e-06 9.47608e-07 0)
(1.28865e-06 9.76749e-07 0)
(1.31597e-06 1.00633e-06 0)
(1.34328e-06 1.03641e-06 0)
(1.3706e-06 1.06707e-06 0)
(1.39791e-06 1.09837e-06 0)
(7.81605e-07 5.15673e-07 0)
(8.16352e-07 5.46577e-07 0)
(8.50738e-07 5.77153e-07 0)
(8.83918e-07 6.06909e-07 0)
(9.16496e-07 6.36283e-07 0)
(9.48301e-07 6.65289e-07 0)
(9.7954e-07 6.94083e-07 0)
(1.01023e-06 7.22751e-07 0)
(1.04046e-06 7.51386e-07 0)
(1.07029e-06 7.80063e-07 0)
(1.09977e-06 8.08849e-07 0)
(1.12897e-06 8.37804e-07 0)
(1.15793e-06 8.6698e-07 0)
(1.1867e-06 8.9643e-07 0)
(1.21531e-06 9.262e-07 0)
(1.24382e-06 9.56344e-07 0)
(1.27225e-06 9.86921e-07 0)
(1.30062e-06 1.018e-06 0)
(1.32898e-06 1.04968e-06 0)
(1.35733e-06 1.08204e-06 0)
(7.04906e-07 4.70689e-07 0)
(7.42994e-07 5.03914e-07 0)
(7.80575e-07 5.36626e-07 0)
(8.16737e-07 5.68453e-07 0)
(8.52052e-07 5.99704e-07 0)
(8.86411e-07 6.30488e-07 0)
(9.19996e-07 6.60943e-07 0)
(9.52858e-07 6.91184e-07 0)
(9.85095e-07 7.2131e-07 0)
(1.01678e-06 7.51407e-07 0)
(1.04798e-06 7.81551e-07 0)
(1.07876e-06 8.11807e-07 0)
(1.1092e-06 8.42234e-07 0)
(1.13933e-06 8.72887e-07 0)
(1.16923e-06 9.03823e-07 0)
(1.19894e-06 9.35097e-07 0)
(1.2285e-06 9.66777e-07 0)
(1.25798e-06 9.98935e-07 0)
(1.28739e-06 1.03169e-06 0)
(1.31682e-06 1.06512e-06 0)
(6.28783e-07 4.22388e-07 0)
(6.70037e-07 4.5817e-07 0)
(7.10479e-07 4.93086e-07 0)
(7.49552e-07 5.27203e-07 0)
(7.87552e-07 5.60582e-07 0)
(8.24479e-07 5.93385e-07 0)
(8.60447e-07 6.25733e-07 0)
(8.95528e-07 6.57754e-07 0)
(9.29817e-07 6.8956e-07 0)
(9.63396e-07 7.21248e-07 0)
(9.96349e-07 7.52906e-07 0)
(1.02875e-06 7.84608e-07 0)
(1.06068e-06 8.16421e-07 0)
(1.0922e-06 8.48407e-07 0)
(1.12339e-06 8.80623e-07 0)
(1.15431e-06 9.13131e-07 0)
(1.18501e-06 9.46e-07 0)
(1.21558e-06 9.79304e-07 0)
(1.24605e-06 1.01317e-06 0)
(1.27654e-06 1.04766e-06 0)
(5.70115e-07 3.86158e-07 0)
(6.13125e-07 4.23798e-07 0)
(6.55069e-07 4.59959e-07 0)
(6.95719e-07 4.9538e-07 0)
(7.35243e-07 5.3006e-07 0)
(7.73645e-07 5.6415e-07 0)
(8.11025e-07 5.97763e-07 0)
(8.47443e-07 6.31011e-07 0)
(8.8299e-07 6.63997e-07 0)
(9.1774e-07 6.96813e-07 0)
(9.51779e-07 7.29541e-07 0)
(9.85183e-07 7.62254e-07 0)
(1.01803e-06 7.95017e-07 0)
(1.0504e-06 8.27888e-07 0)
(1.08236e-06 8.60923e-07 0)
(1.11399e-06 8.94179e-07 0)
(1.14535e-06 9.27721e-07 0)
(1.17653e-06 9.61616e-07 0)
(1.20759e-06 9.95971e-07 0)
(1.23869e-06 1.03085e-06 0)
(5.31038e-07 3.64462e-07 0)
(5.74051e-07 4.02094e-07 0)
(6.16005e-07 4.38547e-07 0)
(6.56786e-07 4.74366e-07 0)
(6.96508e-07 5.09539e-07 0)
(7.3516e-07 5.4417e-07 0)
(7.72824e-07 5.78349e-07 0)
(8.09544e-07 6.12166e-07 0)
(8.45395e-07 6.45705e-07 0)
(8.80443e-07 6.79045e-07 0)
(9.14763e-07 7.12258e-07 0)
(9.48426e-07 7.45406e-07 0)
(9.81507e-07 7.78548e-07 0)
(1.01408e-06 8.11734e-07 0)
(1.04621e-06 8.45016e-07 0)
(1.07799e-06 8.78443e-07 0)
(1.10947e-06 9.12067e-07 0)
(1.14077e-06 9.45946e-07 0)
(1.17192e-06 9.80164e-07 0)
(1.20313e-06 1.01477e-06 0)
(4.96552e-07 3.43635e-07 0)
(5.38791e-07 3.8115e-07 0)
(5.80315e-07 4.17704e-07 0)
(6.20783e-07 4.53764e-07 0)
(6.60343e-07 4.89289e-07 0)
(6.9892e-07 5.24347e-07 0)
(7.36587e-07 5.59003e-07 0)
(7.73359e-07 5.9332e-07 0)
(8.09299e-07 6.27364e-07 0)
(8.44457e-07 6.61194e-07 0)
(8.78898e-07 6.9487e-07 0)
(9.12684e-07 7.28442e-07 0)
(9.45884e-07 7.61957e-07 0)
(9.78566e-07 7.95458e-07 0)
(1.0108e-06 8.28986e-07 0)
(1.04266e-06 8.6258e-07 0)
(1.07422e-06 8.9628e-07 0)
(1.10559e-06 9.30129e-07 0)
(1.13681e-06 9.64177e-07 0)
(1.16809e-06 9.98461e-07 0)
(4.65649e-07 3.23579e-07 0)
(5.06878e-07 3.60786e-07 0)
(5.47658e-07 3.97302e-07 0)
(5.87523e-07 4.335e-07 0)
(6.26637e-07 4.69294e-07 0)
(6.64877e-07 5.04711e-07 0)
(7.02305e-07 5.39786e-07 0)
(7.38911e-07 5.74556e-07 0)
(7.74744e-07 6.09066e-07 0)
(8.09839e-07 6.43356e-07 0)
(8.44249e-07 6.7747e-07 0)
(8.78029e-07 7.11447e-07 0)
(9.11237e-07 7.45321e-07 0)
(9.43938e-07 7.79126e-07 0)
(9.76195e-07 8.12891e-07 0)
(1.00808e-06 8.46644e-07 0)
(1.03967e-06 8.80407e-07 0)
(1.07106e-06 9.14213e-07 0)
(1.10232e-06 9.48081e-07 0)
(1.13364e-06 9.82018e-07 0)
(4.37974e-07 3.04505e-07 0)
(4.77967e-07 3.4129e-07 0)
(5.17749e-07 3.7765e-07 0)
(5.56768e-07 4.13864e-07 0)
(5.952e-07 4.49813e-07 0)
(6.32883e-07 4.8549e-07 0)
(6.69865e-07 5.20899e-07 0)
(7.06117e-07 5.56049e-07 0)
(7.41673e-07 5.90963e-07 0)
(7.76552e-07 6.25664e-07 0)
(8.10797e-07 6.60177e-07 0)
(8.44453e-07 6.94526e-07 0)
(8.77569e-07 7.28735e-07 0)
(9.10201e-07 7.62824e-07 0)
(9.42411e-07 7.9681e-07 0)
(9.74264e-07 8.30708e-07 0)
(1.00583e-06 8.64527e-07 0)
(1.03719e-06 8.98279e-07 0)
(1.06847e-06 9.31937e-07 0)
(1.09981e-06 9.65519e-07 0)
(4.12994e-07 2.86401e-07 0)
(4.51627e-07 3.2266e-07 0)
(4.90245e-07 3.58759e-07 0)
(5.2825e-07 3.94893e-07 0)
(5.65822e-07 4.30904e-07 0)
(6.02774e-07 4.66758e-07 0)
(6.39142e-07 5.02424e-07 0)
(6.7488e-07 5.37888e-07 0)
(7.1001e-07 5.73148e-07 0)
(7.4454e-07 6.08207e-07 0)
(7.785e-07 6.43074e-07 0)
(8.11925e-07 6.77759e-07 0)
(8.44857e-07 7.12271e-07 0)
(8.77346e-07 7.46618e-07 0)
(9.09443e-07 7.80805e-07 0)
(9.41213e-07 8.14831e-07 0)
(9.72714e-07 8.48692e-07 0)
(1.00404e-06 8.82369e-07 0)
(1.03526e-06 9.15832e-07 0)
(1.06654e-06 9.49076e-07 0)
(3.90274e-07 2.69279e-07 0)
(4.27472e-07 3.04952e-07 0)
(4.64808e-07 3.40716e-07 0)
(5.01677e-07 3.76684e-07 0)
(5.38254e-07 4.12674e-07 0)
(5.74337e-07 4.48622e-07 0)
(6.09955e-07 4.84468e-07 0)
(6.4505e-07 5.20174e-07 0)
(6.79633e-07 5.55716e-07 0)
(7.13699e-07 5.91076e-07 0)
(7.47272e-07 6.26248e-07 0)
(7.80375e-07 6.61224e-07 0)
(8.13043e-07 6.96002e-07 0)
(8.45318e-07 7.30575e-07 0)
(8.77244e-07 7.64937e-07 0)
(9.08879e-07 7.99073e-07 0)
(9.40277e-07 8.32963e-07 0)
(9.71523e-07 8.66576e-07 0)
(1.00266e-06 8.99849e-07 0)
(1.03387e-06 9.32755e-07 0)
(3.6939e-07 2.53097e-07 0)
(4.05115e-07 2.88144e-07 0)
(4.41099e-07 3.23517e-07 0)
(4.7675e-07 3.59256e-07 0)
(5.12234e-07 3.95156e-07 0)
(5.47347e-07 4.3113e-07 0)
(5.82111e-07 4.67088e-07 0)
(6.16459e-07 5.02972e-07 0)
(6.50394e-07 5.38733e-07 0)
(6.83904e-07 5.74338e-07 0)
(7.17002e-07 6.09762e-07 0)
(7.49706e-07 6.44984e-07 0)
(7.82041e-07 6.79987e-07 0)
(8.14042e-07 7.14752e-07 0)
(8.45747e-07 7.49261e-07 0)
(8.77205e-07 7.83488e-07 0)
(9.0846e-07 8.17396e-07 0)
(9.39591e-07 8.5094e-07 0)
(9.70634e-07 8.84038e-07 0)
(1.00174e-06 9.16644e-07 0)
(3.49962e-07 2.37805e-07 0)
(3.84201e-07 2.72216e-07 0)
(4.18792e-07 3.07166e-07 0)
(4.53169e-07 3.42629e-07 0)
(4.87492e-07 3.78386e-07 0)
(5.21561e-07 4.14325e-07 0)
(5.55391e-07 4.50335e-07 0)
(5.88912e-07 4.86334e-07 0)
(6.22121e-07 5.22256e-07 0)
(6.55e-07 5.5805e-07 0)
(6.87555e-07 5.93674e-07 0)
(7.19795e-07 6.29093e-07 0)
(7.51741e-07 6.64278e-07 0)
(7.83418e-07 6.99199e-07 0)
(8.14858e-07 7.33826e-07 0)
(8.46101e-07 7.68122e-07 0)
(8.77185e-07 8.02039e-07 0)
(9.08173e-07 8.3552e-07 0)
(9.39093e-07 8.68463e-07 0)
(9.70073e-07 9.0081e-07 0)
(3.31638e-07 2.23344e-07 0)
(3.64391e-07 2.57127e-07 0)
(3.97567e-07 2.91638e-07 0)
(4.30639e-07 3.26796e-07 0)
(4.63755e-07 3.6237e-07 0)
(4.96727e-07 3.98228e-07 0)
(5.29566e-07 4.34236e-07 0)
(5.62201e-07 4.70296e-07 0)
(5.94625e-07 5.06324e-07 0)
(6.26815e-07 5.42252e-07 0)
(6.58772e-07 5.78024e-07 0)
(6.90499e-07 6.13593e-07 0)
(7.2201e-07 6.48917e-07 0)
(7.53324e-07 6.83956e-07 0)
(7.84464e-07 7.1867e-07 0)
(8.15463e-07 7.53015e-07 0)
(8.4635e-07 7.86931e-07 0)
(8.77173e-07 8.20354e-07 0)
(9.07953e-07 8.53169e-07 0)
(9.38784e-07 8.85309e-07 0)
(3.14097e-07 2.09658e-07 0)
(3.4537e-07 2.42837e-07 0)
(3.77121e-07 2.7691e-07 0)
(4.08867e-07 3.11746e-07 0)
(4.40748e-07 3.47109e-07 0)
(4.72587e-07 3.82846e-07 0)
(5.04395e-07 4.18808e-07 0)
(5.36103e-07 4.54881e-07 0)
(5.677e-07 4.90963e-07 0)
(5.9916e-07 5.26974e-07 0)
(6.3048e-07 5.62845e-07 0)
(6.61658e-07 5.98516e-07 0)
(6.92701e-07 6.33935e-07 0)
(7.23622e-07 6.69055e-07 0)
(7.54437e-07 7.03826e-07 0)
(7.85169e-07 7.38197e-07 0)
(8.15839e-07 7.72104e-07 0)
(8.46481e-07 8.05478e-07 0)
(8.77106e-07 8.38195e-07 0)
(9.07773e-07 8.70186e-07 0)
(2.97036e-07 1.96698e-07 0)
(3.26833e-07 2.29309e-07 0)
(3.57155e-07 2.62952e-07 0)
(3.87565e-07 2.97462e-07 0)
(4.18192e-07 3.32594e-07 0)
(4.48878e-07 3.6818e-07 0)
(4.79631e-07 4.04059e-07 0)
(5.10386e-07 4.401e-07 0)
(5.4113e-07 4.7619e-07 0)
(5.71835e-07 5.12236e-07 0)
(6.02494e-07 5.48157e-07 0)
(6.331e-07 5.83884e-07 0)
(6.63654e-07 6.19357e-07 0)
(6.94162e-07 6.54518e-07 0)
(7.24635e-07 6.89315e-07 0)
(7.55086e-07 7.23692e-07 0)
(7.85526e-07 7.57581e-07 0)
(8.15976e-07 7.90912e-07 0)
(8.46437e-07 8.23564e-07 0)
(8.76934e-07 8.55467e-07 0)
(2.80162e-07 1.8442e-07 0)
(3.08485e-07 2.16503e-07 0)
(3.37374e-07 2.49736e-07 0)
(3.66441e-07 2.83922e-07 0)
(3.95806e-07 3.1881e-07 0)
(4.25329e-07 3.54222e-07 0)
(4.55017e-07 3.89983e-07 0)
(4.84808e-07 4.25953e-07 0)
(5.14689e-07 4.62008e-07 0)
(5.44629e-07 4.98044e-07 0)
(5.74617e-07 5.3397e-07 0)
(6.04642e-07 5.69709e-07 0)
(6.34699e-07 6.05193e-07 0)
(6.64787e-07 6.40361e-07 0)
(6.9491e-07 6.75153e-07 0)
(7.25073e-07 7.09513e-07 0)
(7.55278e-07 7.43374e-07 0)
(7.85532e-07 7.76669e-07 0)
(8.15826e-07 8.09286e-07 0)
(8.46151e-07 8.41162e-07 0)
(2.63189e-07 1.72805e-07 0)
(2.9003e-07 2.04404e-07 0)
(3.1748e-07 2.37245e-07 0)
(3.45202e-07 2.71111e-07 0)
(3.73304e-07 3.05745e-07 0)
(4.01665e-07 3.4096e-07 0)
(4.30289e-07 3.76574e-07 0)
(4.59121e-07 4.12436e-07 0)
(4.88142e-07 4.48415e-07 0)
(5.17323e-07 4.84397e-07 0)
(5.46646e-07 5.20284e-07 0)
(5.76096e-07 5.55993e-07 0)
(6.05662e-07 5.91449e-07 0)
(6.35335e-07 6.26586e-07 0)
(6.65112e-07 6.61344e-07 0)
(6.94989e-07 6.95664e-07 0)
(7.24962e-07 7.29486e-07 0)
(7.55021e-07 7.62749e-07 0)
(7.85151e-07 7.95357e-07 0)
(8.15312e-07 8.2726e-07 0)
(2.45818e-07 1.6182e-07 0)
(2.71162e-07 1.92977e-07 0)
(2.97165e-07 2.25448e-07 0)
(3.23541e-07 2.58998e-07 0)
(3.50386e-07 2.93369e-07 0)
(3.77596e-07 3.28368e-07 0)
(4.05173e-07 3.63805e-07 0)
(4.33063e-07 3.99526e-07 0)
(4.61246e-07 4.35389e-07 0)
(4.8969e-07 4.71276e-07 0)
(5.18372e-07 5.07084e-07 0)
(5.47269e-07 5.42723e-07 0)
(5.76365e-07 5.78113e-07 0)
(6.05644e-07 6.13187e-07 0)
(6.35092e-07 6.47882e-07 0)
(6.64699e-07 6.82141e-07 0)
(6.94449e-07 7.1591e-07 0)
(7.24325e-07 7.4914e-07 0)
(7.543e-07 7.81759e-07 0)
(7.84311e-07 8.13736e-07 0)
(2.2774e-07 1.51503e-07 0)
(2.51564e-07 1.82249e-07 0)
(2.7611e-07 2.14358e-07 0)
(3.01144e-07 2.47589e-07 0)
(3.26746e-07 2.81681e-07 0)
(3.52828e-07 3.16438e-07 0)
(3.79386e-07 3.51665e-07 0)
(4.0637e-07 3.87205e-07 0)
(4.33754e-07 4.22911e-07 0)
(4.61501e-07 4.58662e-07 0)
(4.89584e-07 4.94349e-07 0)
(5.17971e-07 5.29878e-07 0)
(5.46637e-07 5.65167e-07 0)
(5.75557e-07 6.00145e-07 0)
(6.0471e-07 6.3475e-07 0)
(6.34074e-07 6.68927e-07 0)
(6.63626e-07 7.0263e-07 0)
(6.93336e-07 7.35822e-07 0)
(7.23172e-07 7.6846e-07 0)
(7.53057e-07 8.0054e-07 0)
(2.08597e-07 1.41798e-07 0)
(2.30873e-07 1.72158e-07 0)
(2.53955e-07 2.03912e-07 0)
(2.77657e-07 2.36818e-07 0)
(3.02043e-07 2.70613e-07 0)
(3.27034e-07 3.05103e-07 0)
(3.52622e-07 3.40089e-07 0)
(3.78754e-07 3.75413e-07 0)
(4.05399e-07 4.10925e-07 0)
(4.32514e-07 4.46502e-07 0)
(4.60062e-07 4.8203e-07 0)
(4.88003e-07 5.17415e-07 0)
(5.16302e-07 5.52572e-07 0)
(5.44923e-07 5.87427e-07 0)
(5.73834e-07 6.21918e-07 0)
(6.03002e-07 6.55994e-07 0)
(6.32394e-07 6.89616e-07 0)
(6.61972e-07 7.22761e-07 0)
(6.91695e-07 7.55417e-07 0)
(7.21481e-07 7.87611e-07 0)
(1.88035e-07 1.32858e-07 0)
(2.08734e-07 1.62824e-07 0)
(2.30347e-07 1.94198e-07 0)
(2.5274e-07 2.26744e-07 0)
(2.75948e-07 2.60203e-07 0)
(2.99906e-07 2.94379e-07 0)
(3.2459e-07 3.29076e-07 0)
(3.49947e-07 3.64133e-07 0)
(3.75935e-07 3.99403e-07 0)
(4.02502e-07 4.34757e-07 0)
(4.29602e-07 4.70084e-07 0)
(4.57185e-07 5.05286e-07 0)
(4.85203e-07 5.40276e-07 0)
(5.13608e-07 5.7498e-07 0)
(5.42355e-07 6.09337e-07 0)
(5.71396e-07 6.43296e-07 0)
(6.00689e-07 6.76825e-07 0)
(6.30183e-07 7.09911e-07 0)
(6.59829e-07 7.42572e-07 0)
(6.89549e-07 7.74867e-07 0)
(1.65535e-07 1.24471e-07 0)
(1.84634e-07 1.54035e-07 0)
(2.04795e-07 1.85011e-07 0)
(2.2592e-07 2.17173e-07 0)
(2.4802e-07 2.50265e-07 0)
(2.71027e-07 2.84095e-07 0)
(2.94906e-07 3.18467e-07 0)
(3.19595e-07 3.53223e-07 0)
(3.45039e-07 3.88214e-07 0)
(3.71178e-07 4.23313e-07 0)
(3.97951e-07 4.58407e-07 0)
(4.25297e-07 4.93398e-07 0)
(4.53155e-07 5.28199e-07 0)
(4.81463e-07 5.62735e-07 0)
(5.1016e-07 5.96944e-07 0)
(5.39184e-07 6.30777e-07 0)
(5.68474e-07 6.64204e-07 0)
(5.97963e-07 6.97222e-07 0)
(6.27593e-07 7.29867e-07 0)
(6.57285e-07 7.62232e-07 0)
(1.40802e-07 1.17125e-07 0)
(1.58291e-07 1.46193e-07 0)
(1.77033e-07 1.76673e-07 0)
(1.96952e-07 2.08354e-07 0)
(2.18028e-07 2.40986e-07 0)
(2.40188e-07 2.74379e-07 0)
(2.63379e-07 3.08343e-07 0)
(2.87525e-07 3.42718e-07 0)
(3.12559e-07 3.77358e-07 0)
(3.38405e-07 4.12136e-07 0)
(3.6499e-07 4.46941e-07 0)
(3.92239e-07 4.81672e-07 0)
(4.20076e-07 5.16243e-07 0)
(4.48427e-07 5.50582e-07 0)
(4.77213e-07 5.84624e-07 0)
(5.06354e-07 6.18324e-07 0)
(5.35768e-07 6.51651e-07 0)
(5.65366e-07 6.84604e-07 0)
(5.95069e-07 7.17221e-07 0)
(6.24781e-07 7.49605e-07 0)
(1.99223e-08 2.13443e-09 0)
(6.01717e-08 1.31359e-08 0)
(1.02933e-07 3.36296e-08 0)
(1.48744e-07 6.22537e-08 0)
(1.98484e-07 9.82411e-08 0)
(2.5243e-07 1.40319e-07 0)
(3.10803e-07 1.87124e-07 0)
(3.73503e-07 2.37226e-07 0)
(4.40346e-07 2.89174e-07 0)
(5.10979e-07 3.4178e-07 0)
(1.87739e-08 1.90631e-09 0)
(5.67446e-08 1.17907e-08 0)
(9.69829e-08 3.03979e-08 0)
(1.39903e-07 5.66238e-08 0)
(1.86307e-07 8.98909e-08 0)
(2.3645e-07 1.2913e-07 0)
(2.90556e-07 1.73158e-07 0)
(3.48533e-07 2.20714e-07 0)
(4.10172e-07 2.70407e-07 0)
(4.75104e-07 3.21295e-07 0)
(1.77415e-08 1.63751e-09 0)
(5.36693e-08 1.04292e-08 0)
(9.16745e-08 2.72718e-08 0)
(1.32032e-07 5.12588e-08 0)
(1.75456e-07 8.19571e-08 0)
(2.22161e-07 1.18461e-07 0)
(2.72385e-07 1.59741e-07 0)
(3.26093e-07 2.04712e-07 0)
(3.83209e-07 2.52112e-07 0)
(4.43334e-07 3.01272e-07 0)
(1.67967e-08 1.32585e-09 0)
(5.08676e-08 9.06157e-09 0)
(8.68963e-08 2.43099e-08 0)
(1.25031e-07 4.63056e-08 0)
(1.65907e-07 7.47219e-08 0)
(2.09683e-07 1.08778e-07 0)
(2.5658e-07 1.47556e-07 0)
(3.06534e-07 1.90085e-07 0)
(3.5956e-07 2.35172e-07 0)
(4.15175e-07 2.82234e-07 0)
(1.59133e-08 9.68319e-10 0)
(4.82522e-08 7.64064e-09 0)
(8.24666e-08 2.13766e-08 0)
(1.18587e-07 4.15165e-08 0)
(1.57182e-07 6.78121e-08 0)
(1.98356e-07 9.95832e-08 0)
(2.42328e-07 1.36008e-07 0)
(2.89008e-07 1.76228e-07 0)
(3.38501e-07 2.19149e-07 0)
(3.90174e-07 2.64183e-07 0)
(1.50842e-08 5.70737e-10 0)
(4.58013e-08 6.17562e-09 0)
(7.8345e-08 1.84873e-08 0)
(1.1264e-07 3.69234e-08 0)
(1.49197e-07 6.12922e-08 0)
(1.88062e-07 9.09857e-08 0)
(2.29443e-07 1.25254e-07 0)
(2.7321e-07 1.63306e-07 0)
(3.19555e-07 2.04148e-07 0)
(3.67742e-07 2.47151e-07 0)
(1.42926e-08 1.3119e-10 0)
(4.3463e-08 4.64537e-09 0)
(7.44328e-08 1.5581e-08 0)
(1.07031e-07 3.2413e-08 0)
(1.41723e-07 5.49918e-08 0)
(1.78501e-07 8.27652e-08 0)
(2.17569e-07 1.15046e-07 0)
(2.58756e-07 1.51096e-07 0)
(3.02313e-07 1.90017e-07 0)
(3.47432e-07 2.31109e-07 0)
(1.35323e-08 -3.44669e-10 0)
(4.12179e-08 3.05632e-09 0)
(7.06921e-08 1.26594e-08 0)
(1.01699e-07 2.79822e-08 0)
(1.34662e-07 4.89038e-08 0)
(1.69527e-07 7.49111e-08 0)
(2.06491e-07 1.05366e-07 0)
(2.45353e-07 1.39561e-07 0)
(2.86403e-07 1.7669e-07 0)
(3.28808e-07 2.15996e-07 0)
(1.27936e-08 -8.57153e-10 0)
(3.90367e-08 1.39986e-09 0)
(6.7069e-08 9.69532e-09 0)
(9.6557e-08 2.35788e-08 0)
(1.27891e-07 4.29496e-08 0)
(1.60975e-07 6.7322e-08 0)
(1.96001e-07 9.60975e-08 0)
(2.32747e-07 1.28592e-07 0)
(2.7152e-07 1.64073e-07 0)
(3.11499e-07 2.0174e-07 0)
(1.20711e-08 -1.4028e-09 0)
(3.6903e-08 -3.21074e-10 0)
(6.35324e-08 6.68587e-09 0)
(9.15537e-08 1.91922e-08 0)
(1.21327e-07 3.71082e-08 0)
(1.52724e-07 5.99657e-08 0)
(1.8593e-07 8.71953e-08 0)
(2.20716e-07 1.18129e-07 0)
(2.57389e-07 1.52093e-07 0)
(2.95168e-07 1.88264e-07 0)
(1.13587e-08 -1.98137e-09 0)
(3.47997e-08 -2.11056e-09 0)
(6.00506e-08 3.61757e-09 0)
(8.66369e-08 1.47971e-08 0)
(1.14892e-07 3.13419e-08 0)
(1.44663e-07 5.27922e-08 0)
(1.76129e-07 7.85991e-08 0)
(2.09065e-07 1.08104e-07 0)
(2.43769e-07 1.40682e-07 0)
(2.79518e-07 1.755e-07 0)
(1.06529e-08 -2.5919e-09 0)
(3.27165e-08 -3.96903e-09 0)
(5.66022e-08 4.86401e-10 0)
(8.17682e-08 1.03863e-08 0)
(1.08522e-07 2.56375e-08 0)
(1.36697e-07 4.57811e-08 0)
(1.66464e-07 7.02791e-08 0)
(1.97617e-07 9.84799e-08 0)
(2.30436e-07 1.29794e-07 0)
(2.64271e-07 1.63391e-07 0)
(9.95128e-09 -3.23598e-09 0)
(3.06489e-08 -5.90236e-09 0)
(5.31735e-08 -2.71801e-09 0)
(7.69168e-08 5.94608e-09 0)
(1.02162e-07 1.99778e-08 0)
(1.28737e-07 3.89102e-08 0)
(1.56811e-07 6.22067e-08 0)
(1.86205e-07 8.92203e-08 0)
(2.1718e-07 1.19386e-07 0)
(2.49166e-07 1.51889e-07 0)
(9.25379e-09 -3.91917e-09 0)
(2.85999e-08 -7.91757e-09 0)
(4.97602e-08 -5.99923e-09 0)
(7.2061e-08 1.48035e-09 0)
(9.57621e-08 1.4371e-08 0)
(1.207e-07 3.21882e-08 0)
(1.4705e-07 5.43876e-08 0)
(1.74665e-07 8.03245e-08 0)
(2.03794e-07 1.09453e-07 0)
(2.33947e-07 1.40977e-07 0)
(8.56678e-09 -4.65167e-09 0)
(2.6595e-08 -1.00325e-08 0)
(4.63809e-08 -9.37349e-09 0)
(6.71964e-08 -3.02187e-09 0)
(8.92837e-08 8.81099e-09 0)
(1.12507e-07 2.56096e-08 0)
(1.37055e-07 4.68138e-08 0)
(1.62828e-07 7.17791e-08 0)
(1.9006e-07 9.99733e-08 0)
(2.18346e-07 1.30626e-07 0)
(7.90369e-09 -5.46789e-09 0)
(2.46756e-08 -1.2273e-08 0)
(4.30668e-08 -1.28354e-08 0)
(6.23244e-08 -7.52085e-09 0)
(8.26877e-08 3.35973e-09 0)
(1.04074e-07 1.92472e-08 0)
(1.26699e-07 3.95593e-08 0)
(1.50516e-07 6.3653e-08 0)
(1.75752e-07 9.10078e-08 0)
(2.02091e-07 1.20882e-07 0)
(7.31408e-09 -6.40863e-09 0)
(2.29702e-08 -1.469e-08 0)
(3.9924e-08 -1.64185e-08 0)
(5.74908e-08 -1.20395e-08 0)
(7.59489e-08 -1.9965e-09 0)
(9.53069e-08 1.30877e-08 0)
(1.15823e-07 3.26073e-08 0)
(1.37513e-07 5.59212e-08 0)
(1.606e-07 8.25224e-08 0)
(1.84855e-07 1.11702e-07 0)
(6.90348e-09 -7.64871e-09 0)
(2.16272e-08 -1.73628e-08 0)
(3.70551e-08 -2.00525e-08 0)
(5.2718e-08 -1.63997e-08 0)
(6.90199e-08 -7.02972e-09 0)
(8.60922e-08 7.37725e-09 0)
(1.04258e-07 2.62008e-08 0)
(1.23595e-07 4.88142e-08 0)
(1.44329e-07 7.47271e-08 0)
(1.66313e-07 1.0327e-07 0)
(7.18409e-09 -9.31729e-09 0)
(2.11985e-08 -2.03871e-08 0)
(3.48116e-08 -2.38042e-08 0)
(4.81295e-08 -2.07018e-08 0)
(6.1847e-08 -1.18618e-08 0)
(7.62485e-08 1.96917e-09 0)
(9.17241e-08 2.01735e-08 0)
(1.08405e-07 4.21472e-08 0)
(1.26514e-07 6.74238e-08 0)
(1.45976e-07 9.53754e-08 0)
(9.24277e-09 -1.23366e-08 0)
(2.20295e-08 -2.38367e-08 0)
(3.33581e-08 -2.72039e-08 0)
(4.37073e-08 -2.42148e-08 0)
(5.43463e-08 -1.57151e-08 0)
(6.5636e-08 -2.36584e-09 0)
(7.80456e-08 1.52586e-08 0)
(9.17277e-08 3.66071e-08 0)
(1.06912e-07 6.1244e-08 0)
(1.23562e-07 8.85895e-08 0)
)
;

boundaryField
{
    left
    {
        type            fixedDisplacement;
        value           uniform (0 0 0);
    }
    right
    {
        type            solidTraction;
        tractionSeries  
{
        file            "$FOAM_CASE/constant/timeVsTraction";
        outOfBounds     clamp;
}
        pressure        uniform 0;
        secondOrder     false;
        setEffectiveTraction false;
        relaxationFactor 1;
        value           nonuniform List<vector> 
30
(
(1.64582e-06 1.1996e-06 2.99981e-21)
(1.60766e-06 1.18581e-06 3.01352e-21)
(1.56917e-06 1.17212e-06 3.05292e-21)
(1.53023e-06 1.15827e-06 3.11799e-21)
(1.49084e-06 1.14411e-06 3.20734e-21)
(1.45111e-06 1.12949e-06 3.31976e-21)
(1.41115e-06 1.11433e-06 3.45329e-21)
(1.37115e-06 1.09858e-06 3.60594e-21)
(1.33127e-06 1.08223e-06 3.7754e-21)
(1.29169e-06 1.06534e-06 3.95906e-21)
(1.25424e-06 1.04872e-06 4.07118e-21)
(1.21874e-06 1.03238e-06 4.0889e-21)
(1.18374e-06 1.0158e-06 4.1015e-21)
(1.14931e-06 9.99051e-07 4.1092e-21)
(1.11549e-06 9.82257e-07 4.11107e-21)
(1.0822e-06 9.65526e-07 4.10727e-21)
(1.04949e-06 9.48921e-07 4.09867e-21)
(1.01731e-06 9.3256e-07 4.08532e-21)
(9.85574e-07 9.16515e-07 4.06811e-21)
(9.54208e-07 9.00851e-07 4.04769e-21)
(9.23114e-07 8.85617e-07 4.02494e-21)
(8.92186e-07 8.70842e-07 4.00088e-21)
(8.61315e-07 8.56537e-07 3.97672e-21)
(8.30393e-07 8.42691e-07 3.95355e-21)
(7.99316e-07 8.29271e-07 3.93229e-21)
(7.67997e-07 8.1622e-07 3.91417e-21)
(7.36372e-07 8.03461e-07 3.89992e-21)