/*--------------------------------*- C++ -*----------------------------------*\
  =========                 |
  \\      /  F ield         | OpenFOAM: The Open Source CFD Toolbox
   \\    /   O peration     | Website:  https://openfoam.org
    \\  /    A nd           | Version:  9
     \\/     M anipulation  |
\*---------------------------------------------------------------------------*/
FoamFile
{
    format      ascii;
    class       volSymmTensorField;
    location    "1";
    object      epsilon;
}
// * * * * * * * * * * * * * * * * * * * * * * * * * * * * * * * * * * * * * //

dimensions      [0 0 0 0 0 0 0];

internalField   nonuniform List<symmTensor> 
1000
(
(4.25604e-07 -5.46869e-07 6.66849e-20 8.42459e-08 7.30505e-20 1.99333e-34)
(5.85457e-07 -4.21955e-07 -8.65853e-22 -1.04648e-07 4.86495e-22 0)
(6.6384e-07 -3.23446e-07 1.01188e-21 -1.94988e-07 -1.93985e-22 0)
(7.07817e-07 -2.49129e-07 2.58788e-22 -2.58361e-07 -1.85744e-22 0)
(7.29022e-07 -1.89335e-07 -1.09844e-21 -2.93485e-07 7.99405e-23 0)
(7.36153e-07 -1.42569e-07 -1.17734e-22 -3.15949e-07 1.30341e-22 0)
(7.3534e-07 -1.04551e-07 -1.00216e-21 -3.28099e-07 -5.36769e-22 0)
(7.28704e-07 -7.43122e-08 6.87117e-22 -3.34288e-07 3.21021e-22 0)
(7.20087e-07 -4.91743e-08 -3.57219e-22 -3.3653e-07 -4.01995e-22 0)
(7.07546e-07 -2.82528e-08 0 -3.3685e-07 0 0)
(5.74521e-07 -6.08095e-07 6.60765e-20 2.28058e-08 8.49055e-20 1.14794e-35)
(6.98374e-07 -4.35599e-07 0 -1.45102e-07 0 0)
(7.5149e-07 -3.1108e-07 8.13244e-22 -2.19541e-07 3.86711e-22 0)
(7.76125e-07 -2.2157e-07 -1.39585e-21 -2.72339e-07 -7.42636e-22 0)
(7.82272e-07 -1.5331e-07 -5.93543e-22 -2.99002e-07 -3.56806e-22 0)
(7.77497e-07 -1.02233e-07 4.14594e-22 -3.15559e-07 4.19691e-22 0)
(7.67019e-07 -6.23454e-08 4.62773e-22 -3.23006e-07 3.08983e-22 0)
(7.52844e-07 -3.20168e-08 1.08677e-21 -3.26357e-07 6.32942e-22 0)
(7.36897e-07 -7.43703e-09 0 -3.25257e-07 0 0)
(7.20048e-07 1.22408e-08 0 -3.25812e-07 0 0)
(7.41363e-07 -6.46822e-07 6.35272e-20 -5.85423e-08 9.50749e-20 0)
(8.15352e-07 -4.35144e-07 0 -1.90833e-07 0 0)
(8.3562e-07 -2.896e-07 7.75432e-22 -2.41401e-07 3.99632e-22 0)
(8.36307e-07 -1.88162e-07 -2.31182e-22 -2.78857e-07 8.19522e-23 0)
(8.2465e-07 -1.13896e-07 -1.13022e-23 -2.94216e-07 5.05833e-24 0)
(8.06327e-07 -6.03655e-08 -3.86664e-22 -3.03165e-07 -3.97067e-22 0)
(7.85321e-07 -2.0155e-08 5.24842e-22 -3.04897e-07 2.42554e-22 0)
(7.62981e-07 9.21529e-09 -3.90833e-22 -3.04655e-07 -2.87312e-22 0)
(7.40315e-07 3.20406e-08 -3.03185e-23 -3.00443e-07 5.39393e-23 0)
(7.18468e-07 5.06016e-08 -8.20132e-23 -3.00104e-07 -3.54909e-23 0)
(9.19899e-07 -6.5753e-07 5.5796e-20 -1.55196e-07 1.00443e-19 -6.41574e-36)
(9.33471e-07 -4.18858e-07 4.42197e-22 -2.40121e-07 -4.56457e-23 0)
(9.149e-07 -2.59344e-07 -3.54598e-22 -2.6016e-07 -1.99442e-22 0)
(8.87814e-07 -1.50538e-07 -2.23265e-22 -2.78228e-07 4.33728e-23 0)
(8.56118e-07 -7.35244e-08 4.03498e-22 -2.79986e-07 3.87401e-22 0)
(8.23118e-07 -1.98282e-08 -4.84267e-22 -2.8018e-07 -3.1902e-22 0)
(7.91133e-07 1.89881e-08 -4.18523e-22 -2.75828e-07 -2.96548e-22 0)
(7.60753e-07 4.63135e-08 -9.32824e-22 -2.71941e-07 -6.79386e-22 0)
(7.31813e-07 6.64525e-08 -1.34868e-22 -2.65201e-07 -1.62401e-22 0)
(7.05657e-07 8.2853e-08 2.29087e-22 -2.63688e-07 2.01031e-22 0)
(1.10127e-06 -6.35271e-07 4.61553e-20 -2.60883e-07 1.00584e-19 -1.17475e-34)
(1.04888e-06 -3.84473e-07 2.31358e-26 -2.90689e-07 1.11096e-27 0)
(9.8731e-07 -2.19836e-07 -1.14751e-21 -2.75024e-07 -5.60551e-22 0)
(9.29717e-07 -1.09519e-07 1.03703e-22 -2.70508e-07 -3.92014e-24 0)
(8.76453e-07 -3.4008e-08 -1.4509e-22 -2.56907e-07 1.5412e-23 0)
(8.28193e-07 1.68566e-08 3.49895e-22 -2.47595e-07 3.20774e-22 0)
(7.85321e-07 5.21095e-08 -3.85184e-23 -2.37112e-07 1.1487e-23 0)
(7.47299e-07 7.59049e-08 3.6777e-22 -2.2979e-07 2.44913e-22 0)
(7.12956e-07 9.2283e-08 -8.20879e-23 -2.21269e-07 -1.69429e-22 0)
(6.83098e-07 1.05633e-07 -1.45805e-22 -2.18844e-07 -1.17012e-22 0)
(1.27945e-06 -5.78803e-07 3.41689e-20 -3.68618e-07 9.46837e-20 -1.23506e-34)
(1.15879e-06 -3.30521e-07 2.11072e-26 -3.39169e-07 4.46783e-27 0)
(1.05162e-06 -1.70523e-07 -1.14117e-26 -2.84169e-07 -1.76925e-27 0)
(9.61706e-07 -6.59127e-08 9.16488e-23 -2.55202e-07 1.12809e-23 0)
(8.86138e-07 2.91222e-09 -4.96895e-22 -2.25549e-07 -3.00873e-22 0)
(8.22776e-07 4.73741e-08 5.60511e-24 -2.06917e-07 -5.16107e-26 0)
(7.69667e-07 7.67046e-08 3.69947e-22 -1.90943e-07 2.49317e-22 0)
(7.24861e-07 9.54678e-08 7.87315e-22 -1.80874e-07 5.72448e-22 0)
(6.86121e-07 1.07213e-07 1.42589e-22 -1.71471e-07 1.04024e-22 0)
(6.53345e-07 1.16804e-07 -2.49389e-22 -1.68552e-07 -1.94902e-22 0)
(1.44245e-06 -4.8449e-07 2.4793e-20 -4.69798e-07 8.38217e-20 -2.66096e-34)
(1.25668e-06 -2.52973e-07 3.31178e-22 -3.80392e-07 1.33005e-22 0)
(1.10217e-06 -1.09956e-07 3.51329e-22 -2.83473e-07 1.58983e-22 0)
(9.79974e-07 -2.02155e-08 -7.53097e-23 -2.30155e-07 -2.25157e-23 0)
(8.83382e-07 3.55036e-08 3.60187e-22 -1.85802e-07 2.39331e-22 0)
(8.0678e-07 6.93975e-08 -3.3147e-22 -1.59627e-07 -2.26699e-22 0)
(7.45388e-07 9.03485e-08 9.26285e-23 -1.39939e-07 5.63406e-24 0)
(6.95486e-07 1.02707e-07 -2.95505e-22 -1.28521e-07 -1.92517e-22 0)
(6.53847e-07 1.09291e-07 -1.97995e-23 -1.19459e-07 2.56306e-24 0)
(6.1915e-07 1.14765e-07 -1.49502e-22 -1.16688e-07 -9.71471e-23 0)
(1.59512e-06 -3.52019e-07 1.52199e-20 -5.56992e-07 6.78557e-20 -1.08887e-35)
(1.33904e-06 -1.47913e-07 -8.85804e-22 -4.04165e-07 -3.17846e-22 0)
(1.13541e-06 -3.72913e-08 6.8298e-24 -2.6473e-07 3.75267e-24 0)
(9.83609e-07 2.49493e-08 1.10046e-22 -1.91588e-07 5.59201e-23 0)
(8.69496e-07 6.02705e-08 8.22098e-22 -1.37417e-07 4.06659e-22 0)
(7.83311e-07 7.97294e-08 -4.79725e-23 -1.07909e-07 -1.50949e-23 0)
(7.16667e-07 9.07152e-08 1.18926e-27 -8.77865e-08 2.37213e-28 0)
(6.64008e-07 9.62591e-08 -2.88885e-22 -7.72042e-08 -1.51611e-22 0)
(6.21197e-07 9.80706e-08 6.79129e-24 -6.99473e-08 2.87054e-25 0)
(5.85693e-07 9.98191e-08 2.1446e-23 -6.80567e-08 1.05896e-23 0)
(1.71282e-06 -1.64934e-07 6.48697e-21 -6.07974e-07 4.78291e-20 1.12e-34)
(1.37881e-06 -1.5051e-08 -9.75163e-22 -3.83801e-07 -4.07896e-22 0)
(1.12873e-06 3.77183e-08 1.01409e-22 -2.10532e-07 8.64537e-23 0)
(9.58321e-07 5.7483e-08 9.50799e-23 -1.31687e-07 7.53908e-23 0)
(8.38406e-07 6.74192e-08 -3.96824e-23 -8.02754e-08 -2.43155e-23 0)
(7.5102e-07 7.08568e-08 3.20602e-22 -5.55027e-08 1.15729e-22 0)
(6.84933e-07 7.257e-08 1.7156e-23 -4.00856e-08 5.31604e-24 0)
(6.33073e-07 7.26003e-08 5.16927e-22 -3.30928e-08 1.9657e-22 0)
(5.91208e-07 7.13661e-08 1.14172e-22 -2.89785e-08 4.38536e-23 0)
(5.5602e-07 7.07466e-08 6.44226e-23 -2.84749e-08 2.54919e-23 0)
(1.81725e-06 1.46338e-07 1.56639e-21 -5.60564e-07 2.7064e-20 1.16941e-34)
(1.34389e-06 1.64221e-07 -7.44082e-23 -2.52351e-07 -1.2895e-22 0)
(1.08139e-06 1.08484e-07 3.38767e-22 -1.05541e-07 1.43276e-22 0)
(9.17932e-07 7.04209e-08 1.727e-23 -5.20348e-08 2.43588e-23 0)
(8.08002e-07 5.56215e-08 5.8854e-28 -2.44504e-08 5.51621e-28 0)
(7.26963e-07 4.7389e-08 3.24945e-22 -1.33953e-08 5.80531e-23 0)
(6.65404e-07 4.44647e-08 4.92683e-24 -7.5126e-09 1.46744e-24 0)
(6.15962e-07 4.277e-08 2.49162e-22 -5.54719e-09 4.69288e-23 0)
(5.7555e-07 4.14346e-08 -2.65806e-24 -4.68271e-09 -1.9445e-25 0)
(5.40592e-07 4.05274e-08 -4.14312e-24 -5.02694e-09 -8.72581e-25 0)
(2.18176e-09 1.2156e-09 3.29618e-20 -1.02959e-09 1.98044e-20 1.58654e-34)
(6.05334e-09 -4.65416e-09 -1.83427e-23 -1.26919e-09 1.8264e-20 1.54679e-36)
(2.5213e-08 -1.45044e-08 -2.39821e-22 -1.05457e-08 1.75211e-20 1.92702e-35)
(5.54316e-08 -2.24006e-08 -2.14222e-24 -2.43695e-08 1.77615e-20 0)
(9.0233e-08 -2.72819e-08 -3.59504e-23 -3.97298e-08 1.73652e-20 -1.54426e-36)
(1.2661e-07 -3.00696e-08 -3.26469e-22 -5.55256e-08 1.76854e-20 3.22683e-35)
(1.62145e-07 -3.11757e-08 7.33813e-23 -7.07733e-08 1.80505e-20 1.54142e-36)
(1.9602e-07 -3.12818e-08 -2.16069e-22 -8.517e-08 1.78058e-20 2.92993e-35)
(2.27093e-07 -3.04771e-08 1.73421e-22 -9.84177e-08 1.7862e-20 -1.27125e-35)
(2.55875e-07 -2.98568e-08 5.1401e-22 -1.10342e-07 1.77642e-20 -3.83343e-35)
(7.62945e-09 -4.99125e-09 3.39326e-20 -2.36573e-09 4.30108e-21 4.24156e-35)
(2.65991e-08 -2.67317e-08 2.63229e-22 -8.96052e-10 2.87471e-22 0)
(6.12407e-08 -5.07814e-08 -2.46335e-22 -1.53226e-08 -2.46303e-22 0)
(9.97706e-08 -6.91752e-08 1.2309e-24 -3.47883e-08 -2.03721e-22 0)
(1.38408e-07 -8.05017e-08 0 -5.41861e-08 0 0)
(1.7504e-07 -8.68603e-08 -3.72003e-22 -7.24501e-08 -5.55219e-23 0)
(2.08781e-07 -8.91697e-08 6.50495e-23 -8.88761e-08 3.19625e-22 0)
(2.39774e-07 -8.90403e-08 4.81585e-24 -1.03561e-07 1.71916e-23 0)
(2.67079e-07 -8.66079e-08 -2.05222e-22 -1.16463e-07 -5.80976e-22 0)
(2.92428e-07 -8.46676e-08 1.4681e-22 -1.27426e-07 2.29894e-23 0)
(9.71851e-09 -2.4274e-08 3.4746e-20 6.31343e-09 6.90376e-21 -1.89098e-36)
(4.60657e-08 -6.66475e-08 2.69183e-22 1.61859e-09 2.83955e-22 0)
(9.49739e-08 -9.6434e-08 2.80483e-22 -2.08103e-08 5.88403e-23 0)
(1.42986e-07 -1.16408e-07 1.3248e-23 -4.86437e-08 -1.96438e-22 0)
(1.87151e-07 -1.27434e-07 0 -7.42943e-08 0 0)
(2.25989e-07 -1.32639e-07 -4.16645e-22 -9.67837e-08 -1.08933e-22 0)
(2.59708e-07 -1.33305e-07 -5.6832e-22 -1.15667e-07 -1.59382e-22 0)
(2.89345e-07 -1.31216e-07 3.77004e-22 -1.31563e-07 2.29623e-22 0)
(3.13978e-07 -1.26613e-07 2.34318e-24 -1.44525e-07 7.31719e-24 0)
(3.36961e-07 -1.22743e-07 -3.39205e-22 -1.55063e-07 -2.13478e-22 0)
(1.28488e-08 -5.44876e-08 3.6606e-20 2.69863e-08 1.00453e-20 -3.34984e-35)
(7.27168e-08 -1.14488e-07 6.49401e-23 4.23757e-09 -2.383e-22 0)
(1.34848e-07 -1.45806e-07 3.08203e-22 -2.81964e-08 6.0355e-23 0)
(1.91463e-07 -1.63392e-07 0 -6.42521e-08 0 0)
(2.40477e-07 -1.70706e-07 -5.23081e-22 -9.56272e-08 1.94674e-22 0)
(2.81445e-07 -1.72106e-07 9.93275e-24 -1.22163e-07 4.82976e-22 0)
(3.15323e-07 -1.69229e-07 -2.81978e-23 -1.4358e-07 -2.59394e-22 0)
(3.43939e-07 -1.63854e-07 -7.86142e-23 -1.60941e-07 -4.00296e-22 0)
(3.66248e-07 -1.56357e-07 1.71605e-22 -1.74351e-07 5.5729e-23 0)
(3.87265e-07 -1.50018e-07 3.20457e-22 -1.84893e-07 1.20172e-22 0)
(2.098e-08 -9.71707e-08 3.66181e-20 5.57347e-08 1.41146e-20 7.22734e-35)
(1.10221e-07 -1.66557e-07 -5.38903e-22 3.61135e-09 3.61789e-22 0)
(1.85601e-07 -1.94717e-07 -3.28314e-22 -4.23834e-08 -9.65923e-23 0)
(2.49527e-07 -2.06464e-07 -8.61934e-23 -8.73498e-08 3.542e-22 0)
(3.01745e-07 -2.07302e-07 -3.31392e-24 -1.23911e-07 2.18418e-23 0)
(3.43496e-07 -2.02791e-07 5.03876e-22 -1.53692e-07 -1.34838e-22 0)
(3.76529e-07 -1.94849e-07 2.20378e-22 -1.76854e-07 5.79475e-23 0)
(4.03379e-07 -1.85099e-07 0 -1.95e-07 0 0)
(4.2292e-07 -1.7413e-07 -2.37705e-22 -2.08323e-07 -3.08797e-22 0)
(4.41629e-07 -1.64799e-07 9.3789e-23 -2.18461e-07 2.28526e-23 0)
(3.87282e-08 -1.53273e-07 3.99539e-20 8.80807e-08 1.80526e-20 -8.365e-35)
(1.5983e-07 -2.19335e-07 2.18523e-22 -3.7703e-10 -4.29512e-22 0)
(2.47717e-07 -2.38709e-07 -2.72329e-22 -6.1805e-08 -2.91988e-22 0)
(3.17109e-07 -2.41634e-07 5.84116e-23 -1.15478e-07 -1.64904e-22 0)
(3.70516e-07 -2.34259e-07 5.73609e-22 -1.56172e-07 1.91875e-22 0)
(4.11289e-07 -2.22787e-07 -5.51344e-22 -1.8804e-07 6.07984e-23 0)
(4.42092e-07 -2.09142e-07 -4.98261e-25 -2.1193e-07 1.46299e-23 0)
(4.66068e-07 -1.94637e-07 -4.32391e-22 -2.3001e-07 -2.9626e-22 0)
(4.82139e-07 -1.80093e-07 9.61798e-25 -2.42707e-07 5.73916e-24 0)
(4.97872e-07 -1.67617e-07 -4.71045e-22 -2.51954e-07 -2.14956e-22 0)
(7.12602e-08 -2.22192e-07 4.62611e-20 1.17139e-07 2.54563e-20 -6.96802e-35)
(2.21959e-07 -2.70721e-07 1.21191e-23 -9.10378e-09 -1.84727e-23 0)
(3.20052e-07 -2.75174e-07 -8.85525e-27 -8.59384e-08 1.52491e-26 0)
(3.9244e-07 -2.663e-07 -5.87403e-22 -1.47518e-07 -4.09949e-22 0)
(4.44793e-07 -2.49338e-07 -9.72614e-23 -1.91134e-07 2.65083e-22 0)
(4.82653e-07 -2.30342e-07 -5.37196e-22 -2.23876e-07 -2.18345e-22 0)
(5.09709e-07 -2.10835e-07 9.65955e-22 -2.47398e-07 4.29876e-22 0)
(5.29551e-07 -1.91649e-07 -5.56827e-27 -2.6451e-07 1.1484e-23 0)
(5.41393e-07 -1.73771e-07 1.89185e-22 -2.75925e-07 -4.77514e-25 0)
(5.53305e-07 -1.58252e-07 -2.57663e-22 -2.8376e-07 -1.22472e-22 0)
(1.23349e-07 -3.01368e-07 5.40682e-20 1.36451e-07 3.49445e-20 -1.16482e-34)
(2.96389e-07 -3.18713e-07 3.12568e-22 -2.31499e-08 -3.75238e-22 0)
(4.00315e-07 -3.0238e-07 -1.204e-22 -1.12699e-07 1.61486e-22 0)
(4.72371e-07 -2.79058e-07 7.33858e-23 -1.80204e-07 -1.15425e-22 0)
(5.21188e-07 -2.51575e-07 6.51336e-27 -2.25123e-07 -1.29598e-26 0)
(5.54192e-07 -2.24955e-07 6.21716e-22 -2.57437e-07 5.32317e-23 0)
(5.761e-07 -1.99885e-07 4.47555e-23 -2.79621e-07 -2.02038e-22 0)
(5.90652e-07 -1.7654e-07 -1.38795e-23 -2.94928e-07 1.66208e-22 0)
(5.97729e-07 -1.55907e-07 3.07551e-24 -3.04761e-07 8.29771e-23 0)
(6.04958e-07 -1.37745e-07 1.97956e-22 -3.10625e-07 1.83294e-22 0)
(1.98766e-07 -3.86169e-07 5.97541e-20 1.39953e-07 4.71507e-20 1.38485e-34)
(3.82589e-07 -3.61338e-07 -9.77708e-23 -4.35069e-08 6.88295e-22 0)
(4.8605e-07 -3.19535e-07 -1.1656e-26 -1.40706e-07 1.22825e-26 0)
(5.53635e-07 -2.7977e-07 8.05684e-22 -2.11074e-07 1.89368e-22 0)
(5.96187e-07 -2.41261e-07 6.16447e-22 -2.55239e-07 3.07018e-22 0)
(6.22388e-07 -2.07291e-07 5.56141e-22 -2.85758e-07 2.77073e-22 0)
(6.37811e-07 -1.77213e-07 -5.88687e-23 -3.05543e-07 1.73611e-22 0)
(6.46019e-07 -1.50575e-07 -6.69991e-22 -3.18484e-07 -3.73277e-22 0)
(6.47943e-07 -1.27887e-07 4.09857e-22 -3.26245e-07 9.76502e-23 0)
(6.4993e-07 -1.07584e-07 1.84551e-22 -3.30663e-07 1.09324e-22 0)
(2.99552e-07 -4.70438e-07 6.40226e-20 1.23339e-07 5.92718e-20 1.84532e-35)
(4.79454e-07 -3.96513e-07 -2.03048e-22 -7.06058e-08 1.50343e-22 0)
(5.74623e-07 -3.26503e-07 -3.96241e-22 -1.68444e-07 -1.84371e-22 0)
(6.32902e-07 -2.69307e-07 1.71377e-21 -2.37612e-07 4.01905e-22 0)
(6.66193e-07 -2.19822e-07 1.0379e-23 -2.78577e-07 -1.18901e-23 0)
(6.8363e-07 -1.79024e-07 -5.47181e-22 -3.05741e-07 -3.09715e-22 0)
(6.91302e-07 -1.44703e-07 -5.83983e-22 -3.22219e-07 -9.26653e-23 0)
(6.92236e-07 -1.15738e-07 -2.20955e-22 -3.31839e-07 -1.31717e-22 0)
(6.89232e-07 -9.22505e-08 2.21339e-23 -3.3806e-07 -1.81593e-22 0)
(6.84262e-07 -7.18697e-08 1.12769e-22 -3.38579e-07 2.29811e-22 0)
(2.81786e-07 -2.7734e-08 8.11748e-22 -1.2143e-07 1.80054e-20 -1.14091e-35)
(3.04364e-07 -2.47896e-08 9.15527e-22 -1.30668e-07 1.77496e-20 -2.50703e-35)
(3.251e-07 -2.22314e-08 5.07993e-22 -1.3924e-07 1.72901e-20 -1.4625e-35)
(3.43746e-07 -1.99088e-08 5.51501e-22 -1.46996e-07 1.75164e-20 -6.41873e-37)
(3.60565e-07 -1.77554e-08 3.1931e-22 -1.53972e-07 1.75353e-20 3.81262e-35)
(3.75634e-07 -1.58287e-08 5.81772e-22 -1.6026e-07 1.76192e-20 0)
(3.89142e-07 -1.40607e-08 5.48558e-22 -1.65886e-07 1.76043e-20 0)
(4.01181e-07 -1.24663e-08 6.26769e-22 -1.70918e-07 1.7726e-20 4.95496e-37)
(4.11893e-07 -1.10046e-08 5.79372e-22 -1.75398e-07 1.76144e-20 -1.29536e-35)
(4.21358e-07 -9.66597e-09 6.8171e-22 -1.79367e-07 1.78402e-20 8.40514e-37)
(4.29672e-07 -8.41956e-09 7.09975e-22 -1.82857e-07 1.76685e-20 -3.9244e-35)
(4.36894e-07 -7.24869e-09 2.78004e-22 -1.85899e-07 1.75073e-20 1.31464e-35)
(4.43075e-07 -6.13004e-09 6.44316e-22 -1.88511e-07 1.76523e-20 -3.96372e-35)
(4.48245e-07 -5.04804e-09 -6.71804e-23 -1.90706e-07 1.7102e-20 -7.95973e-37)
(4.5242e-07 -3.98754e-09 2.95009e-22 -1.92492e-07 1.7627e-20 1.35725e-35)
(4.55623e-07 -2.94813e-09 2.35106e-22 -1.93877e-07 1.75163e-20 -3.21319e-45)
(4.57844e-07 -1.94418e-09 7.10789e-23 -1.94856e-07 1.73647e-20 -1.44982e-37)
(4.59169e-07 -1.03368e-09 2.89401e-22 -1.95444e-07 1.76561e-20 1.04038e-37)
(4.59589e-07 -3.35563e-10 1.84095e-22 -1.95621e-07 1.73236e-20 -4.10032e-35)
(4.59437e-07 -1.73211e-10 2.9383e-20 -1.95353e-07 1.70692e-20 -7.20285e-35)
(3.13277e-07 -7.88729e-08 3.62966e-22 -1.37303e-07 4.41025e-22 0)
(3.3e-07 -7.10322e-08 2.33021e-22 -1.4435e-07 6.40518e-23 0)
(3.45991e-07 -6.41261e-08 1.63317e-23 -1.50838e-07 -1.00562e-22 0)
(3.60335e-07 -5.76826e-08 5.32877e-22 -1.56793e-07 4.76379e-22 0)
(3.73543e-07 -5.16446e-08 -1.0162e-22 -1.62106e-07 -2.41423e-23 0)
(3.85467e-07 -4.61887e-08 -4.35125e-22 -1.66985e-07 -4.36583e-22 0)
(3.96326e-07 -4.11381e-08 2.20181e-22 -1.71363e-07 8.15765e-23 0)
(4.06101e-07 -3.6552e-08 0 -1.75342e-07 0 0)
(4.14924e-07 -3.23205e-08 1.04881e-22 -1.7892e-07 3.72211e-23 0)
(4.22818e-07 -2.84267e-08 2.15703e-22 -1.82146e-07 8.32346e-23 0)
(4.29861e-07 -2.47965e-08 6.47941e-22 -1.85032e-07 3.34173e-22 0)
(4.36087e-07 -2.13882e-08 2.94626e-24 -1.87603e-07 3.33021e-24 0)
(4.41541e-07 -1.8146e-08 8.27759e-23 -1.89869e-07 -6.47841e-23 0)
(4.46252e-07 -1.50306e-08 1.24576e-22 -1.91836e-07 1.40941e-22 0)
(4.50241e-07 -1.20113e-08 1.27789e-22 -1.935e-07 1.4497e-22 0)
(4.53529e-07 -9.08805e-09 -1.26582e-22 -1.94843e-07 -1.44343e-22 0)
(4.56097e-07 -6.29543e-09 -1.2729e-22 -1.95819e-07 -1.45979e-22 0)
(4.57977e-07 -3.7553e-09 -2.55616e-22 -1.96348e-07 -2.9488e-22 0)
(4.59018e-07 -1.65085e-09 -1.93239e-24 -1.96244e-07 -2.09469e-24 0)
(4.59271e-07 -5.36592e-10 2.98219e-20 -1.95207e-07 4.47702e-22 6.62538e-35)
(3.53003e-07 -1.14056e-07 9.95093e-23 -1.63191e-07 1.34242e-22 0)
(3.63512e-07 -1.03368e-07 1.34287e-22 -1.67368e-07 4.79402e-23 0)
(3.74399e-07 -9.37772e-08 -3.15202e-22 -1.7087e-07 -3.91751e-22 0)
(3.83941e-07 -8.48736e-08 -2.7009e-23 -1.74193e-07 7.13476e-23 0)
(3.93088e-07 -7.63908e-08 5.72263e-22 -1.77027e-07 4.7277e-22 0)
(4.01379e-07 -6.86896e-08 -4.55245e-22 -1.79742e-07 -4.30536e-22 0)
(4.0915e-07 -6.14843e-08 -1.21492e-22 -1.82187e-07 -1.38991e-22 0)
(4.16237e-07 -5.49014e-08 2.32136e-22 -1.84496e-07 2.609e-22 0)
(4.22788e-07 -4.87891e-08 -1.0819e-24 -1.86636e-07 -1.6903e-22 0)
(4.28757e-07 -4.31463e-08 -2.45563e-22 -1.88647e-07 -2.72952e-22 0)
(4.34212e-07 -3.78795e-08 2.35273e-22 -1.90527e-07 2.60623e-22 0)
(4.3915e-07 -3.29438e-08 3.63514e-22 -1.92288e-07 4.02964e-22 0)
(4.43607e-07 -2.8272e-08 2.78045e-24 -1.93927e-07 3.03157e-24 0)
(4.47593e-07 -2.38163e-08 -1.24444e-22 -1.95433e-07 -1.38782e-22 0)
(4.51111e-07 -1.95357e-08 1.23183e-22 -1.96777e-07 1.38219e-22 0)
(4.54166e-07 -1.54145e-08 1.81516e-29 -1.97905e-07 2.00057e-29 0)
(4.5669e-07 -1.14625e-08 -1.26895e-22 -1.98705e-07 -1.44206e-22 0)
(4.58653e-07 -7.74308e-09 1.81565e-23 -1.99001e-07 1.04001e-22 0)
(4.59732e-07 -4.36931e-09 -4.12369e-22 -1.98422e-07 -5.38999e-23 0)
(4.59906e-07 -1.49502e-09 2.99198e-20 -1.96554e-07 4.26363e-22 4.93951e-38)
(3.98584e-07 -1.38896e-07 0 -1.91437e-07 0 0)
(4.02656e-07 -1.26652e-07 1.4359e-22 -1.92979e-07 5.23265e-23 0)
(4.08373e-07 -1.15357e-07 1.13417e-22 -1.93654e-07 1.28067e-22 0)
(4.12899e-07 -1.05054e-07 1.2451e-22 -1.94516e-07 1.42378e-22 0)
(4.17777e-07 -9.50236e-08 0 -1.94924e-07 0 0)
(4.22153e-07 -8.59176e-08 1.57013e-23 -1.95484e-07 -7.16888e-23 0)
(4.26561e-07 -7.72913e-08 -3.70148e-22 -1.95955e-07 -2.26335e-22 0)
(4.30666e-07 -6.93727e-08 -2.37603e-22 -1.96519e-07 -2.55259e-22 0)
(4.34661e-07 -6.19699e-08 -1.32526e-22 -1.97118e-07 -6.11134e-23 0)
(4.38421e-07 -5.51087e-08 1.2921e-24 -1.97795e-07 1.62894e-22 0)
(4.42011e-07 -4.86891e-08 -1.15437e-22 -1.98535e-07 3.552e-23 0)
(4.45388e-07 -4.2671e-08 2.43705e-22 -1.9934e-07 1.04553e-22 0)
(4.4857e-07 -3.69814e-08 2.30266e-22 -2.0019e-07 1.19597e-23 0)
(4.5154e-07 -3.15685e-08 6.66156e-24 -2.01061e-07 8.71274e-23 0)
(4.54277e-07 -2.63787e-08 1.10391e-23 -2.01903e-07 9.23815e-23 0)
(4.56756e-07 -2.13733e-08 -1.2546e-22 -2.02633e-07 -1.3968e-22 0)
(4.58868e-07 -1.65274e-08 -2.67905e-29 -2.03105e-07 -2.98497e-29 0)
(4.60555e-07 -1.18084e-08 2.68475e-22 -2.03109e-07 3.88173e-22 0)
(4.61403e-07 -7.25669e-09 -1.45661e-23 -2.02228e-07 -1.01973e-22 0)
(4.61433e-07 -2.54299e-09 2.94319e-20 -2.0004e-07 4.28581e-23 -9.57981e-35)
(4.48029e-07 -1.51781e-07 1.30001e-23 -2.22983e-07 1.78576e-22 0)
(4.45426e-07 -1.39489e-07 -1.56149e-22 -2.21831e-07 -6.815e-23 0)
(4.45947e-07 -1.27493e-07 -3.94467e-22 -2.19445e-07 -3.18962e-22 0)
(4.45325e-07 -1.16931e-07 2.59276e-22 -2.17745e-07 1.75485e-22 0)
(4.45862e-07 -1.06317e-07 6.74498e-22 -2.1558e-07 4.40722e-22 0)
(4.46176e-07 -9.6723e-08 -1.24505e-22 -2.13819e-07 -1.28695e-22 0)
(4.47077e-07 -8.74944e-08 0 -2.12143e-07 0 0)
(4.48018e-07 -7.89761e-08 1.2123e-22 -2.10767e-07 1.24787e-22 0)
(4.49268e-07 -7.09474e-08 -3.87105e-22 -2.09635e-07 -1.65389e-22 0)
(4.50616e-07 -6.34661e-08 -2.52086e-22 -2.08783e-07 -1.84669e-22 0)
(4.52128e-07 -5.64374e-08 1.21885e-23 -2.08197e-07 -1.42056e-22 0)
(4.53725e-07 -4.9829e-08 -1.2851e-22 -2.07867e-07 -2.13168e-22 0)
(4.55404e-07 -4.35742e-08 -1.00435e-23 -2.07766e-07 2.2356e-22 0)
(4.57123e-07 -3.7616e-08 2.50234e-22 -2.07857e-07 3.47507e-22 0)
(4.58841e-07 -3.18896e-08 1.20398e-22 -2.08076e-07 5.13534e-23 0)
(4.60507e-07 -2.63241e-08 -5.53717e-24 -2.08329e-07 -8.65328e-23 0)
(4.61989e-07 -2.08558e-08 2.33316e-22 -2.08455e-07 9.60576e-23 0)
(4.63215e-07 -1.5349e-08 1.14736e-22 -2.08246e-07 4.61066e-23 0)
(4.63767e-07 -9.7984e-09 4.72917e-22 -2.07309e-07 3.71431e-22 0)
(4.63688e-07 -3.47011e-09 3.04636e-20 -2.05255e-07 1.07541e-21 9.49657e-35)
(4.99188e-07 -1.53371e-07 9.30986e-23 -2.54279e-07 1.25961e-22 0)
(4.89851e-07 -1.42619e-07 2.26406e-24 -2.50837e-07 4.83354e-24 0)
(4.85339e-07 -1.30886e-07 -2.84776e-22 -2.4557e-07 -1.96211e-22 0)
(4.79578e-07 -1.21106e-07 -6.84368e-22 -2.41513e-07 -5.08686e-22 0)
(4.75856e-07 -1.10774e-07 2.67125e-22 -2.36969e-07 1.80962e-22 0)
(4.72112e-07 -1.0147e-07 2.52431e-22 -2.33005e-07 2.47956e-22 0)
(4.69496e-07 -9.23551e-08 -1.23674e-22 -2.2929e-07 -1.21672e-22 0)
(4.67231e-07 -8.38716e-08 -1.88893e-23 -2.26025e-07 5.43595e-23 0)
(4.65655e-07 -7.58006e-08 5.39717e-22 -2.2318e-07 3.20293e-22 0)
(4.64489e-07 -6.82197e-08 -3.62685e-22 -2.20777e-07 -3.66148e-22 0)
(4.63793e-07 -6.10556e-08 -1.29013e-22 -2.18811e-07 -1.31874e-22 0)
(4.63459e-07 -5.42847e-08 3.52611e-22 -2.17268e-07 5.13747e-22 0)
(4.63469e-07 -4.78496e-08 -5.07603e-22 -2.16127e-07 -1.51841e-22 0)
(4.63761e-07 -4.16911e-08 -3.65152e-22 -2.15347e-07 -3.8605e-22 0)
(4.64278e-07 -3.57405e-08 -4.77586e-26 -2.14866e-07 -7.78e-23 0)
(4.64959e-07 -2.98986e-08 -4.90116e-22 -2.14596e-07 -3.72873e-22 0)
(4.65672e-07 -2.4072e-08 -3.5745e-24 -2.14395e-07 -3.33362e-24 0)
(4.66339e-07 -1.80364e-08 4.82615e-22 -2.14084e-07 4.57617e-22 0)
(4.66614e-07 -1.17601e-08 8.55381e-24 -2.13347e-07 9.42542e-23 0)
(4.66515e-07 -4.19959e-09 3.06331e-20 -2.11856e-07 8.43598e-22 -6.88363e-37)
(5.4957e-07 -1.43654e-07 -9.7481e-23 -2.83701e-07 -1.23248e-22 0)
(5.338e-07 -1.3616e-07 1.34095e-22 -2.78605e-07 1.21278e-22 0)
(5.24744e-07 -1.25696e-07 1.64709e-22 -2.70953e-07 8.58294e-23 0)
(5.14092e-07 -1.17689e-07 -1.30893e-22 -2.64825e-07 -1.21521e-22 0)
(5.06363e-07 -1.08564e-07 -3.08284e-22 -2.58239e-07 -1.53699e-22 0)
(4.98728e-07 -1.00295e-07 1.5049e-22 -2.52212e-07 7.47057e-23 0)
(4.92678e-07 -9.19942e-08 4.26737e-22 -2.46569e-07 2.73245e-22 0)
(4.87268e-07 -8.41207e-08 -6.86782e-22 -2.41458e-07 -4.58673e-22 0)
(4.82872e-07 -7.65275e-08 -4.23524e-22 -2.36918e-07 -2.77594e-22 0)
(4.79179e-07 -6.92995e-08 6.64846e-22 -2.32963e-07 4.47877e-22 0)
(4.76232e-07 -6.24092e-08 -2.70436e-22 -2.29605e-07 -1.29208e-22 0)
(4.73906e-07 -5.58456e-08 3.60774e-22 -2.26831e-07 3.65673e-22 0)
(4.72165e-07 -4.95709e-08 3.86617e-22 -2.24624e-07 2.50795e-22 0)
(4.70936e-07 -4.35287e-08 -2.2767e-22 -2.22949e-07 -3.12184e-22 0)
(4.70157e-07 -3.76499e-08 -1.45176e-22 -2.21758e-07 7.53847e-23 0)
(4.69757e-07 -3.18158e-08 6.99792e-24 -2.20977e-07 6.40299e-24 0)
(4.6963e-07 -2.59133e-08 -5.97622e-22 -2.20503e-07 -4.94023e-22 0)
(4.69692e-07 -1.9651e-08 1.19037e-22 -2.20202e-07 1.32349e-22 0)
(4.69723e-07 -1.29877e-08 2.3504e-22 -2.19868e-07 1.82888e-22 0)
(4.69669e-07 -4.67596e-09 3.07559e-20 -2.19253e-07 8.43949e-22 -2.82331e-37)
(5.96536e-07 -1.23344e-07 1.20047e-24 -3.08663e-07 3.92143e-24 0)
(5.75086e-07 -1.20787e-07 -1.3857e-22 -3.02738e-07 -1.20825e-22 0)
(5.62259e-07 -1.12678e-07 2.89456e-23 -2.93712e-07 -3.18302e-23 0)
(5.47254e-07 -1.0711e-07 0 -2.85882e-07 0 0)
(5.35925e-07 -1.00018e-07 0 -2.77893e-07 0 0)
(5.24852e-07 -9.33639e-08 -4.1448e-22 -2.70276e-07 -3.22118e-22 0)
(5.15636e-07 -8.65187e-08 3.69516e-22 -2.6313e-07 3.41132e-22 0)
(5.07326e-07 -7.98146e-08 7.78342e-22 -2.56491e-07 6.72767e-22 0)
(5.00239e-07 -7.32249e-08 -5.89404e-22 -2.50465e-07 -5.60288e-22 0)
(4.94102e-07 -6.68156e-08 -5.15498e-22 -2.45081e-07 -4.35338e-22 0)
(4.88928e-07 -6.06099e-08 2.38148e-22 -2.40381e-07 2.34374e-22 0)
(4.84601e-07 -5.46141e-08 -2.23917e-23 -2.36377e-07 4.62513e-23 0)
(4.81075e-07 -4.88169e-08 4.04843e-22 -2.33075e-07 1.99876e-22 0)
(4.78275e-07 -4.31761e-08 6.32125e-22 -2.30464e-07 4.35105e-22 0)
(4.76143e-07 -3.76317e-08 8.65062e-24 -2.28522e-07 7.83872e-24 0)
(4.74606e-07 -3.20625e-08 2.8427e-22 -2.2721e-07 -7.72316e-23 0)
(4.73603e-07 -2.63473e-08 0 -2.26474e-07 0 0)
(4.73041e-07 -2.01585e-08 -2.41346e-22 -2.26244e-07 -1.06641e-22 0)
(4.72869e-07 -1.34558e-08 1.16083e-22 -2.26442e-07 4.91706e-23 0)
(4.72921e-07 -4.88666e-09 3.12207e-20 -2.26915e-07 9.37708e-22 -7.50447e-37)
(6.38072e-07 -9.43997e-08 -9.47141e-25 -3.27345e-07 -3.42857e-24 0)
(6.11763e-07 -9.76864e-08 1.71299e-22 -3.2119e-07 1.02048e-22 0)
(5.9631e-07 -9.36171e-08 -1.70416e-22 -3.12883e-07 -1.03429e-22 0)
(5.77946e-07 -9.09682e-08 -1.67723e-22 -3.04016e-07 -1.00739e-22 0)
(5.63371e-07 -8.67615e-08 4.61036e-22 -2.95135e-07 3.1286e-22 0)
(5.49368e-07 -8.21223e-08 3.28043e-22 -2.86215e-07 1.95195e-22 0)
(5.37261e-07 -7.70648e-08 -4.36168e-22 -2.77749e-07 -2.90492e-22 0)
(5.26358e-07 -7.1782e-08 5.65521e-23 -2.69788e-07 -6.05798e-23 0)
(5.16821e-07 -6.64197e-08 9.93742e-23 -2.62474e-07 9.1268e-23 0)
(5.08448e-07 -6.10584e-08 -5.22854e-23 -2.55867e-07 7.15018e-23 0)
(5.01207e-07 -5.57679e-08 -4.42072e-22 -2.50015e-07 -2.41899e-22 0)
(4.94998e-07 -5.05789e-08 3.97781e-24 -2.44951e-07 3.79977e-24 0)
(4.89766e-07 -4.54992e-08 -2.04332e-22 -2.40695e-07 -2.73781e-22 0)
(4.85441e-07 -4.05037e-08 -6.86255e-24 -2.37261e-07 -6.22372e-24 0)
(4.81978e-07 -3.55418e-08 2.57988e-22 -2.34658e-07 1.2556e-22 0)
(4.7931e-07 -3.04971e-08 -5.17006e-24 -2.32884e-07 -4.48447e-24 0)
(4.77433e-07 -2.52513e-08 3.1773e-22 -2.3195e-07 4.20234e-22 0)
(4.76244e-07 -1.94699e-08 -1.18701e-22 -2.31854e-07 -5.3144e-23 0)
(4.75887e-07 -1.3111e-08 -5.59545e-22 -2.32657e-07 -5.49169e-22 0)
(4.76062e-07 -4.81415e-09 3.07755e-20 -2.34319e-07 4.50807e-22 -5.67291e-35)
(6.71126e-07 -5.72376e-08 -2.17949e-23 -3.39454e-07 -1.09904e-23 0)
(6.43874e-07 -6.44108e-08 -1.83538e-22 -3.31908e-07 -1.07946e-22 0)
(6.26226e-07 -6.61073e-08 1.49491e-22 -3.26199e-07 1.1657e-22 0)
(6.06583e-07 -6.67936e-08 -3.92077e-22 -3.18141e-07 -3.53634e-22 0)
(5.89381e-07 -6.64705e-08 -4.02916e-22 -3.0975e-07 -3.32278e-22 0)
(5.73116e-07 -6.49745e-08 2.39142e-22 -3.00759e-07 2.4401e-22 0)
(5.58408e-07 -6.26622e-08 2.08362e-22 -2.91701e-07 2.44776e-22 0)
(5.45058e-07 -5.9668e-08 3.61541e-22 -2.82856e-07 3.22826e-22 0)
(5.33137e-07 -5.62023e-08 -4.23213e-22 -2.74454e-07 -3.14028e-22 0)
(5.22547e-07 -5.24207e-08 1.1522e-24 -2.66672e-07 8.5819e-24 0)
(5.13248e-07 -4.84494e-08 -5.43443e-24 -2.59627e-07 -2.55979e-23 0)
(5.05156e-07 -4.43788e-08 -3.3195e-22 -2.53411e-07 -3.21255e-22 0)
(4.98216e-07 -4.0262e-08 0 -2.48086e-07 0 0)
(4.92358e-07 -3.61128e-08 -2.98193e-22 -2.43707e-07 -9.73843e-23 0)
(4.87549e-07 -3.19106e-08 -1.4626e-24 -2.40322e-07 -5.91775e-24 0)
(4.83729e-07 -2.75653e-08 -3.85767e-22 -2.37979e-07 -1.87779e-22 0)
(4.80949e-07 -2.29764e-08 1.0638e-22 -2.36757e-07 1.11121e-22 0)
(4.79107e-07 -1.78342e-08 2.43184e-22 -2.36731e-07 1.11347e-22 0)
(4.7855e-07 -1.21021e-08 3.00444e-24 -2.38111e-07 -2.37287e-25 0)
(4.78862e-07 -4.50038e-09 3.10939e-20 -2.4098e-07 4.28954e-22 -2.40442e-37)
(6.87272e-07 -2.66161e-08 1.89627e-22 -3.40431e-07 1.6543e-22 0)
(6.62457e-07 -3.04515e-08 -1.7467e-22 -3.34097e-07 -1.09543e-22 0)
(6.43379e-07 -3.75258e-08 -1.01576e-22 -3.30116e-07 -8.36674e-23 0)
(6.23896e-07 -4.08789e-08 1.67838e-22 -3.23593e-07 1.0238e-22 0)
(6.0584e-07 -4.32405e-08 -3.30903e-22 -3.15934e-07 -1.50819e-22 0)
(5.887e-07 -4.43027e-08 -2.23269e-22 -3.07524e-07 -1.05677e-22 0)
(5.72886e-07 -4.43415e-08 -2.79538e-22 -2.98715e-07 -2.01753e-22 0)
(5.58301e-07 -4.35355e-08 3.29394e-23 -2.89884e-07 -2.30227e-23 0)
(5.45069e-07 -4.20465e-08 5.6434e-22 -2.81296e-07 3.58527e-22 0)
(5.33134e-07 -4.0044e-08 -1.95349e-23 -2.73178e-07 -2.0751e-23 0)
(5.225e-07 -3.76602e-08 3.01353e-22 -2.65698e-07 1.70392e-22 0)
(5.13114e-07 -3.50051e-08 -1.49842e-23 -2.58989e-07 -1.67641e-23 0)
(5.04948e-07 -3.21556e-08 1.10786e-36 -2.53158e-07 1.11351e-36 0)
(4.9795e-07 -2.91511e-08 -1.32379e-22 -2.48298e-07 -6.59484e-23 0)
(4.92117e-07 -2.5997e-08 1.29391e-22 -2.44504e-07 6.30126e-23 0)
(4.87402e-07 -2.26396e-08 -5.87839e-24 -2.4187e-07 -8.35724e-24 0)
(4.83916e-07 -1.90075e-08 1.97981e-23 -2.40544e-07 -5.41807e-23 0)
(4.81552e-07 -1.48604e-08 1.21152e-24 -2.40662e-07 3.87509e-24 0)
(4.80821e-07 -1.01735e-08 -1.17113e-24 -2.42565e-07 1.53926e-24 0)
(4.81201e-07 -3.85744e-09 3.14844e-20 -2.46452e-07 1.65643e-22 2.8041e-37)
(6.73699e-07 3.45231e-09 1.75774e-22 -3.27987e-07 1.38142e-22 0)
(6.5718e-07 -9.65427e-10 0 -3.29864e-07 0 0)
(6.39924e-07 -9.59551e-09 -1.37378e-22 -3.26819e-07 -1.20004e-22 0)
(6.22663e-07 -1.5257e-08 1.79353e-36 -3.21886e-07 1.44207e-36 0)
(6.06189e-07 -1.97138e-08 4.10469e-37 -3.15342e-07 2.96338e-37 0)
(5.90274e-07 -2.28727e-08 1.94751e-36 -3.07861e-07 1.44054e-36 0)
(5.75331e-07 -2.49144e-08 2.99073e-36 -2.99794e-07 2.39984e-36 0)
(5.61307e-07 -2.60215e-08 -1.205e-22 -2.91528e-07 -1.11841e-22 0)
(5.48376e-07 -2.63392e-08 0 -2.83346e-07 0 0)
(5.36529e-07 -2.60281e-08 1.15181e-22 -2.75496e-07 1.10507e-22 0)
(5.25821e-07 -2.52153e-08 -1.66533e-37 -2.68169e-07 -2.73821e-37 0)
(5.16241e-07 -2.40139e-08 -1.10826e-22 -2.61527e-07 -1.1007e-22 0)
(5.07799e-07 -2.25063e-08 1.09013e-22 -2.55706e-07 1.10134e-22 0)
(5.0048e-07 -2.07478e-08 1.55966e-36 -2.50827e-07 1.13034e-36 0)
(4.94315e-07 -1.87592e-08 -1.06119e-22 -2.47016e-07 -1.10766e-22 0)
(4.89286e-07 -1.65237e-08 -9.39175e-37 -2.44405e-07 -8.61231e-37 0)
(4.85551e-07 -1.39917e-08 1.04237e-22 -2.43187e-07 1.12087e-22 0)
(4.83022e-07 -1.10121e-08 1.03694e-22 -2.43542e-07 1.13071e-22 0)
(4.8233e-07 -7.59235e-09 -1.11622e-36 -2.45911e-07 -9.66873e-37 0)
(4.82886e-07 -2.96932e-09 3.1626e-20 -2.50526e-07 -9.81848e-37 -1.86565e-49)