/*--------------------------------*- C++ -*----------------------------------*\
  =========                 |
  \\      /  F ield         | OpenFOAM: The Open Source CFD Toolbox
   \\    /   O peration     | Website:  https://openfoam.org
    \\  /    A nd           | Version:  9
     \\/     M anipulation  |
\*---------------------------------------------------------------------------*/
FoamFile
{
    format      ascii;
    class       volScalarField;
    location    "1";
    object      epsilonEq;
}
// * * * * * * * * * * * * * * * * * * * * * * * * * * * * * * * * * * * * * //

dimensions      [0 0 0 0 0 0 0];

internalField   nonuniform List<scalar> 
1000
(
6.82993e-07
6.49484e-07
6.40138e-07
6.45264e-07
6.4605e-07
6.44742e-07
6.40289e-07
6.33482e-07
6.25873e-07
6.16377e-07
7.96334e-07
7.23987e-07
6.89035e-07
6.78295e-07
6.68586e-07
6.60228e-07
6.50492e-07
6.40158e-07
6.28457e-07
6.18124e-07
9.07153e-07
7.95784e-07
7.33291e-07
7.04461e-07
6.82529e-07
6.65818e-07
6.49906e-07
6.3514e-07
6.19618e-07
6.072e-07
1.01327e-06
8.6397e-07
7.73024e-07
7.24377e-07
6.88718e-07
6.62596e-07
6.39885e-07
6.20398e-07
6.01186e-07
5.86572e-07
1.11133e-06
9.26883e-07
8.07448e-07
7.37873e-07
6.87284e-07
6.50851e-07
6.20862e-07
5.96384e-07
5.73709e-07
5.56769e-07
1.20177e-06
9.84003e-07
8.36058e-07
7.449e-07
6.78562e-07
6.31314e-07
5.93843e-07
5.64344e-07
5.38433e-07
5.19111e-07
1.27945e-06
1.0315e-06
8.54751e-07
7.42396e-07
6.60909e-07
6.03547e-07
5.59358e-07
5.25463e-07
4.96981e-07
4.75499e-07
1.35234e-06
1.06733e-06
8.59969e-07
7.28624e-07
6.3431e-07
5.69139e-07
5.20222e-07
4.83473e-07
4.53668e-07
4.3072e-07
1.40259e-06
1.07047e-06
8.32738e-07
6.90195e-07
5.92662e-07
5.26564e-07
4.77957e-07
4.41532e-07
4.1246e-07
3.89197e-07
1.44523e-06
1.00879e-06
7.68834e-07
6.35242e-07
5.50758e-07
4.92219e-07
4.49073e-07
4.15449e-07
3.8823e-07
3.65093e-07
2.35698e-09
7.02124e-09
2.70302e-08
5.38423e-08
8.31018e-08
1.13247e-07
1.42503e-07
1.7037e-07
1.95952e-07
2.19652e-07
8.34246e-09
3.57516e-08
7.50106e-08
1.13511e-07
1.47624e-07
1.77894e-07
2.04285e-07
2.27872e-07
2.48106e-07
2.671e-07
2.86017e-08
8.26661e-08
1.32209e-07
1.76911e-07
2.14132e-07
2.4503e-07
2.70125e-07
2.91165e-07
3.07636e-07
3.23202e-07
6.48187e-08
1.40348e-07
1.9614e-07
2.43291e-07
2.80785e-07
3.10826e-07
3.34155e-07
3.52826e-07
3.66202e-07
3.7905e-07
1.16816e-07
2.05467e-07
2.64873e-07
3.1239e-07
3.48148e-07
3.75811e-07
3.96395e-07
4.1214e-07
4.22336e-07
4.32417e-07
1.8418e-07
2.74817e-07
3.34292e-07
3.80452e-07
4.13208e-07
4.37548e-07
4.5474e-07
4.67131e-07
4.74076e-07
4.81242e-07
2.65464e-07
3.47205e-07
4.02484e-07
4.45426e-07
4.74176e-07
4.94549e-07
5.07922e-07
5.16677e-07
5.20348e-07
5.24427e-07
3.58684e-07
4.21625e-07
4.67793e-07
5.0524e-07
5.28948e-07
5.44829e-07
5.54188e-07
5.59186e-07
5.59859e-07
5.60674e-07
4.61233e-07
4.97374e-07
5.29462e-07
5.58862e-07
5.7634e-07
5.87191e-07
5.92265e-07
5.93497e-07
5.91315e-07
5.89304e-07
5.70354e-07
5.73636e-07
5.86958e-07
6.05526e-07
6.15348e-07
6.20391e-07
6.20856e-07
6.17955e-07
6.13861e-07
6.07371e-07
2.40992e-07
2.59337e-07
2.76347e-07
2.91728e-07
3.05634e-07
3.18144e-07
3.29374e-07
3.39408e-07
3.48347e-07
3.5626e-07
3.63218e-07
3.6927e-07
3.74456e-07
3.78801e-07
3.82316e-07
3.85021e-07
3.86905e-07
3.88031e-07
3.88384e-07
3.88157e-07
2.81797e-07
2.92506e-07
3.03305e-07
3.13337e-07
3.22744e-07
3.31486e-07
3.39563e-07
3.46973e-07
3.5374e-07
3.59871e-07
3.65392e-07
3.70315e-07
3.74659e-07
3.78434e-07
3.81642e-07
3.84284e-07
3.86322e-07
3.87734e-07
3.88328e-07
3.8798e-07
3.31915e-07
3.35359e-07
3.39756e-07
3.43993e-07
3.48298e-07
3.52585e-07
3.56824e-07
3.60942e-07
3.64924e-07
3.68715e-07
3.72305e-07
3.75664e-07
3.78782e-07
3.81639e-07
3.84208e-07
3.86453e-07
3.88267e-07
3.89539e-07
3.89874e-07
3.89045e-07
3.82795e-07
3.80175e-07
3.79048e-07
3.78151e-07
3.77745e-07
3.77769e-07
3.78219e-07
3.78984e-07
3.80051e-07
3.81322e-07
3.82772e-07
3.84334e-07
3.85973e-07
3.87637e-07
3.89267e-07
3.90789e-07
3.92048e-07
3.92895e-07
3.92856e-07
3.91726e-07
4.31775e-07
4.24156e-07
4.18276e-07
4.12964e-07
4.0841e-07
4.04562e-07
4.01493e-07
3.99044e-07
3.97253e-07
3.95985e-07
3.95223e-07
3.94877e-07
3.94897e-07
3.95209e-07
3.9573e-07
3.96363e-07
3.96931e-07
3.97271e-07
3.96926e-07
3.95725e-07
4.76724e-07
4.65124e-07
4.55308e-07
4.46292e-07
4.38264e-07
4.31058e-07
4.24913e-07
4.19577e-07
4.15161e-07
4.11502e-07
4.08601e-07
4.06358e-07
4.04723e-07
4.03613e-07
4.0294e-07
4.02602e-07
4.02433e-07
4.0228e-07
4.0178e-07
4.0078e-07
5.16542e-07
5.01952e-07
4.89149e-07
4.77084e-07
4.66291e-07
4.56218e-07
4.4741e-07
4.39503e-07
4.327e-07
4.26834e-07
4.21924e-07
4.17874e-07
4.14636e-07
4.1213e-07
4.10278e-07
4.0898e-07
4.08108e-07
4.07532e-07
4.0703e-07
4.0645e-07
5.5011e-07
5.33435e-07
5.18816e-07
5.04241e-07
4.91429e-07
4.79131e-07
4.68214e-07
4.58211e-07
4.4937e-07
4.41558e-07
4.34809e-07
4.2906e-07
4.24282e-07
4.20412e-07
4.17395e-07
4.15154e-07
4.13619e-07
4.12686e-07
4.12311e-07
4.12326e-07
5.7731e-07
5.58783e-07
5.44201e-07
5.2788e-07
5.13526e-07
4.99419e-07
4.86637e-07
4.74834e-07
4.64223e-07
4.54736e-07
4.46395e-07
4.39165e-07
4.33026e-07
4.27938e-07
4.23874e-07
4.20786e-07
4.18673e-07
4.17464e-07
4.1731e-07
4.18016e-07
5.97507e-07
5.77693e-07
5.64092e-07
5.47933e-07
5.32971e-07
5.18096e-07
5.04018e-07
4.90782e-07
4.7859e-07
4.67505e-07
4.5759e-07
4.48861e-07
4.41326e-07
4.34978e-07
4.29823e-07
4.25845e-07
4.2312e-07
4.21615e-07
4.21687e-07
4.2313e-07
6.05285e-07
5.86733e-07
5.73305e-07
5.58116e-07
5.43188e-07
5.28337e-07
5.14007e-07
5.00338e-07
4.87559e-07
4.75773e-07
4.65085e-07
4.55547e-07
4.47211e-07
4.40099e-07
4.34263e-07
4.29722e-07
4.26627e-07
4.24978e-07
4.25293e-07
4.27359e-07
5.89707e-07
5.80222e-07
5.67932e-07
5.54755e-07
5.41286e-07
5.27675e-07
5.14339e-07
5.0143e-07
4.892e-07
4.77775e-07
4.67295e-07
4.57841e-07
4.49499e-07
4.42327e-07
4.36412e-07
4.31812e-07
4.28727e-07
4.27199e-07
4.27862e-07
4.30475e-07
5.77147e-07
5.69974e-07
5.60588e-07
5.49317e-07
5.37603e-07
5.25316e-07
5.13071e-07
5.00996e-07
4.894e-07
4.78429e-07
4.68255e-07
4.5899e-07
4.50746e-07
4.43613e-07
4.37709e-07
4.33126e-07
4.30107e-07
4.28703e-07
4.29621e-07
4.32608e-07
5.62215e-07
5.57939e-07
5.50925e-07
5.41507e-07
5.31469e-07
5.2053e-07
5.09446e-07
4.9832e-07
4.87508e-07
4.7716e-07
4.6748e-07
4.58593e-07
4.50635e-07
4.43717e-07
4.37974e-07
4.33536e-07
4.30633e-07
4.29394e-07
4.30573e-07
4.33768e-07
5.45228e-07
5.43238e-07
5.38458e-07
5.30983e-07
5.2273e-07
5.13303e-07
5.03546e-07
4.9354e-07
4.83682e-07
4.74133e-07
4.65116e-07
4.56775e-07
4.49259e-07
4.42699e-07
4.3723e-07
4.33037e-07
4.30241e-07
4.29332e-07
4.29931e-07
4.3388e-07
5.27168e-07
5.27213e-07
5.24441e-07
5.18789e-07
5.12217e-07
5.04283e-07
4.95867e-07
4.87044e-07
4.78227e-07
4.69587e-07
4.6136e-07
4.53695e-07
4.4676e-07
4.40684e-07
4.35632e-07
4.31733e-07
4.29265e-07
4.28361e-07
4.29606e-07
4.32707e-07
5.08355e-07
5.10073e-07
5.09051e-07
5.05103e-07
5.00124e-07
4.93672e-07
4.86616e-07
4.79027e-07
4.71326e-07
4.63687e-07
4.5635e-07
4.49472e-07
4.43225e-07
4.37739e-07
4.33178e-07
4.29662e-07
4.27457e-07
4.26615e-07
4.27773e-07
4.30696e-07
4.8917e-07
4.92273e-07
4.92774e-07
4.90362e-07
4.86849e-07
4.8181e-07
4.76081e-07
4.69736e-07
4.63186e-07
4.56605e-07
4.50234e-07
4.44229e-07
4.38758e-07
4.33948e-07
4.29954e-07
4.26878e-07
4.24952e-07
4.24235e-07
4.25259e-07
4.27796e-07
4.69782e-07
4.73981e-07
4.75773e-07
4.74731e-07
4.72561e-07
4.68865e-07
4.64428e-07
4.59326e-07
4.53952e-07
4.48476e-07
4.4313e-07
4.38068e-07
4.33449e-07
4.29391e-07
4.26031e-07
4.23453e-07
4.21847e-07
4.2124e-07
4.22079e-07
4.24152e-07
4.50275e-07
4.55332e-07
4.58211e-07
4.58383e-07
4.57439e-07
4.55012e-07
4.51826e-07
4.47956e-07
4.43772e-07
4.39432e-07
4.3516e-07
4.31098e-07
4.27393e-07
4.24151e-07
4.21486e-07
4.19464e-07
4.18218e-07
4.17753e-07
4.18382e-07
4.19912e-07
4.30618e-07
4.36329e-07
4.40122e-07
4.41376e-07
4.41564e-07
4.40347e-07
4.38383e-07
4.35743e-07
4.32764e-07
4.29594e-07
4.26437e-07
4.23425e-07
4.2069e-07
4.18322e-07
4.16411e-07
4.14999e-07
4.14163e-07
4.13871e-07
4.14296e-07
4.15265e-07
4.10717e-07
4.16933e-07
4.21509e-07
4.23751e-07
4.25006e-07
4.24965e-07
4.24212e-07
4.2281e-07
4.2106e-07
4.19094e-07
4.17095e-07
4.15178e-07
4.1346e-07
4.12016e-07
4.1091e-07
4.10161e-07
4.09788e-07
4.09725e-07
4.09986e-07
4.10409e-07
3.90376e-07
3.97009e-07
4.02293e-07
4.05479e-07
4.07787e-07
4.08924e-07
4.09405e-07
4.09275e-07
4.08796e-07
4.0808e-07
4.07285e-07
4.06511e-07
4.05853e-07
4.05374e-07
4.05116e-07
4.05076e-07
4.05222e-07
4.0545e-07
4.0562e-07
4.05561e-07
3.69408e-07
3.76442e-07
3.82422e-07
3.86569e-07
3.89962e-07
3.92327e-07
3.94097e-07
3.95301e-07
3.96156e-07
3.9675e-07
3.97212e-07
3.97623e-07
3.98063e-07
3.9858e-07
3.99197e-07
3.99899e-07
4.00611e-07
4.01197e-07
4.01373e-07
4.00938e-07
3.47483e-07
3.54998e-07
3.61754e-07
3.66965e-07
3.71553e-07
3.75259e-07
3.7843e-07
3.81074e-07
3.83356e-07
3.85341e-07
3.87126e-07
3.88773e-07
3.90343e-07
3.91873e-07
3.93378e-07
3.9483e-07
3.96134e-07
3.97132e-07
3.97424e-07
3.96765e-07
3.24482e-07
3.32662e-07
3.4036e-07
3.46816e-07
3.52773e-07
3.57983e-07
3.62704e-07
3.66918e-07
3.7074e-07
3.74202e-07
3.77375e-07
3.80298e-07
3.83017e-07
3.85558e-07
3.87931e-07
3.90111e-07
3.91998e-07
3.93431e-07
3.93948e-07
3.93237e-07
2.99951e-07
3.09152e-07
3.18116e-07
3.26136e-07
3.33747e-07
3.40716e-07
3.47207e-07
3.53174e-07
3.58682e-07
3.63737e-07
3.68377e-07
3.72624e-07
3.76506e-07
3.80042e-07
3.83237e-07
3.86079e-07
3.88484e-07
3.90312e-07
3.91129e-07
3.90557e-07
2.74379e-07
2.85078e-07
2.95714e-07
3.05659e-07
3.15232e-07
3.24212e-07
3.3267e-07
3.40538e-07
3.47838e-07
3.54552e-07
3.60695e-07
3.66272e-07
3.71294e-07
3.75771e-07
3.79709e-07
3.83102e-07
3.85903e-07
3.88015e-07
3.89108e-07
3.88808e-07
2.47253e-07
2.60248e-07
2.73219e-07
2.85642e-07
2.97621e-07
3.08954e-07
3.19641e-07
3.29601e-07
3.38827e-07
3.47289e-07
3.54987e-07
3.61913e-07
3.68068e-07
3.73447e-07
3.78045e-07
3.81853e-07
3.84839e-07
3.86978e-07
3.8812e-07
3.88105e-07
2.21749e-07
2.37689e-07
2.5344e-07
2.68593e-07
2.83135e-07
2.96862e-07
3.09757e-07
3.2173e-07
3.32771e-07
3.42851e-07
3.51969e-07
3.60114e-07
3.67283e-07
3.73457e-07
3.78605e-07
3.82704e-07
3.85693e-07
3.87594e-07
3.88354e-07
3.88242e-07
3.45552e-07
3.68711e-07
4.08198e-07
4.51725e-07
4.95103e-07
5.33359e-07
5.64406e-07
5.8675e-07
6.00685e-07
6.0372e-07
3.27437e-07
3.49042e-07
3.85483e-07
4.26605e-07
4.69006e-07
5.07983e-07
5.41418e-07
5.67156e-07
5.85093e-07
5.92259e-07
3.11211e-07
3.31827e-07
3.65736e-07
4.0424e-07
4.44612e-07
4.82529e-07
5.1622e-07
5.43877e-07
5.65521e-07
5.78948e-07
2.96369e-07
3.16327e-07
3.48143e-07
3.84329e-07
4.22814e-07
4.59596e-07
4.92946e-07
5.21157e-07
5.43803e-07
5.61032e-07
2.82445e-07
3.01957e-07
3.31997e-07
3.66004e-07
4.02484e-07
4.37865e-07
4.70573e-07
4.99256e-07
5.22588e-07
5.41977e-07
2.69374e-07
2.88608e-07
3.17189e-07
3.49268e-07
3.83814e-07
4.1762e-07
4.49177e-07
4.77588e-07
5.00902e-07
5.21683e-07
2.56914e-07
2.75963e-07
3.03311e-07
3.33672e-07
3.66407e-07
3.98669e-07
4.29007e-07
4.56914e-07
4.79866e-07
5.01079e-07
2.45024e-07
2.63929e-07
2.90215e-07
3.1903e-07
3.50045e-07
3.80727e-07
4.09701e-07
4.36809e-07
4.5923e-07
4.80436e-07
2.33623e-07
2.52381e-07
2.77717e-07
3.05128e-07
3.34536e-07
3.63683e-07
3.91281e-07
4.1741e-07
4.39149e-07
4.59965e-07
2.2271e-07
2.41271e-07
2.65703e-07
2.9178e-07
3.19641e-07
3.47253e-07
3.73453e-07
3.98477e-07
4.19465e-07
4.39694e-07
2.12311e-07
2.30578e-07
2.54084e-07
2.78841e-07
3.05179e-07
3.3125e-07
3.56041e-07
3.79864e-07
4.00034e-07
4.19545e-07
2.02509e-07
2.20326e-07
2.42802e-07
2.66168e-07
2.90936e-07
3.1542e-07
3.3877e-07
3.61325e-07
3.80634e-07
3.9936e-07
1.93471e-07
2.10591e-07
2.31805e-07
2.53594e-07
2.76662e-07
2.99465e-07
3.21322e-07
3.42552e-07
3.60966e-07
3.78884e-07
1.85444e-07
2.01494e-07
2.21071e-07
2.40981e-07
2.62127e-07
2.83106e-07
3.03388e-07
3.23242e-07
3.4074e-07
3.57857e-07
1.78906e-07
1.93225e-07
2.10456e-07
2.27952e-07
2.46822e-07
2.65784e-07
2.84408e-07
3.02868e-07
3.19476e-07
3.35856e-07
1.74423e-07
1.85876e-07
1.99805e-07
2.14269e-07
2.30451e-07
2.47181e-07
2.64064e-07
2.81137e-07
2.96921e-07
3.1267e-07
1.7326e-07
1.79634e-07
1.88307e-07
1.98665e-07
2.11657e-07
2.26018e-07
2.41223e-07
2.57076e-07
2.7227e-07
2.87658e-07
1.75672e-07
1.73309e-07
1.75053e-07
1.8072e-07
1.90282e-07
2.02284e-07
2.15994e-07
2.30904e-07
2.45842e-07
2.61213e-07
1.84855e-07
1.65337e-07
1.55987e-07
1.55913e-07
1.62451e-07
1.72847e-07
1.85926e-07
2.00762e-07
2.16284e-07
2.32419e-07
1.89017e-07
1.45382e-07
1.29757e-07
1.25224e-07
1.30308e-07
1.40269e-07
1.53864e-07
1.69711e-07
1.86782e-07
2.04547e-07
)
;

boundaryField
{
    left
    {
        type            calculated;
        value           nonuniform List<scalar> 
30
(
3.41648e-07
3.23739e-07
3.07708e-07
2.93037e-07
2.79301e-07
2.66435e-07
2.5422e-07
2.42625e-07
2.31586e-07
2.21119e-07
2.11268e-07
2.02136e-07
1.93903e-07
1.86846e-07
1.81464e-07
1.78503e-07
1.79472e-07
1.86222e-07
2.05106e-07
2.3468e-07
1.53797e-06
9.87512e-07
7.44134e-07
6.19045e-07
5.41106e-07
4.85776e-07
4.44284e-07
4.11325e-07
3.84416e-07
3.61186e-07
)
;
    }
    right
    {
        type            calculated;
        value           nonuniform List<scalar> 
30
(
3.88091e-07
3.8798e-07
3.89007e-07
3.91664e-07
3.95648e-07
4.00704e-07
4.06387e-07
4.12291e-07
4.18012e-07
4.23174e-07
4.27423e-07
4.30591e-07
4.32742e-07
4.33915e-07
4.33919e-07
4.32837e-07
4.30837e-07
4.27917e-07
4.2425e-07
4.19981e-07
4.15305e-07
4.10422e-07
4.05552e-07
4.00913e-07
3.96732e-07
3.93208e-07
3.9054e-07
3.88807e-07
3.88121e-07
3.88168e-07
)
;
    }
    down
    {
        type            calculated;
        value           nonuniform List<scalar> 
30
(
1.40718e-09
4.61685e-09
2.0809e-08
4.63766e-08
7.58253e-08
1.06608e-07
1.36678e-07
1.65343e-07
1.91637e-07
2.15993e-07
2.3792e-07
2.57025e-07
2.74573e-07
2.90352e-07
3.04584e-07
3.17336e-07
3.28766e-07
3.38954e-07
3.48019e-07
3.56029e-07
3.63064e-07
3.69175e-07
3.74405e-07
3.78781e-07
3.82313e-07
3.85024e-07
3.86903e-07
3.88024e-07
3.8838e-07
3.88251e-07
)
;
    }
    up
    {
        type            calculated;
        value           nonuniform List<scalar> 
30
(
1.86299e-07
1.43703e-07
1.2889e-07
1.24281e-07
1.29238e-07
1.39058e-07
1.52565e-07
1.68388e-07
1.85445e-07
2.03286e-07
2.20541e-07
2.36606e-07
2.52508e-07
2.67785e-07
2.82455e-07
2.96294e-07
3.09295e-07
3.2136e-07
3.32484e-07
3.42636e-07
3.51817e-07
3.60017e-07
3.67228e-07
3.73437e-07
3.78609e-07
3.82721e-07
3.85709e-07
3.87601e-07
3.88347e-07
3.883e-07
)
;
    }
    hole
    {
        type            calculated;
        value           nonuniform List<scalar> 
20
(
6.87103e-07
8.06441e-07
9.23131e-07
1.03485e-06
1.13803e-06
1.23323e-06
1.31521e-06
1.39413e-06
1.45446e-06
1.5245e-06
3.33283e-09
3.33329e-09
1.16811e-08
4.43517e-08
9.53842e-08
1.64226e-07
2.48595e-07
3.4612e-07
4.53777e-07
5.6854e-07
)
;
    }
    frontAndBack
    {
        type            empty;
    }
}


// ************************************************************************* //
