/*--------------------------------*- C++ -*----------------------------------*\
  =========                 |
  \\      /  F ield         | OpenFOAM: The Open Source CFD Toolbox
   \\    /   O peration     | Website:  https://openfoam.org
    \\  /    A nd           | Version:  9
     \\/     M anipulation  |
\*---------------------------------------------------------------------------*/
FoamFile
{
    format      ascii;
    class       pointVectorField;
    location    "1";
    object      pointD;
}
// * * * * * * * * * * * * * * * * * * * * * * * * * * * * * * * * * * * * * //

dimensions      [0 1 0 0 0 0 0];

internalField   nonuniform List<vector> 
2142
(
(7.42811e-07 2.17228e-07 -9.47124e-21)
(6.88735e-07 2.51501e-07 0)
(6.50974e-07 2.75937e-07 0)
(6.2353e-07 2.95784e-07 0)
(6.03813e-07 3.1204e-07 0)
(5.89864e-07 3.26033e-07 0)
(5.80277e-07 3.38333e-07 0)
(5.74065e-07 3.49445e-07 0)
(5.70463e-07 3.59673e-07 0)
(5.68912e-07 3.69223e-07 0)
(5.69408e-07 3.79584e-07 0)
(6.7872e-07 1.99274e-07 -1.05543e-20)
(6.21465e-07 2.26276e-07 0)
(5.81802e-07 2.45297e-07 0)
(5.53136e-07 2.60886e-07 0)
(5.3259e-07 2.73625e-07 0)
(5.18023e-07 2.8464e-07 0)
(5.07916e-07 2.94329e-07 0)
(5.01218e-07 3.03119e-07 0)
(4.971e-07 3.1121e-07 0)
(4.94984e-07 3.1885e-07 0)
(4.85235e-07 3.19193e-07 0)
(6.12027e-07 1.81621e-07 -1.13313e-20)
(5.53202e-07 2.00528e-07 0)
(5.12689e-07 2.13719e-07 0)
(4.8357e-07 2.24852e-07 0)
(4.62774e-07 2.34018e-07 0)
(4.48036e-07 2.4208e-07 0)
(4.37757e-07 2.4923e-07 0)
(4.30837e-07 2.55782e-07 0)
(4.26423e-07 2.61825e-07 0)
(4.2389e-07 2.67596e-07 0)
(4.15157e-07 2.66969e-07 0)
(5.43e-07 1.64428e-07 -1.16749e-20)
(4.84345e-07 1.74773e-07 0)
(4.4413e-07 1.81933e-07 0)
(4.15399e-07 1.88565e-07 0)
(3.94991e-07 1.94218e-07 0)
(3.80576e-07 1.99457e-07 0)
(3.70515e-07 2.04237e-07 0)
(3.63687e-07 2.08743e-07 0)
(3.59239e-07 2.12944e-07 0)
(3.5654e-07 2.17023e-07 0)
(3.49001e-07 2.15743e-07 0)
(4.71887e-07 1.47788e-07 -1.15014e-20)
(4.15181e-07 1.49496e-07 0)
(3.76467e-07 1.50667e-07 0)
(3.49022e-07 1.52927e-07 0)
(3.2969e-07 1.55263e-07 0)
(3.16126e-07 1.57914e-07 0)
(3.06694e-07 1.6058e-07 0)
(3.00282e-07 1.63297e-07 0)
(2.96065e-07 1.65916e-07 0)
(2.93422e-07 1.6854e-07 0)
(2.87132e-07 1.66899e-07 0)
(3.9902e-07 1.31694e-07 -1.07836e-20)
(3.45932e-07 1.25083e-07 0)
(3.09923e-07 1.2057e-07 0)
(2.84706e-07 1.18807e-07 0)
(2.67175e-07 1.18193e-07 0)
(2.5501e-07 1.18629e-07 0)
(2.46621e-07 1.19542e-07 0)
(2.40935e-07 1.20812e-07 0)
(2.37186e-07 1.22172e-07 0)
(2.34787e-07 1.23638e-07 0)
(2.29741e-07 1.2192e-07 0)
(3.24616e-07 1.1597e-07 -9.54883e-21)
(2.76615e-07 1.01748e-07 0)
(2.4455e-07 9.216e-08 0)
(2.22553e-07 8.69981e-08 0)
(2.07579e-07 8.40218e-08 0)
(1.97364e-07 8.27771e-08 0)
(1.9041e-07 8.24123e-08 0)
(1.85732e-07 8.26532e-08 0)
(1.82651e-07 8.31324e-08 0)
(1.80646e-07 8.37831e-08 0)
(1.76792e-07 8.22512e-08 0)
(2.4931e-07 1.00149e-07 -7.89415e-21)
(2.07323e-07 7.93969e-08 0)
(1.80453e-07 6.57674e-08 0)
(1.62716e-07 5.82404e-08 0)
(1.51038e-07 5.37804e-08 0)
(1.43263e-07 5.15762e-08 0)
(1.38059e-07 5.05171e-08 0)
(1.34592e-07 5.02066e-08 0)
(1.32311e-07 5.02108e-08 0)
(1.30799e-07 5.04038e-08 0)
(1.28052e-07 4.92713e-08 0)
(1.73501e-07 8.28177e-08 -5.93393e-21)
(1.37736e-07 5.72065e-08 0)
(1.17633e-07 4.13868e-08 0)
(1.05249e-07 3.31937e-08 0)
(9.75078e-08 2.85333e-08 0)
(9.25301e-08 2.62754e-08 0)
(8.92588e-08 2.51651e-08 0)
(8.70972e-08 2.47685e-08 0)
(8.56665e-08 2.46604e-08 0)
(8.46893e-08 2.47037e-08 0)
(8.29396e-08 2.40819e-08 0)
(1.01947e-07 6.09612e-08 -3.81322e-21)
(6.84545e-08 3.36805e-08 0)
(5.70353e-08 1.96855e-08 0)
(5.09335e-08 1.34076e-08 0)
(4.73617e-08 1.01934e-08 0)
(4.51364e-08 8.79447e-09 0)
(4.36783e-08 8.17326e-09 0)
(4.27109e-08 8.00125e-09 0)
(4.20548e-08 7.98809e-09 0)
(4.15841e-08 8.04554e-09 0)
(4.0723e-08 7.86367e-09 0)
(3.42762e-08 2.4232e-08 -1.37047e-21)
(0 0 0)
(0 0 0)
(0 0 0)
(0 0 0)
(0 0 0)
(0 0 0)
(0 0 0)
(0 0 0)
(0 0 0)
(0 0 0)
(7.42811e-07 2.17228e-07 -9.47124e-21)
(6.88735e-07 2.51501e-07 0)
(6.50974e-07 2.75937e-07 0)
(6.2353e-07 2.95784e-07 0)
(6.03813e-07 3.1204e-07 0)
(5.89864e-07 3.26033e-07 0)
(5.80277e-07 3.38333e-07 0)
(5.74065e-07 3.49445e-07 0)
(5.70463e-07 3.59673e-07 0)
(5.68912e-07 3.69223e-07 0)
(5.69408e-07 3.79584e-07 0)
(6.7872e-07 1.99274e-07 -1.05543e-20)
(6.21465e-07 2.26276e-07 0)
(5.81802e-07 2.45297e-07 0)
(5.53136e-07 2.60886e-07 0)
(5.3259e-07 2.73625e-07 0)
(5.18023e-07 2.8464e-07 0)
(5.07916e-07 2.94329e-07 0)
(5.01218e-07 3.03119e-07 0)
(4.971e-07 3.1121e-07 0)
(4.94984e-07 3.1885e-07 0)
(4.85235e-07 3.19193e-07 0)
(6.12027e-07 1.81621e-07 -1.13313e-20)
(5.53202e-07 2.00528e-07 0)
(5.12689e-07 2.13719e-07 0)
(4.8357e-07 2.24852e-07 0)
(4.62774e-07 2.34018e-07 0)
(4.48036e-07 2.4208e-07 0)
(4.37757e-07 2.4923e-07 0)
(4.30837e-07 2.55782e-07 0)
(4.26423e-07 2.61825e-07 0)
(4.2389e-07 2.67596e-07 0)
(4.15157e-07 2.66969e-07 0)
(5.43e-07 1.64428e-07 -1.16749e-20)
(4.84345e-07 1.74773e-07 0)
(4.4413e-07 1.81933e-07 0)
(4.15399e-07 1.88565e-07 0)
(3.94991e-07 1.94218e-07 0)
(3.80576e-07 1.99457e-07 0)
(3.70515e-07 2.04237e-07 0)
(3.63687e-07 2.08743e-07 0)
(3.59239e-07 2.12944e-07 0)
(3.5654e-07 2.17023e-07 0)
(3.49001e-07 2.15743e-07 0)
(4.71887e-07 1.47788e-07 -1.15014e-20)
(4.15181e-07 1.49496e-07 0)
(3.76467e-07 1.50667e-07 0)
(3.49022e-07 1.52927e-07 0)
(3.2969e-07 1.55263e-07 0)
(3.16126e-07 1.57914e-07 0)
(3.06694e-07 1.6058e-07 0)
(3.00282e-07 1.63297e-07 0)
(2.96065e-07 1.65916e-07 0)
(2.93422e-07 1.6854e-07 0)
(2.87132e-07 1.66899e-07 0)
(3.9902e-07 1.31694e-07 -1.07836e-20)
(3.45932e-07 1.25083e-07 0)
(3.09923e-07 1.2057e-07 0)
(2.84706e-07 1.18807e-07 0)
(2.67175e-07 1.18193e-07 0)
(2.5501e-07 1.18629e-07 0)
(2.46621e-07 1.19542e-07 0)
(2.40935e-07 1.20812e-07 0)
(2.37186e-07 1.22172e-07 0)
(2.34787e-07 1.23638e-07 0)
(2.29741e-07 1.2192e-07 0)
(3.24616e-07 1.1597e-07 -9.54883e-21)
(2.76615e-07 1.01748e-07 0)
(2.4455e-07 9.216e-08 0)
(2.22553e-07 8.69981e-08 0)
(2.07579e-07 8.40218e-08 0)
(1.97364e-07 8.27771e-08 0)
(1.9041e-07 8.24123e-08 0)
(1.85732e-07 8.26532e-08 0)
(1.82651e-07 8.31324e-08 0)
(1.80646e-07 8.37831e-08 0)
(1.76792e-07 8.22512e-08 0)
(2.4931e-07 1.00149e-07 -7.89415e-21)
(2.07323e-07 7.93969e-08 0)
(1.80453e-07 6.57674e-08 0)
(1.62716e-07 5.82404e-08 0)
(1.51038e-07 5.37804e-08 0)
(1.43263e-07 5.15762e-08 0)
(1.38059e-07 5.05171e-08 0)
(1.34592e-07 5.02066e-08 0)
(1.32311e-07 5.02108e-08 0)
(1.30799e-07 5.04038e-08 0)
(1.28052e-07 4.92713e-08 0)
(1.73501e-07 8.28177e-08 -5.93393e-21)
(1.37736e-07 5.72065e-08 0)
(1.17633e-07 4.13868e-08 0)
(1.05249e-07 3.31937e-08 0)
(9.75078e-08 2.85333e-08 0)
(9.25301e-08 2.62754e-08 0)
(8.92588e-08 2.51651e-08 0)
(8.70972e-08 2.47685e-08 0)
(8.56665e-08 2.46604e-08 0)
(8.46893e-08 2.47037e-08 0)
(8.29396e-08 2.40819e-08 0)
(1.01947e-07 6.09612e-08 -3.81322e-21)
(6.84545e-08 3.36805e-08 0)
(5.70353e-08 1.96855e-08 0)
(5.09335e-08 1.34076e-08 0)
(4.73617e-08 1.01934e-08 0)
(4.51364e-08 8.79447e-09 0)
(4.36783e-08 8.17326e-09 0)
(4.27109e-08 8.00125e-09 0)
(4.20548e-08 7.98809e-09 0)
(4.15841e-08 8.04554e-09 0)
(4.0723e-08 7.86367e-09 0)
(3.42762e-08 2.4232e-08 -1.37047e-21)
(0 0 0)
(0 0 0)
(0 0 0)
(0 0 0)
(0 0 0)
(0 0 0)
(0 0 0)
(0 0 0)
(0 0 0)
(0 0 0)
(1.20518e-06 3.56888e-07 -2.44189e-21)
(1.21391e-06 3.91413e-07 -1.53238e-21)
(1.21306e-06 4.35797e-07 -1.6715e-21)
(1.21254e-06 4.76968e-07 -1.81014e-21)
(1.21346e-06 5.14854e-07 -1.94809e-21)
(1.21621e-06 5.4984e-07 -2.08548e-21)
(1.22094e-06 5.8238e-07 -2.22243e-21)
(1.22763e-06 6.12936e-07 -2.35905e-21)
(1.23621e-06 6.41893e-07 -2.49543e-21)
(1.24649e-06 6.69615e-07 -2.63165e-21)
(1.25837e-06 6.96247e-07 -2.73014e-21)
(1.17837e-06 3.43493e-07 -3.48038e-21)
(1.1749e-06 3.89833e-07 0)
(1.17203e-06 4.33933e-07 0)
(1.17059e-06 4.74492e-07 0)
(1.171e-06 5.11524e-07 0)
(1.17338e-06 5.45483e-07 0)
(1.17773e-06 5.76872e-07 0)
(1.18394e-06 6.06193e-07 0)
(1.1919e-06 6.33859e-07 0)
(1.20142e-06 6.60261e-07 0)
(1.21307e-06 6.85722e-07 0)
(1.14194e-06 3.37799e-07 -3.58901e-21)
(1.13449e-06 3.85158e-07 0)
(1.12847e-06 4.28848e-07 0)
(1.12469e-06 4.68552e-07 0)
(1.1233e-06 5.04494e-07 0)
(1.12425e-06 5.3724e-07 0)
(1.12737e-06 5.67337e-07 0)
(1.13245e-06 5.95319e-07 0)
(1.13929e-06 6.21615e-07 0)
(1.14766e-06 6.46639e-07 0)
(1.15901e-06 6.70982e-07 0)
(1.10332e-06 3.286e-07 -3.70944e-21)
(1.09105e-06 3.77511e-07 0)
(1.08128e-06 4.20636e-07 0)
(1.07452e-06 4.59172e-07 0)
(1.07074e-06 4.93675e-07 0)
(1.06973e-06 5.24898e-07 0)
(1.07116e-06 5.53449e-07 0)
(1.07472e-06 5.79889e-07 0)
(1.08014e-06 6.04656e-07 0)
(1.08711e-06 6.28174e-07 0)
(1.09814e-06 6.5143e-07 0)
(1.06182e-06 3.16742e-07 -3.9283e-21)
(1.04393e-06 3.67004e-07 0)
(1.02998e-06 4.09317e-07 0)
(1.0199e-06 4.46396e-07 0)
(1.01345e-06 4.79157e-07 0)
(1.0102e-06 5.08571e-07 0)
(1.00971e-06 5.3532e-07 0)
(1.01154e-06 5.59995e-07 0)
(1.01538e-06 5.83042e-07 0)
(1.02083e-06 6.04886e-07 0)
(1.03157e-06 6.27058e-07 0)
(1.01706e-06 3.02796e-07 -4.33106e-21)
(9.92884e-07 3.53685e-07 0)
(9.74513e-07 3.94757e-07 0)
(9.60992e-07 4.3003e-07 0)
(9.51786e-07 4.60736e-07 0)
(9.46254e-07 4.88067e-07 0)
(9.43791e-07 5.12771e-07 0)
(9.43873e-07 5.35469e-07 0)
(9.46105e-07 5.56615e-07 0)
(9.50026e-07 5.76624e-07 0)
(9.60557e-07 5.97723e-07 0)
(9.68881e-07 2.87277e-07 -4.97622e-21)
(9.38045e-07 3.37679e-07 0)
(9.15158e-07 3.7692e-07 0)
(8.98231e-07 4.09993e-07 0)
(8.86353e-07 4.38349e-07 0)
(8.7862e-07 4.63357e-07 0)
(8.74273e-07 4.85814e-07 0)
(8.72682e-07 5.0636e-07 0)
(8.73382e-07 5.2545e-07 0)
(8.75851e-07 5.43485e-07 0)
(8.86281e-07 5.63536e-07 0)
(9.17263e-07 2.70606e-07 -5.8766e-21)
(8.79731e-07 3.19157e-07 0)
(8.52434e-07 3.55851e-07 0)
(8.32278e-07 3.86282e-07 0)
(8.1792e-07 4.11996e-07 0)
(8.08175e-07 4.34471e-07 0)
(8.02117e-07 4.54518e-07 0)
(7.99012e-07 4.72777e-07 0)
(7.98327e-07 4.89697e-07 0)
(7.99486e-07 5.05649e-07 0)
(8.09929e-07 5.2469e-07 0)
(8.62281e-07 2.53163e-07 -6.99214e-21)
(8.18393e-07 2.98383e-07 0)
(7.87006e-07 3.31749e-07 0)
(7.63933e-07 3.59081e-07 0)
(7.47385e-07 3.81876e-07 0)
(7.35893e-07 4.01643e-07 0)
(7.2836e-07 4.1916e-07 0)
(7.23956e-07 4.35047e-07 0)
(7.22072e-07 4.49725e-07 0)
(7.22105e-07 4.63524e-07 0)
(7.32671e-07 4.8158e-07 0)
(8.0407e-07 2.35273e-07 -8.23346e-21)
(7.54549e-07 2.75693e-07 0)
(7.19607e-07 3.04952e-07 0)
(6.94062e-07 3.28739e-07 0)
(6.757e-07 3.48365e-07 0)
(6.62786e-07 3.65289e-07 0)
(6.54062e-07 3.80206e-07 0)
(6.48609e-07 3.93687e-07 0)
(6.45744e-07 4.06105e-07 0)
(6.44874e-07 4.17706e-07 0)
(6.55612e-07 4.3477e-07 0)
(1.20518e-06 3.56888e-07 -2.44189e-21)
(1.21391e-06 3.91413e-07 -1.53238e-21)
(1.21306e-06 4.35797e-07 -1.6715e-21)
(1.21254e-06 4.76968e-07 -1.81014e-21)
(1.21346e-06 5.14854e-07 -1.94809e-21)
(1.21621e-06 5.4984e-07 -2.08548e-21)
(1.22094e-06 5.8238e-07 -2.22243e-21)
(1.22763e-06 6.12936e-07 -2.35905e-21)
(1.23621e-06 6.41893e-07 -2.49543e-21)
(1.24649e-06 6.69615e-07 -2.63165e-21)
(1.25837e-06 6.96247e-07 -2.73014e-21)
(1.17837e-06 3.43493e-07 -3.48038e-21)
(1.1749e-06 3.89833e-07 0)
(1.17203e-06 4.33933e-07 0)
(1.17059e-06 4.74492e-07 0)
(1.171e-06 5.11524e-07 0)
(1.17338e-06 5.45483e-07 0)
(1.17773e-06 5.76872e-07 0)
(1.18394e-06 6.06193e-07 0)
(1.1919e-06 6.33859e-07 0)
(1.20142e-06 6.60261e-07 0)
(1.21307e-06 6.85722e-07 0)
(1.14194e-06 3.37799e-07 -3.58901e-21)
(1.13449e-06 3.85158e-07 0)
(1.12847e-06 4.28848e-07 0)
(1.12469e-06 4.68552e-07 0)
(1.1233e-06 5.04494e-07 0)
(1.12425e-06 5.3724e-07 0)
(1.12737e-06 5.67337e-07 0)
(1.13245e-06 5.95319e-07 0)
(1.13929e-06 6.21615e-07 0)
(1.14766e-06 6.46639e-07 0)
(1.15901e-06 6.70982e-07 0)
(1.10332e-06 3.286e-07 -3.70944e-21)
(1.09105e-06 3.77511e-07 0)
(1.08128e-06 4.20636e-07 0)
(1.07452e-06 4.59172e-07 0)
(1.07074e-06 4.93675e-07 0)
(1.06973e-06 5.24898e-07 0)
(1.07116e-06 5.53449e-07 0)
(1.07472e-06 5.79889e-07 0)
(1.08014e-06 6.04656e-07 0)
(1.08711e-06 6.28174e-07 0)
(1.09814e-06 6.5143e-07 0)
(1.06182e-06 3.16742e-07 -3.9283e-21)
(1.04393e-06 3.67004e-07 0)
(1.02998e-06 4.09317e-07 0)
(1.0199e-06 4.46396e-07 0)
(1.01345e-06 4.79157e-07 0)
(1.0102e-06 5.08571e-07 0)
(1.00971e-06 5.3532e-07 0)
(1.01154e-06 5.59995e-07 0)
(1.01538e-06 5.83042e-07 0)
(1.02083e-06 6.04886e-07 0)
(1.03157e-06 6.27058e-07 0)
(1.01706e-06 3.02796e-07 -4.33106e-21)
(9.92884e-07 3.53685e-07 0)
(9.74513e-07 3.94757e-07 0)
(9.60992e-07 4.3003e-07 0)
(9.51786e-07 4.60736e-07 0)
(9.46254e-07 4.88067e-07 0)
(9.43791e-07 5.12771e-07 0)
(9.43873e-07 5.35469e-07 0)
(9.46105e-07 5.56615e-07 0)
(9.50026e-07 5.76624e-07 0)
(9.60557e-07 5.97723e-07 0)
(9.68881e-07 2.87277e-07 -4.97622e-21)
(9.38045e-07 3.37679e-07 0)
(9.15158e-07 3.7692e-07 0)
(8.98231e-07 4.09993e-07 0)
(8.86353e-07 4.38349e-07 0)
(8.7862e-07 4.63357e-07 0)
(8.74273e-07 4.85814e-07 0)
(8.72682e-07 5.0636e-07 0)
(8.73382e-07 5.2545e-07 0)
(8.75851e-07 5.43485e-07 0)
(8.86281e-07 5.63536e-07 0)
(9.17263e-07 2.70606e-07 -5.8766e-21)
(8.79731e-07 3.19157e-07 0)
(8.52434e-07 3.55851e-07 0)
(8.32278e-07 3.86282e-07 0)
(8.1792e-07 4.11996e-07 0)
(8.08175e-07 4.34471e-07 0)
(8.02117e-07 4.54518e-07 0)
(7.99012e-07 4.72777e-07 0)
(7.98327e-07 4.89697e-07 0)
(7.99486e-07 5.05649e-07 0)
(8.09929e-07 5.2469e-07 0)
(8.62281e-07 2.53163e-07 -6.99214e-21)
(8.18393e-07 2.98383e-07 0)
(7.87006e-07 3.31749e-07 0)
(7.63933e-07 3.59081e-07 0)
(7.47385e-07 3.81876e-07 0)
(7.35893e-07 4.01643e-07 0)
(7.2836e-07 4.1916e-07 0)
(7.23956e-07 4.35047e-07 0)
(7.22072e-07 4.49725e-07 0)
(7.22105e-07 4.63524e-07 0)
(7.32671e-07 4.8158e-07 0)
(8.0407e-07 2.35273e-07 -8.23346e-21)
(7.54549e-07 2.75693e-07 0)
(7.19607e-07 3.04952e-07 0)
(6.94062e-07 3.28739e-07 0)
(6.757e-07 3.48365e-07 0)
(6.62786e-07 3.65289e-07 0)
(6.54062e-07 3.80206e-07 0)
(6.48609e-07 3.93687e-07 0)
(6.45744e-07 4.06105e-07 0)
(6.44874e-07 4.17706e-07 0)
(6.55612e-07 4.3477e-07 0)
(1.27185e-06 7.22122e-07 -2.75268e-21)
(1.2867e-06 7.47592e-07 -2.73703e-21)
(1.30269e-06 7.72678e-07 -2.72154e-21)
(1.31971e-06 7.97502e-07 -2.70621e-21)
(1.33765e-06 8.22167e-07 -2.69102e-21)
(1.35641e-06 8.46753e-07 -2.67598e-21)
(1.3759e-06 8.71333e-07 -2.66106e-21)
(1.39604e-06 8.95964e-07 -2.64627e-21)
(1.41675e-06 9.20697e-07 -2.63159e-21)
(1.43797e-06 9.45573e-07 -2.61702e-21)
(1.45963e-06 9.70628e-07 -2.60256e-21)
(1.48168e-06 9.95891e-07 -2.58819e-21)
(1.50405e-06 1.02139e-06 -2.57392e-21)
(1.52669e-06 1.04714e-06 -2.55975e-21)
(1.54955e-06 1.07315e-06 -2.54567e-21)
(1.57256e-06 1.09942e-06 -2.53168e-21)
(1.59567e-06 1.12594e-06 -2.51779e-21)
(1.6188e-06 1.15269e-06 -2.504e-21)
(1.64189e-06 1.17959e-06 -2.49031e-21)
(1.64962e-06 1.19633e-06 2.51407e-22)
(1.22744e-06 7.10817e-07 0)
(1.24353e-06 7.35746e-07 0)
(1.26055e-06 7.60344e-07 0)
(1.2784e-06 7.84741e-07 0)
(1.29701e-06 8.09035e-07 0)
(1.3163e-06 8.33303e-07 0)
(1.3362e-06 8.57615e-07 0)
(1.35666e-06 8.82023e-07 0)
(1.37761e-06 9.06575e-07 0)
(1.399e-06 9.31311e-07 0)
(1.42078e-06 9.56263e-07 0)
(1.4429e-06 9.81459e-07 0)
(1.46531e-06 1.00692e-06 0)
(1.48797e-06 1.03267e-06 0)
(1.51084e-06 1.05871e-06 0)
(1.53388e-06 1.08505e-06 0)
(1.55704e-06 1.11167e-06 0)
(1.58028e-06 1.13854e-06 0)
(1.60355e-06 1.1656e-06 0)
(1.62674e-06 1.19271e-06 3.00666e-21)
(1.17474e-06 6.95567e-07 0)
(1.19276e-06 7.20316e-07 0)
(1.21145e-06 7.44754e-07 0)
(1.23073e-06 7.69017e-07 0)
(1.25058e-06 7.93208e-07 0)
(1.27093e-06 8.17402e-07 0)
(1.29175e-06 8.4167e-07 0)
(1.313e-06 8.66063e-07 0)
(1.33464e-06 8.90629e-07 0)
(1.35662e-06 9.15406e-07 0)
(1.37892e-06 9.40428e-07 0)
(1.4015e-06 9.65722e-07 0)
(1.42434e-06 9.9131e-07 0)
(1.44739e-06 1.01721e-06 0)
(1.47064e-06 1.04343e-06 0)
(1.49405e-06 1.06999e-06 0)
(1.51759e-06 1.09686e-06 0)
(1.54122e-06 1.12402e-06 0)
(1.56491e-06 1.15144e-06 0)
(1.58841e-06 1.17897e-06 3.03322e-21)
(1.11557e-06 6.75812e-07 0)
(1.13599e-06 7.00793e-07 0)
(1.15681e-06 7.25456e-07 0)
(1.17798e-06 7.49935e-07 0)
(1.19949e-06 7.74341e-07 0)
(1.22131e-06 7.9875e-07 0)
(1.24344e-06 8.23238e-07 0)
(1.26584e-06 8.47859e-07 0)
(1.28851e-06 8.72662e-07 0)
(1.31142e-06 8.97688e-07 0)
(1.33456e-06 9.22971e-07 0)
(1.3579e-06 9.48541e-07 0)
(1.38145e-06 9.74422e-07 0)
(1.40516e-06 1.00063e-06 0)
(1.42904e-06 1.0272e-06 0)
(1.45306e-06 1.05411e-06 0)
(1.47719e-06 1.08139e-06 0)
(1.50142e-06 1.10902e-06 0)
(1.5257e-06 1.13699e-06 0)
(1.5497e-06 1.16519e-06 3.08545e-21)
(1.05098e-06 6.51518e-07 0)
(1.07419e-06 6.7712e-07 0)
(1.09752e-06 7.02376e-07 0)
(1.12093e-06 7.27406e-07 0)
(1.14446e-06 7.52339e-07 0)
(1.16808e-06 7.77248e-07 0)
(1.19183e-06 8.02219e-07 0)
(1.2157e-06 8.27308e-07 0)
(1.23968e-06 8.52573e-07 0)
(1.2638e-06 8.78054e-07 0)
(1.28803e-06 9.03793e-07 0)
(1.31239e-06 9.29821e-07 0)
(1.33687e-06 9.56167e-07 0)
(1.36146e-06 9.82857e-07 0)
(1.38617e-06 1.00991e-06 0)
(1.41098e-06 1.03735e-06 0)
(1.43589e-06 1.06519e-06 0)
(1.46087e-06 1.09345e-06 0)
(1.48588e-06 1.12214e-06 0)
(1.51054e-06 1.15119e-06 3.16267e-21)
(9.82175e-07 6.2256e-07 0)
(1.00846e-06 6.4918e-07 0)
(1.03459e-06 6.75409e-07 0)
(1.06051e-06 7.01336e-07 0)
(1.08632e-06 7.27117e-07 0)
(1.112e-06 7.52821e-07 0)
(1.13762e-06 7.78548e-07 0)
(1.16318e-06 8.04358e-07 0)
(1.18871e-06 8.30316e-07 0)
(1.21424e-06 8.5647e-07 0)
(1.23977e-06 8.82864e-07 0)
(1.26532e-06 9.09537e-07 0)
(1.29091e-06 9.36523e-07 0)
(1.31655e-06 9.63854e-07 0)
(1.34224e-06 9.9156e-07 0)
(1.36799e-06 1.01967e-06 0)
(1.3938e-06 1.04822e-06 0)
(1.41965e-06 1.07724e-06 0)
(1.44552e-06 1.10678e-06 0)
(1.47097e-06 1.1368e-06 3.26355e-21)
(9.1026e-07 5.8904e-07 0)
(9.39804e-07 6.17061e-07 0)
(9.68926e-07 6.44629e-07 0)
(9.97557e-07 6.71788e-07 0)
(1.02584e-06 6.98726e-07 0)
(1.05377e-06 7.25513e-07 0)
(1.08144e-06 7.5226e-07 0)
(1.10887e-06 7.79038e-07 0)
(1.13612e-06 8.05918e-07 0)
(1.16322e-06 8.32956e-07 0)
(1.1902e-06 8.60205e-07 0)
(1.21709e-06 8.87709e-07 0)
(1.24393e-06 9.15509e-07 0)
(1.27073e-06 9.43643e-07 0)
(1.29751e-06 9.7215e-07 0)
(1.3243e-06 1.00107e-06 0)
(1.3511e-06 1.03045e-06 0)
(1.37792e-06 1.06036e-06 0)
(1.40473e-06 1.09084e-06 0)
(1.43113e-06 1.12191e-06 3.38653e-21)
(8.3634e-07 5.51148e-07 0)
(8.69226e-07 5.80925e-07 0)
(9.01444e-07 6.10172e-07 0)
(9.32894e-07 6.38883e-07 0)
(9.63766e-07 6.67273e-07 0)
(9.94075e-07 6.95423e-07 0)
(1.02392e-06 7.23449e-07 0)
(1.05335e-06 7.51435e-07 0)
(1.08244e-06 7.79461e-07 0)
(1.11122e-06 8.07593e-07 0)
(1.13976e-06 8.35891e-07 0)
(1.1681e-06 8.64407e-07 0)
(1.19627e-06 8.93187e-07 0)
(1.22432e-06 9.2228e-07 0)
(1.25228e-06 9.51731e-07 0)
(1.28018e-06 9.81591e-07 0)
(1.30804e-06 1.01192e-06 0)
(1.33588e-06 1.04279e-06 0)
(1.36371e-06 1.07429e-06 0)
(1.39115e-06 1.10645e-06 3.52962e-21)
(7.615e-07 5.09239e-07 0)
(7.97698e-07 5.41091e-07 0)
(8.33022e-07 5.72307e-07 0)
(8.67328e-07 6.02857e-07 0)
(9.00839e-07 6.32959e-07 0)
(9.33584e-07 6.62717e-07 0)
(9.65675e-07 6.92255e-07 0)
(9.97178e-07 7.21671e-07 0)
(1.02817e-06 7.51053e-07 0)
(1.05872e-06 7.80478e-07 0)
(1.08888e-06 8.10012e-07 0)
(1.11873e-06 8.39715e-07 0)
(1.1483e-06 8.69641e-07 0)
(1.17765e-06 8.99842e-07 0)
(1.20684e-06 9.30372e-07 0)
(1.23589e-06 9.6129e-07 0)
(1.26485e-06 9.92662e-07 0)
(1.29375e-06 1.02458e-06 0)
(1.32264e-06 1.05714e-06 0)
(1.35121e-06 1.0904e-06 3.69067e-21)
(6.8672e-07 4.63821e-07 0)
(7.26057e-07 4.97976e-07 0)
(7.64369e-07 5.31367e-07 0)
(8.01503e-07 5.64008e-07 0)
(8.3765e-07 5.9606e-07 0)
(8.72857e-07 6.27656e-07 0)
(9.07229e-07 6.5892e-07 0)
(9.40844e-07 6.89967e-07 0)
(9.73789e-07 7.20895e-07 0)
(1.00614e-06 7.5179e-07 0)
(1.03798e-06 7.82729e-07 0)
(1.06936e-06 8.13777e-07 0)
(1.10037e-06 8.44996e-07 0)
(1.13105e-06 8.76443e-07 0)
(1.16148e-06 9.08175e-07 0)
(1.1917e-06 9.40257e-07 0)
(1.22178e-06 9.72759e-07 0)
(1.25176e-06 1.00578e-06 0)
(1.28171e-06 1.03941e-06 0)
(1.31148e-06 1.07379e-06 3.86723e-21)
(6.20349e-07 4.22494e-07 0)
(6.62026e-07 4.58631e-07 0)
(7.02568e-07 4.93796e-07 0)
(7.41894e-07 5.28205e-07 0)
(7.80119e-07 5.61952e-07 0)
(8.173e-07 5.95174e-07 0)
(8.53522e-07 6.2799e-07 0)
(8.88865e-07 6.60512e-07 0)
(9.23415e-07 6.92842e-07 0)
(9.57253e-07 7.25071e-07 0)
(9.9046e-07 7.57277e-07 0)
(1.02311e-06 7.8953e-07 0)
(1.05529e-06 8.21893e-07 0)
(1.08705e-06 8.54425e-07 0)
(1.11848e-06 8.87184e-07 0)
(1.14964e-06 9.20233e-07 0)
(1.18059e-06 9.5364e-07 0)
(1.21142e-06 9.87499e-07 0)
(1.2422e-06 1.0219e-06 0)
(1.27295e-06 1.05702e-06 4.01516e-21)
(1.27185e-06 7.22122e-07 -2.75268e-21)
(1.2867e-06 7.47592e-07 -2.73703e-21)
(1.30269e-06 7.72678e-07 -2.72154e-21)
(1.31971e-06 7.97502e-07 -2.70621e-21)
(1.33765e-06 8.22167e-07 -2.69102e-21)
(1.35641e-06 8.46753e-07 -2.67598e-21)
(1.3759e-06 8.71333e-07 -2.66106e-21)
(1.39604e-06 8.95964e-07 -2.64627e-21)
(1.41675e-06 9.20697e-07 -2.63159e-21)
(1.43797e-06 9.45573e-07 -2.61702e-21)
(1.45963e-06 9.70628e-07 -2.60256e-21)
(1.48168e-06 9.95891e-07 -2.58819e-21)
(1.50405e-06 1.02139e-06 -2.57392e-21)
(1.52669e-06 1.04714e-06 -2.55975e-21)
(1.54955e-06 1.07315e-06 -2.54567e-21)
(1.57256e-06 1.09942e-06 -2.53168e-21)
(1.59567e-06 1.12594e-06 -2.51779e-21)
(1.6188e-06 1.15269e-06 -2.504e-21)
(1.64189e-06 1.17959e-06 -2.49031e-21)
(1.64962e-06 1.19633e-06 2.51407e-22)
(1.22744e-06 7.10817e-07 0)
(1.24353e-06 7.35746e-07 0)
(1.26055e-06 7.60344e-07 0)
(1.2784e-06 7.84741e-07 0)
(1.29701e-06 8.09035e-07 0)
(1.3163e-06 8.33303e-07 0)
(1.3362e-06 8.57615e-07 0)
(1.35666e-06 8.82023e-07 0)
(1.37761e-06 9.06575e-07 0)
(1.399e-06 9.31311e-07 0)
(1.42078e-06 9.56263e-07 0)
(1.4429e-06 9.81459e-07 0)
(1.46531e-06 1.00692e-06 0)
(1.48797e-06 1.03267e-06 0)
(1.51084e-06 1.05871e-06 0)
(1.53388e-06 1.08505e-06 0)
(1.55704e-06 1.11167e-06 0)
(1.58028e-06 1.13854e-06 0)
(1.60355e-06 1.1656e-06 0)
(1.62674e-06 1.19271e-06 3.00666e-21)
(1.17474e-06 6.95567e-07 0)
(1.19276e-06 7.20316e-07 0)
(1.21145e-06 7.44754e-07 0)
(1.23073e-06 7.69017e-07 0)
(1.25058e-06 7.93208e-07 0)
(1.27093e-06 8.17402e-07 0)
(1.29175e-06 8.4167e-07 0)
(1.313e-06 8.66063e-07 0)
(1.33464e-06 8.90629e-07 0)
(1.35662e-06 9.15406e-07 0)
(1.37892e-06 9.40428e-07 0)
(1.4015e-06 9.65722e-07 0)
(1.42434e-06 9.9131e-07 0)
(1.44739e-06 1.01721e-06 0)
(1.47064e-06 1.04343e-06 0)
(1.49405e-06 1.06999e-06 0)
(1.51759e-06 1.09686e-06 0)
(1.54122e-06 1.12402e-06 0)
(1.56491e-06 1.15144e-06 0)
(1.58841e-06 1.17897e-06 3.03322e-21)
(1.11557e-06 6.75812e-07 0)
(1.13599e-06 7.00793e-07 0)
(1.15681e-06 7.25456e-07 0)
(1.17798e-06 7.49935e-07 0)
(1.19949e-06 7.74341e-07 0)
(1.22131e-06 7.9875e-07 0)
(1.24344e-06 8.23238e-07 0)
(1.26584e-06 8.47859e-07 0)
(1.28851e-06 8.72662e-07 0)
(1.31142e-06 8.97688e-07 0)
(1.33456e-06 9.22971e-07 0)
(1.3579e-06 9.48541e-07 0)
(1.38145e-06 9.74422e-07 0)
(1.40516e-06 1.00063e-06 0)
(1.42904e-06 1.0272e-06 0)
(1.45306e-06 1.05411e-06 0)
(1.47719e-06 1.08139e-06 0)
(1.50142e-06 1.10902e-06 0)
(1.5257e-06 1.13699e-06 0)
(1.5497e-06 1.16519e-06 3.08545e-21)
(1.05098e-06 6.51518e-07 0)
(1.07419e-06 6.7712e-07 0)
(1.09752e-06 7.02376e-07 0)
(1.12093e-06 7.27406e-07 0)
(1.14446e-06 7.52339e-07 0)
(1.16808e-06 7.77248e-07 0)
(1.19183e-06 8.02219e-07 0)
(1.2157e-06 8.27308e-07 0)
(1.23968e-06 8.52573e-07 0)
(1.2638e-06 8.78054e-07 0)
(1.28803e-06 9.03793e-07 0)
(1.31239e-06 9.29821e-07 0)
(1.33687e-06 9.56167e-07 0)
(1.36146e-06 9.82857e-07 0)
(1.38617e-06 1.00991e-06 0)
(1.41098e-06 1.03735e-06 0)
(1.43589e-06 1.06519e-06 0)
(1.46087e-06 1.09345e-06 0)
(1.48588e-06 1.12214e-06 0)
(1.51054e-06 1.15119e-06 3.16267e-21)
(9.82175e-07 6.2256e-07 0)
(1.00846e-06 6.4918e-07 0)
(1.03459e-06 6.75409e-07 0)
(1.06051e-06 7.01336e-07 0)
(1.08632e-06 7.27117e-07 0)
(1.112e-06 7.52821e-07 0)
(1.13762e-06 7.78548e-07 0)
(1.16318e-06 8.04358e-07 0)
(1.18871e-06 8.30316e-07 0)
(1.21424e-06 8.5647e-07 0)
(1.23977e-06 8.82864e-07 0)
(1.26532e-06 9.09537e-07 0)
(1.29091e-06 9.36523e-07 0)
(1.31655e-06 9.63854e-07 0)
(1.34224e-06 9.9156e-07 0)
(1.36799e-06 1.01967e-06 0)
(1.3938e-06 1.04822e-06 0)
(1.41965e-06 1.07724e-06 0)
(1.44552e-06 1.10678e-06 0)
(1.47097e-06 1.1368e-06 3.26355e-21)
(9.1026e-07 5.8904e-07 0)
(9.39804e-07 6.17061e-07 0)
(9.68926e-07 6.44629e-07 0)
(9.97557e-07 6.71788e-07 0)
(1.02584e-06 6.98726e-07 0)
(1.05377e-06 7.25513e-07 0)
(1.08144e-06 7.5226e-07 0)
(1.10887e-06 7.79038e-07 0)
(1.13612e-06 8.05918e-07 0)
(1.16322e-06 8.32956e-07 0)
(1.1902e-06 8.60205e-07 0)
(1.21709e-06 8.87709e-07 0)
(1.24393e-06 9.15509e-07 0)
(1.27073e-06 9.43643e-07 0)
(1.29751e-06 9.7215e-07 0)
(1.3243e-06 1.00107e-06 0)
(1.3511e-06 1.03045e-06 0)
(1.37792e-06 1.06036e-06 0)
(1.40473e-06 1.09084e-06 0)
(1.43113e-06 1.12191e-06 3.38653e-21)
(8.3634e-07 5.51148e-07 0)
(8.69226e-07 5.80925e-07 0)
(9.01444e-07 6.10172e-07 0)
(9.32894e-07 6.38883e-07 0)
(9.63766e-07 6.67273e-07 0)
(9.94075e-07 6.95423e-07 0)
(1.02392e-06 7.23449e-07 0)
(1.05335e-06 7.51435e-07 0)
(1.08244e-06 7.79461e-07 0)
(1.11122e-06 8.07593e-07 0)
(1.13976e-06 8.35891e-07 0)
(1.1681e-06 8.64407e-07 0)
(1.19627e-06 8.93187e-07 0)
(1.22432e-06 9.2228e-07 0)
(1.25228e-06 9.51731e-07 0)
(1.28018e-06 9.81591e-07 0)
(1.30804e-06 1.01192e-06 0)
(1.33588e-06 1.04279e-06 0)
(1.36371e-06 1.07429e-06 0)
(1.39115e-06 1.10645e-06 3.52962e-21)
(7.615e-07 5.09239e-07 0)
(7.97698e-07 5.41091e-07 0)
(8.33022e-07 5.72307e-07 0)
(8.67328e-07 6.02857e-07 0)
(9.00839e-07 6.32959e-07 0)
(9.33584e-07 6.62717e-07 0)
(9.65675e-07 6.92255e-07 0)
(9.97178e-07 7.21671e-07 0)
(1.02817e-06 7.51053e-07 0)
(1.05872e-06 7.80478e-07 0)
(1.08888e-06 8.10012e-07 0)
(1.11873e-06 8.39715e-07 0)
(1.1483e-06 8.69641e-07 0)
(1.17765e-06 8.99842e-07 0)
(1.20684e-06 9.30372e-07 0)
(1.23589e-06 9.6129e-07 0)
(1.26485e-06 9.92662e-07 0)
(1.29375e-06 1.02458e-06 0)
(1.32264e-06 1.05714e-06 0)
(1.35121e-06 1.0904e-06 3.69067e-21)
(6.8672e-07 4.63821e-07 0)
(7.26057e-07 4.97976e-07 0)
(7.64369e-07 5.31367e-07 0)
(8.01503e-07 5.64008e-07 0)
(8.3765e-07 5.9606e-07 0)
(8.72857e-07 6.27656e-07 0)
(9.07229e-07 6.5892e-07 0)
(9.40844e-07 6.89967e-07 0)
(9.73789e-07 7.20895e-07 0)
(1.00614e-06 7.5179e-07 0)
(1.03798e-06 7.82729e-07 0)
(1.06936e-06 8.13777e-07 0)
(1.10037e-06 8.44996e-07 0)
(1.13105e-06 8.76443e-07 0)
(1.16148e-06 9.08175e-07 0)
(1.1917e-06 9.40257e-07 0)
(1.22178e-06 9.72759e-07 0)
(1.25176e-06 1.00578e-06 0)
(1.28171e-06 1.03941e-06 0)
(1.31148e-06 1.07379e-06 3.86723e-21)
(6.20349e-07 4.22494e-07 0)
(6.62026e-07 4.58631e-07 0)
(7.02568e-07 4.93796e-07 0)
(7.41894e-07 5.28205e-07 0)
(7.80119e-07 5.61952e-07 0)
(8.173e-07 5.95174e-07 0)
(8.53522e-07 6.2799e-07 0)
(8.88865e-07 6.60512e-07 0)
(9.23415e-07 6.92842e-07 0)
(9.57253e-07 7.25071e-07 0)
(9.9046e-07 7.57277e-07 0)
(1.02311e-06 7.8953e-07 0)
(1.05529e-06 8.21893e-07 0)
(1.08705e-06 8.54425e-07 0)
(1.11848e-06 8.87184e-07 0)
(1.14964e-06 9.20233e-07 0)
(1.18059e-06 9.5364e-07 0)
(1.21142e-06 9.87499e-07 0)
(1.2422e-06 1.0219e-06 0)
(1.27295e-06 1.05702e-06 4.01516e-21)
(5.21959e-07 3.53517e-07 0)
(5.72082e-07 3.94128e-07 0)
(6.14562e-07 4.311e-07 0)
(6.55895e-07 4.67063e-07 0)
(6.96064e-07 5.02336e-07 0)
(7.35139e-07 5.36979e-07 0)
(7.73164e-07 5.71108e-07 0)
(8.10209e-07 6.04822e-07 0)
(8.46343e-07 6.3822e-07 0)
(8.81642e-07 6.7139e-07 0)
(9.16181e-07 7.04414e-07 0)
(9.50038e-07 7.37365e-07 0)
(9.83287e-07 7.70306e-07 0)
(1.016e-06 8.03297e-07 0)
(1.04826e-06 8.3639e-07 0)
(1.08014e-06 8.6964e-07 0)
(1.1117e-06 9.03102e-07 0)
(1.14303e-06 9.36838e-07 0)
(1.1742e-06 9.70924e-07 0)
(1.20533e-06 1.00544e-06 0)
(1.23649e-06 1.04055e-06 4.08004e-21)
(4.86632e-07 3.3275e-07 0)
(5.35108e-07 3.72835e-07 0)
(5.7729e-07 4.09874e-07 0)
(6.18472e-07 4.46095e-07 0)
(6.58605e-07 4.81739e-07 0)
(6.97733e-07 5.16836e-07 0)
(7.35873e-07 5.51467e-07 0)
(7.73079e-07 5.85709e-07 0)
(8.09399e-07 6.19639e-07 0)
(8.44899e-07 6.53327e-07 0)
(8.7964e-07 6.86842e-07 0)
(9.13693e-07 7.20244e-07 0)
(9.47125e-07 7.53588e-07 0)
(9.80009e-07 7.86924e-07 0)
(1.01241e-06 8.20299e-07 0)
(1.04442e-06 8.53756e-07 0)
(1.07609e-06 8.87342e-07 0)
(1.10751e-06 9.21105e-07 0)
(1.13877e-06 9.55104e-07 0)
(1.16999e-06 9.89392e-07 0)
(1.20124e-06 1.02409e-06 4.0952e-21)
(4.55282e-07 3.12754e-07 0)
(5.01967e-07 3.52287e-07 0)
(5.4341e-07 3.89236e-07 0)
(5.8407e-07 4.25568e-07 0)
(6.23821e-07 4.61462e-07 0)
(6.62694e-07 4.9691e-07 0)
(7.00672e-07 5.31962e-07 0)
(7.3779e-07 5.66666e-07 0)
(7.74078e-07 6.01076e-07 0)
(8.09585e-07 6.35245e-07 0)
(8.44361e-07 6.69223e-07 0)
(8.78465e-07 7.03057e-07 0)
(9.11958e-07 7.36792e-07 0)
(9.44906e-07 7.70466e-07 0)
(9.77375e-07 8.04116e-07 0)
(1.00944e-06 8.37775e-07 0)
(1.04116e-06 8.71478e-07 0)
(1.07264e-06 9.05257e-07 0)
(1.10394e-06 9.3915e-07 0)
(1.13521e-06 9.73184e-07 0)
(1.16652e-06 1.00742e-06 4.10535e-21)
(4.2733e-07 2.93691e-07 0)
(4.72117e-07 3.3254e-07 0)
(5.12563e-07 3.69257e-07 0)
(5.52424e-07 4.05579e-07 0)
(5.91532e-07 4.41618e-07 0)
(6.29899e-07 4.77327e-07 0)
(6.67483e-07 5.12722e-07 0)
(7.04299e-07 5.47823e-07 0)
(7.40361e-07 5.82659e-07 0)
(7.75702e-07 6.17262e-07 0)
(8.10359e-07 6.51667e-07 0)
(8.44382e-07 6.85905e-07 0)
(8.77822e-07 7.20007e-07 0)
(9.10736e-07 7.54002e-07 0)
(9.43186e-07 7.87913e-07 0)
(9.75238e-07 8.21763e-07 0)
(1.00696e-06 8.55571e-07 0)
(1.03844e-06 8.89356e-07 0)
(1.06976e-06 9.23128e-07 0)
(1.10106e-06 9.56889e-07 0)
(1.1324e-06 9.90654e-07 4.11013e-21)
(4.02294e-07 2.75617e-07 0)
(4.45141e-07 3.13714e-07 0)
(4.84397e-07 3.5009e-07 0)
(5.23253e-07 3.86292e-07 0)
(5.6151e-07 4.22369e-07 0)
(5.9917e-07 4.58241e-07 0)
(6.36166e-07 4.93893e-07 0)
(6.72501e-07 5.29315e-07 0)
(7.0817e-07 5.64512e-07 0)
(7.43194e-07 5.99495e-07 0)
(7.77597e-07 6.3428e-07 0)
(8.11419e-07 6.68884e-07 0)
(8.44701e-07 7.03323e-07 0)
(8.77493e-07 7.37612e-07 0)
(9.0985e-07 7.71764e-07 0)
(9.41833e-07 8.05788e-07 0)
(9.73506e-07 8.3969e-07 0)
(1.00495e-06 8.73467e-07 0)
(1.03624e-06 9.07104e-07 0)
(1.06752e-06 9.40591e-07 0)
(1.09884e-06 9.73891e-07 4.10917e-21)
(3.79672e-07 2.58535e-07 0)
(4.20592e-07 2.95823e-07 0)
(4.58538e-07 3.31772e-07 0)
(4.96245e-07 3.67763e-07 0)
(5.33501e-07 4.03789e-07 0)
(5.70297e-07 4.3974e-07 0)
(6.06552e-07 4.75568e-07 0)
(6.42257e-07 5.11239e-07 0)
(6.77393e-07 5.46731e-07 0)
(7.1197e-07 5.82037e-07 0)
(7.46003e-07 6.17151e-07 0)
(7.79518e-07 6.52076e-07 0)
(8.1255e-07 6.86814e-07 0)
(8.45141e-07 7.21366e-07 0)
(8.77337e-07 7.55734e-07 0)
(9.09195e-07 7.89911e-07 0)