/*--------------------------------*- C++ -*----------------------------------*\
  =========                 |
  \\      /  F ield         | OpenFOAM: The Open Source CFD Toolbox
   \\    /   O peration     | Website:  https://openfoam.org
    \\  /    A nd           | Version:  9
     \\/     M anipulation  |
\*---------------------------------------------------------------------------*/
FoamFile
{
    format      ascii;
    class       volScalarField;
    location    "1";
    object      sigmaEq;
}
// * * * * * * * * * * * * * * * * * * * * * * * * * * * * * * * * * * * * * //

dimensions      [1 -1 -2 0 0 0 0];

internalField   nonuniform List<scalar> 
1000
(
171259
161882
158946
158871
158275
157222
155641
153577
151441
148813
199838
181488
172657
168705
165498
162596
159610
156537
153313
150274
227722
200472
185425
177165
170998
165962
161375
157084
152836
149106
254380
218577
197223
184353
174941
167553
161224
155649
150385
145966
278982
235368
207815
190188
177339
167441
159285
152373
146137
141001
301698
250779
217142
194690
178294
165817
155815
147573
140416
134561
321284
263947
224287
197161
177412
162555
150907
141496
133572
127066
340128
274896
228908
197522
174876
158108
145224
134980
126558
119579
354396
279418
227072
192868
169189
151873
138766
128356
119881
112715
372467
274075
219631
186073
163854
147337
134799
124660
116351
109137
3009.35
2715.66
5691.15
11724.8
18746.9
26121.8
33337.7
40239.3
46584
52483.3
2760.38
7767.89
17022.3
26171.8
34368.2
41702.6
48155.6
53966.4
58974.5
63721.1
6481.13
19023.5
30802.9
41362.3
50219
57612
63674.2
68809
72865.6
76762.1
15094.8
32916.6
46209.8
57309.3
66186.1
73314.2
78895
83409.4
86673.2
89887.1
28006.4
48723.5
62799.7
73905
82316.5
88824.3
93701.8
97474.3
99935.5
102465
44972.4
65807.2
79754.1
90414.4
98044.7
103701
107720
110650
112290
114100
65545.8
83903.5
96659.6
106383
112967
117601
120651
122662
123473
124516
89180.8
102785
113183
121393
126660
130123
132139
133192
133223
133448
115174
122244
129149
135225
138873
141013
141918
141983
141263
140723
142798
142038
144426
147717
149400
150014
149710
148697
147411
145764
57783.7
62369
66613.3
70447.5
73914.3
77030.4
79828
82326
84551.7
86520.8
88252
89756.8
91045.7
92125.1
92998
93668.3
94134.4
94412.9
94500.9
94457.7
67387.7
70132.6
72896.3
75447.9
77844.6
80060.5
82107.8
83980.3
85688.7
87233
88622.3
89858.4
90948
91893.9
92697.5
93361.3
93878
94247.9
94431.4
94418.5
78975.5
79973.3
81231.6
82412.7
83618.4
84792.4
85948.1
87055.6
88118.7
89120.8
90063
90938.1
91744
92478.7
93137
93713.2
94188.2
94542.8
94694.8
94613.8
90878.4
90384.2
90323.4
90265
90352.6
90512.7
90774.8
91091.7
91471.5
91883.2
92325.3
92780.2
93242
93699.4
94140.6
94552.2
94902
95165
95238.4
95099.8
102377
100627
99429.5
98292.9
97390.6
96623.9
96052
95609.9
95316.6
95132.7
95056.8
95065.4
95148.6
95289.4
95470.6
95673
95858.9
95999.8
95994.6
95827.6
113051
110260
108109
106048
104303
102721
101409
100275
99356.5
98605.5
98023.7
97584.8
97277.4
97082.3
96980.4
96949.8
96954.8
96966.8
96905.6
96753.6
122628
119002
116112
113272
110841
108554
106594
104840
103348
102070
101010
100141
99452.3
98924.3
98538
98272.2
98098.7
97990.6
97900
97802
130866
126598
123221
119728
116768
113919
111429
109157
107168
105419
103916
102642
101585
100730
100062
99563.9
99218.5
99002.6
98908.2
98898.6
137746
132883
129390
125425
122037
118727
115765
113046
110620
108461
106571
104936
103548
102396
101471
100758
100257
99949.9
99871.6
99970.3
143030
137884
134421
130409
126768
123206
119880
116785
113959
111406
109133
107138
105417
103963
102774
101842
101181
100780
100721
100941
145371
140539
136978
133121
129424
125810
122377
119139
116139
113392
110913
108708
106781
105132
103768
102687
101921
101461
101429
101752
141930
139083
135803
132411
129052
125721
122512
119439
116557
113881
111439
109241
107301
105626
104231
103123
102345
101897
101925
102349
139255
136898
134289
131312
128341
125294
122318
119420
116667
114081
111696
109529
107600
105923
104520
103405
102630
102197
102271
102762
135887
134183
132136
129586
127001
124261
121547
118861
116281
113830
111551
109462
107591
105956
104582
103493
102738
102335
102458
102987
131984
130822
129313
127216
125046
122653
120242
117810
115445
113173
111041
109073
107298
105741
104426
103389
102652
102324
102306
103019
127759
127093
126075
124413
122643
120602
118504
116347
114223
112160
110208
108395
106752
105305
104085
103116
102458
102127
102270
102784
123305
123068
122485
121238
119853
118164
116389
114522
112659
110830
109086
107455
105973
104663
103559
102681
102088
101780
101911
102394
118714
118846
118649
117786
116760
115416
113960
112391
110802
109223
107707
106282
104983
103834
102865
102095
101576
101308
101421
101836
114033
114475
114615
114101
113412
112399
111260
109991
108685
107371
106100
104900
103805
102835
102021
101376
100941
100714
100804
101138
109287
109990
110422
110227
109850
109156
108327
107361
106344
105305
104293
103333
102458
101687
101043
100537
100200
100026
100090
100331
104476
105397
106084
106180
106099
105713
105190
104529
103808
103054
102313
101607
100967
100408
99950.4
99599.3
99372.9
99259.5
99303.6
99451.9
99583.4
100690
101605
101973
102175
102093
101876
101525
101108
100650
100190
99752.1
99359.3
99026.3
98767
98583.4
98481.5
98443.1
98477.4
98540.4
94571
95845.4
96972.8
97606.1
98088.9
98313.7
98411.4
98379.1
98278.1
98128.2
97963.7
97803.8
97669.5
97572.5
97522.1
97517
97551.6
97602.5
97644.2
97637.2
89395.3
90836.4
92175.1
93079.9
93854.4
94399.3
94826.2
95130.1
95360.7
95534.3
95678.2
95808.5
95942.1
96088.3
96253.4
96433.6
96614.4
96768.4
96837.2
96782.8
83995.7
85621.8
87191.4
88392.2
89484.4
90376.6
91159.7
91824.2
92409.7
92925.6
93393.9
93825.8
94235.2
94628.8
95010.8
95376.9
95707.6
95973.2
96090.8
96016.9
78328.3
80185.4
82026
83567.4
85019.5
86299.5
87474.8
88531.9
89498.9
90379.2
91187.7
91931.8
92621.4
93262
93856
94400.8
94876.6
95253.6
95437.1
95373.4
72328.8
74496.6
76681.1
78634.2
80510.2
82234.8
83851.1
85342.1
86722.9
87992.4
89158.6
90224.9
91197
92079.7
92874.4
93580.2
94181.9
94655.2
94911.7
94885.7
66043
68637.3
71263
73716.4
76092
78322.4
80429.4
82391.7
84214.5
85892
87425.9
88817.4
90069.1
91182.5
92159.2
92999.9
93695.9
94232.3
94545
94568.1
59479.7
62673.2
65883.1
68954.2
71922.4
74730.5
77381.1
79851.7
82140.9
84241.1
86151
87869.1
89394.7
90727.6
91865.8
92807.7
93547.3
94083.3
94386.7
94439.3
53115.5
57073.3
60987.4
64751.5
68365
71775.7
74979.8
77954.3
80697.7
83202.2
85467.4
87491.1
89271.4
90804.3
92082
93098.1
93837.9
94307.2
94493.3
94473.8
103042
106522
113145
120569
128207
134951
140336
143979
145911
145658
97433.5
100716
106947
114136
121841
129016
135186
139813
142787
143398
92378.2
95500.7
101331
108111
115520
122594
128940
134125
138084
140354
87743.7
90768.7
96299.8
102757
109934
116929
123350
128785
133045
136256
83394.2
86337.8
91587.4
97697.1
104565
111375
117770
123436
127964
131817
79305.1
82198.2
87227.9
93042
99615.8
106204
112452
118160
122759
127034
75396.3
78247.7
83083.8
88622.6
94907.1
101261
107341
113038
117642
122120
71648.7
74467.1
79139.6
84433.8
90442.3
96548.5
102416
108022
112583
117145
68025.3
70808.9
75333.2
80401.3
86149
92008.5
97657.6
103131
107614
112162
64515.5
67256.5
71639.6
76493.4
81987.7
87594.3
93014.9
98318.2
102706
107185
61111.1
63793
68028.1
72666.7
77909.1
83258.4
88445.4
93554
97830.8
102204
57820.9
60416.4
64481.2
68888.3
73866.1
78944.4
83888.7
88783.5
92938.5
97185.1
54670.1
57135.2
60982.4
65118.8
69803
74588.6
79277.4
83943.8
87968.1
92079.8
51706.9
53969.4
57518.2
61320.3
65661.4
70121.7
74535.8
78961.2
82849.9
86826.8
49029.5
50960.8
54062.2
57418.4
61341
65432.8
69552.9
73732.3
77490.9
81345.5
46775.1
48130.9
50567
53338.5
56749.1
60424.5
64232.4
68167.1
71811.9
75570.1
45217.2
45532.4
46883.6
48845.3
51634.9
54862.3
58369.3
62095.5
65676.5
69397.9
44525.9
42923.4
42770
43763.7
45869.1
48646.8
51894.5
55476.8
59074.7
62843
45409.1
39946.6
37418
37243.7
38759
41253
44429
48056.9
51853.2
55837.9
45772.2
34287.8
30355.3
29210.1
30462.7
32923.3
36286.2
40211.8
44439
48849.9
)
;

boundaryField
{
    left
    {
        type            calculated;
        value           nonuniform List<scalar> 
30
(
102135
96547.1
91508.4
86882
82543.8
78468.9
74582.1
70867.1
67289.5
63842.8
60522.7
57341.5
54329.3
51541
49081.6
47132.4
46043.8
46399
49928.1
57625
396121
266861
212453
181578
161310
145725
133682
123737
115515
108263
)
;
    }
    right
    {
        type            calculated;
        value           nonuniform List<scalar> 
30
(
94438.5
94418.4
94603.2
95083.5
95808.3
96736
97789
98893.6
99974.5
100958
101773
102385
102802
103029
103030
102820
102432
101869
101164
100349
99461.8
98542.8
97633.6
96774.6
96006.8
95363.9
94880.2
94567.4
94444
94452.3
)
;
    }
    down
    {
        type            calculated;
        value           nonuniform List<scalar> 
30
(
2813.84
2472.79
4078.03
9946.07
17127.1
24709.9
32140.1
39232.8
45743.2
51776
57208.2
61942.5
66291.2
70201.5
73728.7
76889.8
79722.8
82248.3
84495.2
86480.9
88224.7
89739.8
91036.1
92120.9
92996.4
93668.4
94134.6
94412.3
94500.7
94468.6
)
;
    }
    up
    {
        type            calculated;
        value           nonuniform List<scalar> 
30
(
44421.4
33877.9
30214.5
29075.1
30300.4
32729
36070.5
39986.6
44210.1
48628.3
52903
56882.8
60822.8
64608.7
68244.5
71674.3
74896.9
77886.9
80644.6
83161.1
85436.8
87469.4
89257.2
90796.1
92078.5
93097.5
93838.2
94307.6
94492.6
94480.4
)
;
    }
    hole
    {
        type            calculated;
        value           nonuniform List<scalar> 
20
(
170339
199767
228457
255860
281124
304427
324505
343902
358787
376172
2659.33
2660.79
3273.74
10710.7
23309.1
40448.9
61482.4
85777.5
112549
141016
)
;
    }
    frontAndBack
    {
        type            empty;
    }
}


// ************************************************************************* //
