/*--------------------------------*- C++ -*----------------------------------*\
  =========                 |
  \\      /  F ield         | OpenFOAM: The Open Source CFD Toolbox
   \\    /   O peration     | Website:  https://openfoam.org
    \\  /    A nd           | Version:  9
     \\/     M anipulation  |
\*---------------------------------------------------------------------------*/
FoamFile
{
    format      ascii;
    class       volSymmTensorField;
    location    "1";
    object      sigma;
}
// * * * * * * * * * * * * * * * * * * * * * * * * * * * * * * * * * * * * * //

dimensions      [1 -1 -2 0 0 0 0];

internalField   nonuniform List<symmTensor> 
1000
(
(122961 -84170.5 -7.40005e-11 71452.6 -7.70377e-11 19194.9)
(144189 -64889.7 -6.62874e-11 39023.6 -6.33801e-11 18948.7)
(154888 -49705 -5.87591e-11 23731.6 -5.28541e-11 18950.8)
(159433 -38250.3 -5.32636e-11 11735.8 -4.49162e-11 18577)
(161112 -29039.8 -4.84861e-11 4719.83 -3.85937e-11 18285.1)
(160459 -21837.4 -4.47697e-11 -509.019 -3.36616e-11 17886.6)
(158858 -15984.2 -4.16422e-11 -3876.59 -2.96751e-11 17526.2)
(156374 -11329.8 -3.91539e-11 -6309.91 -2.65141e-11 17141.3)
(153811 -7461.56 -3.70338e-11 -7908.9 -2.38973e-11 16805.3)
(150411 -4242.23 -3.53415e-11 -9442.16 -2.17197e-11 16388)
(155894 -93573.1 -7.88395e-11 72079 -8.32427e-11 22342.9)
(169894 -66979.1 -6.64684e-11 41144.4 -6.47384e-11 21574.1)
(175652 -47798.1 -5.6338e-11 27216.8 -5.15786e-11 21236.5)
(176225 -34009.8 -4.93858e-11 15836.9 -4.21023e-11 20545.6)
(174836 -23499 -4.37919e-11 9361.98 -3.49299e-11 20009.5)
(171665 -15635.2 -3.96998e-11 4351.14 -2.95672e-11 19390)
(168008 -9495.93 -3.64304e-11 1135.32 -2.53988e-11 18845)
(163823 -4828.23 -3.40037e-11 -1402.71 -2.22323e-11 18288)
(159674 -1046.82 -3.19796e-11 -2946.48 -1.96801e-11 17802.4)
(155086 1981.54 -3.05355e-11 -5038.4 -1.7623e-11 17226.3)
(191362 -99508 -8.19246e-11 69410.9 -8.70474e-11 25515.1)
(196091 -66898 -6.54079e-11 42310.8 -6.46206e-11 24193.1)
(195787 -44490.6 -5.29949e-11 31019.8 -4.93723e-11 23497.3)
(191698 -28871.8 -4.48081e-11 21008 -3.87131e-11 22475.7)
(186830 -17440.7 -3.85796e-11 15523.7 -3.09557e-11 21686.5)
(180895 -9201.66 -3.42584e-11 10998.9 -2.53608e-11 20840.2)
(175065 -3014.24 -3.0974e-11 8108.64 -2.11741e-11 20110.5)
(169098 1504.99 -2.86935e-11 5597.27 -1.81138e-11 19382.1)
(163499 5015.78 -2.68761e-11 4116.99 -1.5749e-11 18758.9)
(157668 7872.42 -2.56341e-11 1690.15 -1.38043e-11 18036)
(228223 -101128 -8.26695e-11 63967.5 -8.78983e-11 28648.1)
(222194 -64380.4 -6.29359e-11 42649.4 -6.28534e-11 26760.8)
(214980 -39833.7 -4.87815e-11 35097.6 -4.6271e-11 25699.6)
(205667 -23087.4 -3.97194e-11 27102.5 -3.49149e-11 24335.9)
(196981 -11238.2 -3.31275e-11 22969.2 -2.69174e-11 23284.2)
(188109 -2976.15 -2.87766e-11 19109.9 -2.13306e-11 22204.9)
(180028 2995.05 -2.56415e-11 16592.3 -1.7304e-11 21284.2)
(172317 7198.76 -2.3607e-11 14136 -1.44619e-11 20388.9)
(165320 10295.7 -2.21036e-11 12614.4 -1.23785e-11 19624.1)
(158463 12819.7 -2.11332e-11 10007.2 -1.06563e-11 18785.6)
(264823 -97672.2 -8.05379e-11 56415.8 -8.53061e-11 31639)
(247431 -59077.8 -5.88278e-11 42328.9 -5.92088e-11 29218.5)
(232782 -33754.8 -4.36671e-11 39430.9 -4.22264e-11 27799)
(217874 -16783.2 -3.42264e-11 33998.9 -3.07904e-11 26091.3)
(205160 -5169.81 -2.7647e-11 31514.1 -2.29983e-11 24773.7)
(193280 2653.47 -2.35406e-11 28455.1 -1.77318e-11 23460.8)
(182975 8074.88 -2.07604e-11 26333.8 -1.40893e-11 22350.8)
(173602 11734.6 -1.91167e-11 23922.4 -1.16184e-11 21293.8)
(165354 14252.6 -1.80425e-11 22258.3 -9.92397e-12 20392.5)
(157604 16307.2 -1.74278e-11 19471 -8.51581e-12 19450.1)
(300350 -88953.8 -7.52445e-11 47940.9 -7.91708e-11 34500.9)
(271444 -50765.6 -5.28581e-11 41934.7 -5.35498e-11 31578)
(249074 -26169.5 -3.75466e-11 44368.8 -3.71895e-11 29811.2)
(228293 -10083.7 -2.83939e-11 41793.8 -2.64251e-11 27745.6)
(211430 496.159 -2.23205e-11 41060.2 -1.93755e-11 26151.3)
(196559 7331.99 -1.88127e-11 38770.6 -1.47969e-11 24599.6)
(184131 11840.7 -1.66302e-11 36949 -1.1779e-11 23299.5)
(173246 14725.5 -1.55326e-11 34495.7 -9.83165e-12 22086.8)
(163912 16531.1 -1.49883e-11 32563.2 -8.61289e-12 21054.2)
(155431 18007.2 -1.47963e-11 29572.8 -7.5906e-12 20021)
(332574 -74415.5 -6.63565e-11 39475.7 -6.9146e-11 37094)
(293078 -38826.6 -4.45686e-11 42105.7 -4.54794e-11 33781.5)
(262808 -16855.9 -3.02385e-11 50368.2 -3.10248e-11 31671.5)
(236148 -3065.28 -2.22732e-11 50629 -2.18763e-11 29233.8)
(215319 5493.81 -1.73614e-11 51430.9 -1.62257e-11 27355.9)
(197750 10701.9 -1.48904e-11 49647.7 -1.27571e-11 25568.3)
(183516 13920.5 -1.35775e-11 47872.7 -1.06111e-11 24086.4)
(171411 15820.1 -1.31793e-11 45196.5 -9.32348e-12 22730.6)
(161254 16831.8 -1.32335e-11 42839.3 -8.63103e-12 21579.6)
(152236 17675 -1.35017e-11 39588.7 -8.02914e-12 20469.3)
(363665 -54012.4 -5.33676e-11 33578.2 -5.52472e-11 39822.1)
(312570 -22661.1 -3.31967e-11 45178 -3.46432e-11 36034)
(273981 -5687.66 -2.13737e-11 59226.6 -2.36841e-11 33517.2)
(241630 3866.63 -1.59689e-11 61416.9 -1.74334e-11 30640.3)
(217207 9285.11 -1.30639e-11 62845.6 -1.39124e-11 28436.3)
(197435 12271.9 -1.21056e-11 60857.6 -1.19357e-11 26401.4)
(181830 13957.7 -1.1887e-11 58595.9 -1.08115e-11 24737.3)
(168881 14809.7 -1.22676e-11 55378.6 -1.02176e-11 23250)
(158196 15088.2 -1.2904e-11 52401.3 -1.00057e-11 21994.7)
(148856 15358.5 -1.35991e-11 48821.5 -9.78213e-12 20823.5)
(389576 -25220.7 -3.42973e-11 33388.9 -3.58605e-11 42554.3)
(325732 -2233.92 -1.81999e-11 55216.6 -2.11147e-11 38239.8)
(278521 5829.37 -1.17032e-11 73028.6 -1.6233e-11 35100.2)
(241788 8848.65 -1.06836e-11 74615.3 -1.43643e-11 31699)
(215466 10363.7 -1.0543e-11 74637.1 -1.3437e-11 29171.7)
(194810 10888 -1.14026e-11 71239.3 -1.30849e-11 26923.7)
(178803 11149.6 -1.22938e-11 67777.4 -1.28919e-11 25117.6)
(165649 11154.6 -1.33588e-11 63687 -1.28484e-11 23537.1)
(154852 10965.6 -1.44132e-11 59973.3 -1.2935e-11 22211.2)
(145435 10872.3 -1.53953e-11 56057.3 -1.29487e-11 21003.9)
(423411 22635.9 1.12689e-12 58124.9 -4.18101e-12 48104)
(331695 25292.5 4.49261e-12 86533.8 -3.28813e-12 41424.6)
(277996 16676.1 -1.17709e-12 95813 -9.43218e-12 36869.8)
(240158 10809.4 -6.79925e-12 91391.2 -1.33995e-11 32830.7)
(213744 8528.58 -9.91581e-12 86156.2 -1.49088e-11 29863.6)
(193198 7262.77 -1.2383e-11 79800.6 -1.56953e-11 27386.6)
(177302 6814.28 -1.40493e-11 74295.5 -1.59359e-11 25430.3)
(164215 6555.83 -1.5452e-11 69131.5 -1.60471e-11 23772.6)
(153432 6352.56 -1.66279e-11 64711.1 -1.61285e-11 22394.3)
(143978 6215.18 -1.76719e-11 60593.2 -1.61678e-11 21167.8)
(-567.12 199.483 -3.57928e-11 -320.322 -1.94325e-11 2538.08)
(443.511 -703.506 -3.62743e-11 61.8522 -2.00423e-11 2657.01)
(4520.35 -2216.28 -3.71533e-11 -226.344 -2.10367e-11 3015.98)
(11049.4 -3427.18 -3.77556e-11 -464.739 -2.18215e-11 3618.1)
(18635.9 -4173.94 -3.80119e-11 -589.086 -2.22943e-11 4334.98)
(26598.3 -4598.64 -3.80419e-11 -649.401 -2.25512e-11 5095.64)
(34397.8 -4765.02 -3.79043e-11 -660.126 -2.26363e-11 5846.64)
(41850.4 -4777.45 -3.76742e-11 -632.305 -2.26206e-11 6568.32)
(48681.7 -4650.63 -3.73767e-11 -618.712 -2.2513e-11 7230.06)
(55049.9 -4552 -3.70973e-11 -512.736 -2.24277e-11 7853.95)
(740.486 -755.09 -3.63155e-11 -51.4514 -2.00736e-11 2676.65)
(6003.83 -4101.11 -3.78618e-11 2530.96 -2.23515e-11 3352.42)
(13643.1 -7796.99 -3.99515e-11 2641.82 -2.48052e-11 4067.1)
(21748.1 -10620.9 -4.16188e-11 1844.23 -2.66545e-11 4765.37)
(29895.2 -12357.8 -4.25901e-11 1076.38 -2.77759e-11 5479.12)
(37637.5 -13330.9 -4.30764e-11 381.587 -2.8388e-11 6165.8)
(44816.6 -13681.7 -4.31598e-11 -151.906 -2.85883e-11 6815.6)
(51460 -13657.8 -4.29974e-11 -533.868 -2.85423e-11 7428.4)
(57318 -13279.9 -4.26262e-11 -861.354 -2.82628e-11 7972.46)
(62874.4 -12978.7 -4.22654e-11 -891.724 -2.80418e-11 8509.26)
(2296.29 -3724.79 -3.77398e-11 2526.6 -2.21116e-11 2997.19)
(11510.2 -10243.4 -4.11218e-11 5454.76 -2.65097e-11 4053.75)
(22058.6 -14819.4 -4.37614e-11 5056.45 -2.95333e-11 5003.34)
(31746 -17883.6 -4.57176e-11 3099.7 -3.15146e-11 5764.41)
(40656.7 -19572.1 -4.68012e-11 1285.79 -3.25793e-11 6473)
(48503.6 -20366.1 -4.73124e-11 -291.757 -3.30531e-11 7104.35)
(55393.1 -20463.2 -4.73496e-11 -1489.25 -3.30705e-11 7677.98)
(61532.1 -20137.2 -4.70892e-11 -2353.1 -3.2814e-11 8208.04)
(66665.6 -19425.6 -4.65802e-11 -3004.78 -3.23064e-11 8660.41)
(71635 -18827.4 -4.6075e-11 -3193.9 -3.18852e-11 9130.97)
(5515.35 -8380.86 -3.96459e-11 8452.58 -2.53429e-11 3718.07)
(18957.4 -17605.1 -4.49579e-11 9234.77 -3.14962e-11 4997.17)
(31905.2 -22413.5 -4.78573e-11 7667.42 -3.46436e-11 6087.81)
(42957.4 -25107.6 -4.97316e-11 4489.08 -3.63473e-11 6891.11)
(52512.5 -26223.2 -5.05884e-11 1693.02 -3.70058e-11 7592.29)
(60466.6 -26430.5 -5.08589e-11 -728.512 -3.70685e-11 8174.97)
(67107.9 -25981.3 -5.06639e-11 -2589.58 -3.67074e-11 8678.92)
(72803.8 -25149.3 -5.01773e-11 -3966.11 -3.61025e-11 9131.62)
(77261.8 -23992 -4.94695e-11 -5005.91 -3.52907e-11 9493.08)
(81703 -23014 -4.87756e-11 -5422.7 -3.4612e-11 9898.62)
(11009 -14958.8 -4.22608e-11 17129.1 -2.99109e-11 4850.83)
(28947.5 -25616.9 -4.90665e-11 13391.6 -3.69177e-11 6209.2)
(43893.1 -29934.7 -5.19321e-11 9701.68 -3.96861e-11 7335.89)
(55884.5 -31727.6 -5.34543e-11 4966.93 -4.07511e-11 8119.53)
(65705.7 -31845 -5.38339e-11 1143.6 -4.07185e-11 8776.94)
(73498.5 -31141.9 -5.36564e-11 -2061.29 -4.01555e-11 9292.34)
(79713.2 -29913 -5.30704e-11 -4490.15 -3.92614e-11 9718.71)
(84846.2 -28407.4 -5.22403e-11 -6281.34 -3.81986e-11 10091.3)
(88570.7 -26715.9 -5.12629e-11 -7617.3 -3.70251e-11 10363.9)
(92439.3 -25278 -5.03204e-11 -8191.89 -3.60366e-11 10706.1)
(19500.1 -23602.9 -4.57603e-11 27882.3 -3.58962e-11 6413.1)
(41807.5 -33736.9 -5.30762e-11 18038.4 -4.24122e-11 7734.58)
(58337.2 -36698 -5.54651e-11 11635.2 -4.42105e-11 8820.03)
(70797.7 -37130.7 -5.63832e-11 5186.53 -4.43269e-11 9530.45)
(80464.8 -35983.2 -5.61201e-11 387.215 -4.34272e-11 10109.7)
(87756.9 -34208.3 -5.53863e-11 -3492.93 -4.21339e-11 10534.6)
(93290.8 -32101.7 -5.43368e-11 -6375.21 -4.06445e-11 10868.3)
(97660.6 -29864.4 -5.31164e-11 -8480.62 -3.90874e-11 11149.5)
(100526 -27623.2 -5.18543e-11 -10047.8 -3.75435e-11 11326.4)
(103699 -25701.5 -5.06426e-11 -10725.9 -3.62311e-11 11597.7)
(31582.3 -34217.8 -5.02683e-11 39455.3 -4.32076e-11 8367.58)
(57490.1 -41641.8 -5.68335e-11 22851.7 -4.77566e-11 9547.05)
(74991.9 -42302 -5.82072e-11 13476.9 -4.79488e-11 10520.4)
(87350.1 -40916.5 -5.82593e-11 5244.3 -4.68103e-11 11101.2)
(96402 -38293.2 -5.72245e-11 -463.677 -4.49051e-11 11564.5)
(102813 -35360.3 -5.5874e-11 -4915.65 -4.28266e-11 11870.9)
(107385 -32352 -5.43355e-11 -8130.94 -4.07292e-11 12094)
(110756 -29394.8 -5.27238e-11 -10452.7 -3.86886e-11 12268.6)
(112634 -26641.1 -5.11897e-11 -12162.4 -3.68017e-11 12343.6)
(114944 -24251.5 -4.97179e-11 -12901.2 -3.51773e-11 12530.9)
(47793.2 -46408.3 -5.57067e-11 50659.6 -5.15534e-11 10679.4)
(75870.2 -49023.1 -6.01758e-11 27649.9 -5.27406e-11 11623.3)
(93483.4 -46481 -5.99533e-11 15523.1 -5.07298e-11 12425.8)
(105074 -42871.1 -5.88789e-11 5655.88 -4.80695e-11 12827.4)
(113031 -38628.3 -5.69715e-11 -811.127 -4.5067e-11 13141.1)
(118189 -34522.8 -5.49866e-11 -5708.13 -4.21977e-11 13302.7)
(121533 -30658.5 -5.29806e-11 -9156.83 -3.95264e-11 13396.8)
(123693 -27062.2 -5.10206e-11 -11602.5 -3.70586e-11 13450.4)
(124473 -23884.8 -4.92719e-11 -13435.7 -3.48888e-11 13413.6)
(125752 -21089.1 -4.75761e-11 -14183.9 -3.29956e-11 13504.1)
(68448.7 -59458.9 -6.1803e-11 60297.5 -6.04287e-11 13294.4)
(96692.3 -55576.9 -6.29718e-11 32105 -5.71552e-11 13916.3)
(113310 -49114.1 -6.06286e-11 17862.7 -5.24764e-11 14495.6)
(123377 -42973.2 -5.82011e-11 6708.53 -4.80985e-11 14673.8)
(129741 -37034.2 -5.53489e-11 -278.908 -4.39538e-11 14808.7)
(133281 -31798.4 -5.2746e-11 -5477.07 -4.03263e-11 14800.7)
(135160 -27164.4 -5.03131e-11 -9028.24 -3.71416e-11 14752.1)
(135889 -23062.4 -4.80917e-11 -11568.3 -3.43378e-11 14664.6)
(135522 -19569 -4.61844e-11 -13437.7 -3.19596e-11 14517.1)
(135559 -16444.3 -4.43525e-11 -14400.5 -2.98455e-11 14474.2)
(93603.9 -72421.5 -6.81012e-11 67444.8 -6.9179e-11 16155.7)
(119609 -60982.9 -6.50662e-11 35973.1 -6.07811e-11 16376.9)
(133940 -50180.2 -6.022e-11 20600.2 -5.31783e-11 16686.3)
(141652 -41358 -5.62833e-11 8694.8 -4.69958e-11 16602.9)
(145901 -33731.5 -5.24592e-11 1500.61 -4.17229e-11 16532.3)
(147475 -27445.7 -4.92684e-11 -3805.23 -3.73962e-11 16335.1)
(147654 -22160.4 -4.6475e-11 -7359.58 -3.37803e-11 16127.6)
(146810 -17700.9 -4.40675e-11 -9844.19 -3.07434e-11 15895.5)
(145295 -14085.2 -4.21426e-11 -11867.2 -2.82838e-11 15626.5)
(143911 -10949.6 -4.0309e-11 -12582 -2.61722e-11 15465.3)
(60743.2 -4222.59 -3.67093e-11 -512.417 -2.2188e-11 8406.52)
(65753.6 -3767.28 -3.62453e-11 -398.477 -2.18686e-11 8902.89)
(70345.1 -3371.72 -3.5837e-11 -317.242 -2.159e-11 9355.78)
(74468.4 -3012.63 -3.54694e-11 -257.033 -2.13366e-11 9761.57)
(78189.8 -2679.47 -3.5132e-11 -197.461 -2.11022e-11 10128.3)
(81519.9 -2381.46 -3.48312e-11 -154.136 -2.08924e-11 10455.7)
(84506.1 -2108.04 -3.45574e-11 -112.616 -2.07e-11 10749.5)
(87165.3 -1861.48 -3.4312e-11 -80.5471 -2.05265e-11 11010.8)
(89531.6 -1635.5 -3.40896e-11 -52.3009 -2.03677e-11 11243.4)
(91621.4 -1428.62 -3.38895e-11 -30.2136 -2.02226e-11 11448.6)
(93456.4 -1235.92 -3.37064e-11 -12.3738 -2.00877e-11 11628.8)
(95048.9 -1055.24 -3.35397e-11 0.793593 -1.99615e-11 11785.1)
(96411 -882.581 -3.33858e-11 9.71346 -1.98415e-11 11918.8)
(97549.4 -715.266 -3.32429e-11 14.1734 -1.97257e-11 12030.5)
(98467.6 -551.961 -3.31105e-11 14.2796 -1.96131e-11 12120.6)
(99170.1 -391.462 -3.29872e-11 10.4568 -1.95032e-11 12189.5)
(99655.4 -236.977 -3.2875e-11 2.91737 -1.93977e-11 12237.1)
(99944.3 -96.6578 -3.27782e-11 -3.1354 -1.93029e-11 12265.7)
(100037 10.6533 -3.27065e-11 -2.39207 -1.92306e-11 12275.7)
(100028 35.7771 -3.26823e-11 52.0828 -1.9215e-11 12279.1)
(67347.1 -12084.6 -4.15985e-11 -1149.34 -2.74223e-11 8929.22)
(71038.4 -10876.8 -4.07112e-11 -1120.67 -2.66013e-11 9298.11)
(74596.7 -9812.92 -3.99083e-11 -1025.95 -2.5878e-11 9657.95)
(77773.2 -8820.12 -3.91705e-11 -977.312 -2.52031e-11 9976.8)
(80718 -7890.14 -3.84728e-11 -886.839 -2.45719e-11 10275.9)
(83367 -7049.56 -3.78463e-11 -826.949 -2.40011e-11 10543.4)
(85786.7 -6271.65 -3.72644e-11 -755.059 -2.34729e-11 10789.2)
(87961.1 -5565.11 -3.67388e-11 -700.478 -2.29933e-11 11009.2)
(89924.7 -4913.23 -3.62547e-11 -648.021 -2.2551e-11 11208.4)
(91679.1 -4313.46 -3.58126e-11 -607.138 -2.21441e-11 11386)
(93243.6 -3754.45 -3.54028e-11 -573.476 -2.17649e-11 11544.3)
(94624 -3229.53 -3.50222e-11 -548.522 -2.14089e-11 11684)
(95832.2 -2730.12 -3.46639e-11 -530.576 -2.10707e-11 11806.3)
(96875.2 -2250.36 -3.43245e-11 -517.727 -2.07459e-11 11912)
(97758.2 -1785.57 -3.39996e-11 -506.471 -2.04316e-11 12002.1)
(98490.1 -1335.48 -3.36884e-11 -489.481 -2.0128e-11 12077.9)
(99070.4 -905.7 -3.33919e-11 -456.774 -1.98386e-11 12140.1)
(99516.8 -514.81 -3.31179e-11 -383.186 -1.95767e-11 12192)
(99810.6 -191.14 -3.28794e-11 -235.689 -1.93618e-11 12234.4)
(99999.8 -20.217 -3.27151e-11 72.2587 -1.92529e-11 12277.5)
(75018.4 -17488.8 -4.51732e-11 -3534.66 -3.09699e-11 9443.22)
(77370.9 -15843.7 -4.40405e-11 -3450.13 -2.98611e-11 9690.74)
(79903.6 -14367.7 -4.29737e-11 -3139.53 -2.88698e-11 9971.44)
(82093.4 -12997.4 -4.20023e-11 -2936.29 -2.79483e-11 10210)
(84234.1 -11691.7 -4.10595e-11 -2646.6 -2.70721e-11 10449.7)
(86157 -10506.6 -4.02106e-11 -2423.39 -2.62759e-11 10662.4)
(87970.9 -9397.84 -3.94115e-11 -2187.55 -2.55317e-11 10864.8)
(89616.1 -8384.6 -3.86856e-11 -1993.75 -2.4851e-11 11047)
(91136.4 -7444.06 -3.80119e-11 -1815.89 -2.42192e-11 11215.3)
(92514.2 -6575.41 -3.73935e-11 -1670.51 -2.36355e-11 11366.8)
(93768.7 -5764.9 -3.68197e-11 -1548.82 -2.30905e-11 11504)
(94898.1 -5005.44 -3.62865e-11 -1454.84 -2.25797e-11 11626.6)
(95911 -4286.2 -3.57869e-11 -1383.17 -2.20958e-11 11736)
(96812.9 -3600.64 -3.5314e-11 -1329.86 -2.16344e-11 11833)
(97607.4 -2941.67 -3.48643e-11 -1286.96 -2.11911e-11 11918.5)
(98301.8 -2307.43 -3.44318e-11 -1238.86 -2.07647e-11 11994.6)
(98891.7 -1699.37 -3.40148e-11 -1164.31 -2.03567e-11 12062.4)
(99388.5 -1127.27 -3.36126e-11 -1018.51 -1.99745e-11 12126.3)
(99748.7 -608.624 -3.32269e-11 -739.131 -1.96314e-11 12186.7)
(100014 -167.218 -3.28545e-11 -216.894 -1.93453e-11 12255.6)
(84000 -21301.3 -4.76892e-11 -5881.54 -3.34471e-11 10100.2)
(84925.9 -19417.7 -4.64551e-11 -5829.4 -3.21825e-11 10209.5)
(86394.8 -17680.3 -4.52297e-11 -5354.42 -3.10229e-11 10402.2)
(87520.8 -16095.1 -4.41412e-11 -5066.44 -2.99627e-11 10546.2)
(88793.7 -14552.4 -4.3049e-11 -4616.19 -2.89337e-11 10716.4)
(89913.8 -13151.7 -4.20678e-11 -4263.97 -2.79985e-11 10863.1)
(91052 -11825.1 -4.11284e-11 -3884.66 -2.71132e-11 11013)
(92097.5 -10606.7 -4.02708e-11 -3564.5 -2.62998e-11 11148.6)
(93109.2 -9468.13 -3.94677e-11 -3267.06 -2.55393e-11 11278.6)
(94047.6 -8412.66 -3.87286e-11 -3017.1 -2.48342e-11 11397.1)
(94932.9 -7425.08 -3.80385e-11 -2803.76 -2.41735e-11 11507.2)
(95753.2 -6499.1 -3.73978e-11 -2631.84 -2.3554e-11 11607.2)
(96515.3 -5623.78 -3.67958e-11 -2495.07 -2.29674e-11 11698.7)
(97217.7 -4790.81 -3.62278e-11 -2388.24 -2.2409e-11 11781.7)
(97860.6 -3992.33 -3.5686e-11 -2300.43 -2.18736e-11 11857.2)
(98447.4 -3222.44 -3.51643e-11 -2211.86 -2.13574e-11 11927.1)
(98964.4 -2476.74 -3.46563e-11 -2096.54 -2.08583e-11 11992.1)
(99421.4 -1751.09 -3.41498e-11 -1904.24 -2.03743e-11 12057)
(99755.3 -1051.23 -3.36416e-11 -1569.95 -1.99111e-11 12120.5)
(100020 -327.049 -3.30782e-11 -978.481 -1.94369e-11 12197.1)
(93647.5 -23274 -4.90871e-11 -8673.35 -3.46797e-11 10803.3)
(93088.5 -21383.3 -4.79026e-11 -8664.75 -3.34148e-11 10766)
(93513.6 -19539.1 -4.66051e-11 -7964.65 -3.21915e-11 10875.9)
(93550.8 -17915 -4.55111e-11 -7580.35 -3.11108e-11 10922.3)
(93953.7 -16283.3 -4.43584e-11 -6937.48 -3.00289e-11 11023.9)
(94249.2 -14808 -4.33309e-11 -6428.94 -2.90499e-11 11103.5)
(94692.1 -13389.2 -4.23272e-11 -5875.7 -2.81087e-11 11200.3)
(95111.4 -12079.5 -4.14055e-11 -5398.49 -2.72392e-11 11288.1)
(95584.5 -10845 -4.0535e-11 -4951.33 -2.64196e-11 11378.2)
(96051.3 -9694.51 -3.97285e-11 -4568.09 -2.56549e-11 11462.1)
(96531.6 -8613.52 -3.89737e-11 -4236.99 -2.49355e-11 11542.7)
(97004.4 -7597.47 -3.82694e-11 -3965.04 -2.42584e-11 11617.7)
(97472.6 -6635.55 -3.76084e-11 -3745.55 -2.36166e-11 11687.7)
(97929.1 -5718.93 -3.69847e-11 -3572.89 -2.30044e-11 11752.6)
(98370.1 -4838.12 -3.6389e-11 -3434.84 -2.24154e-11 11813.2)
(98793.4 -3981.91 -3.58124e-11 -3311.66 -2.18427e-11 11870.7)
(99181.4 -3140.66 -3.52441e-11 -3175.95 -2.12805e-11 11925.5)
(99539.9 -2293.79 -3.46634e-11 -2979.29 -2.07157e-11 11982.3)
(99800.8 -1440.25 -3.40626e-11 -2664.44 -2.01494e-11 12038.6)
(100022 -467.903 -3.33507e-11 -2121.71 -1.95077e-11 12109.4)
(103793 -23509 -4.93235e-11 -11201.6 -3.47516e-11 11589.3)
(101686 -21855.8 -4.8364e-11 -11352.2 -3.36476e-11 11388.4)
(101089 -20052.9 -4.70941e-11 -10456.7 -3.24597e-11 11414)
(100016 -18549.9 -4.61045e-11 -10029.5 -3.14646e-11 11355.5)
(99547.3 -16961.9 -4.49835e-11 -9237.54 -3.04181e-11 11383.8)
(99005.1 -15532.2 -4.39905e-11 -8603.38 -2.94746e-11 11391.7)
(98737.7 -14131.3 -4.29974e-11 -7906.46 -2.85511e-11 11430.6)
(98512.4 -12827.5 -4.20773e-11 -7289.92 -2.76905e-11 11466.7)
(98423.4 -11587.1 -4.11988e-11 -6707.27 -2.68715e-11 11512.8)
(98393.1 -10421.8 -4.03779e-11 -6196.18 -2.6101e-11 11558.5)
(98438.9 -9320.6 -3.9605e-11 -5748.17 -2.53719e-11 11606.3)
(98532.4 -8279.42 -3.88806e-11 -5372.9 -2.46817e-11 11652.6)
(98671.8 -7289.97 -3.81987e-11 -5065.59 -2.40245e-11 11697.8)
(98845.2 -6343.15 -3.75527e-11 -4822.73 -2.33942e-11 11741)
(99044.4 -5428 -3.69351e-11 -4634.88 -2.2784e-11 11782.2)
(99263.1 -4529.42 -3.63333e-11 -4484.73 -2.21841e-11 11822.4)
(99482.4 -3633.38 -3.57358e-11 -4349.34 -2.15855e-11 11861.4)
(99702.3 -2704.86 -3.51137e-11 -4189.42 -2.0966e-11 11902.7)
(99866.1 -1739.73 -3.44588e-11 -3960.58 -2.03232e-11 11944.1)
(100017 -577.486 -3.36533e-11 -3572.04 -1.95517e-11 11998)
(113955 -22005.6 -4.83892e-11 -13317.1 -3.36668e-11 12422.9)
(110305 -20853.9 -4.78438e-11 -13763.3 -3.28981e-11 12046.3)
(108761 -19246.8 -4.67084e-11 -12748.7 -3.18466e-11 11987.8)
(106609 -18016.9 -4.59273e-11 -12327.6 -3.10384e-11 11822.4)
(105297 -16615.5 -4.4937e-11 -11447.3 -3.01214e-11 11774.4)
(103946 -15345.4 -4.40538e-11 -10706.3 -2.92899e-11 11710.9)
(102977 -14070.3 -4.31428e-11 -9885.92 -2.84554e-11 11690.3)
(102118 -12860.8 -4.22812e-11 -9134.96 -2.7663e-11 11674.6)
(101466 -11694.3 -4.14465e-11 -8420.73 -2.68981e-11 11675.8)
(100935 -10584 -4.06555e-11 -7783.07 -2.61687e-11 11682.3)
(100535 -9525.2 -3.99052e-11 -7219.95 -2.5472e-11 11695.4)
(100235 -8516.5 -3.91977e-11 -6742.41 -2.48068e-11 11711.2)
(100027 -7551.9 -3.85285e-11 -6349.83 -2.41691e-11 11729)
(99894.4 -6623.25 -3.78929e-11 -6041.78 -2.35533e-11 11747.5)
(99827 -5719.19 -3.72842e-11 -5811.56 -2.29524e-11 11766.1)
(99813.6 -4822.22 -3.66885e-11 -5648.88 -2.23546e-11 11784.8)
(99838.4 -3914.42 -3.60936e-11 -5536.75 -2.17484e-11 11803.3)
(99894.3 -2951.29 -3.54661e-11 -5449.14 -2.11045e-11 11823.6)
(99946.1 -1926.56 -3.47984e-11 -5356.97 -2.04194e-11 11844.3)
(100009 -647.913 -3.39592e-11 -5198.85 -1.95656e-11 11873.2)
(123721 -18874.1 -4.63039e-11 -14627.7 -3.15088e-11 13293.2)
(118635 -18482 -4.6355e-11 -15503.8 -3.12449e-11 12738.8)
(116233 -17237.6 -4.54872e-11 -14553.8 -3.04384e-11 12589.5)
(113104 -16383.1 -4.49823e-11 -14175.9 -2.98839e-11 12323.3)
(110985 -15294.6 -4.42221e-11 -13332.1 -2.91787e-11 12191.9)
(108891 -14273.5 -4.35153e-11 -12558.7 -2.85171e-11 12057)
(107242 -13222.9 -4.27614e-11 -11698.5 -2.78361e-11 11972)
(105779 -12193.7 -4.20211e-11 -10870.1 -2.71682e-11 11902.2)
(104574 -11182 -4.12873e-11 -10066 -2.65107e-11 11855.5)
(103550 -10198.1 -4.05752e-11 -9325.25 -2.58696e-11 11821.1)
(102706 -9244.82 -3.98897e-11 -8657.42 -2.52474e-11 11798.3)
(102009 -8323.93 -3.92335e-11 -8079.44 -2.46444e-11 11782.7)
(101447 -7433.1 -3.86083e-11 -7597.77 -2.40591e-11 11772.5)
(101000 -6566.46 -3.80116e-11 -7218.46 -2.34876e-11 11765.4)
(100654 -5714.25 -3.74365e-11 -6942.47 -2.29231e-11 11760.3)
(100397 -4857.77 -3.68723e-11 -6766.94 -2.23536e-11 11756)
(100216 -3979.1 -3.63069e-11 -6685.6 -2.17669e-11 11752.1)
(100095 -3027.06 -3.57066e-11 -6689 -2.11292e-11 11748.3)
(100031 -1995.92 -3.50651e-11 -6762.91 -2.04368e-11 11745.2)
(99995.6 -677.581 -3.4249e-11 -6885.88 -1.9551e-11 11743.7)
(132760 -14417 -4.32287e-11 -14875 -2.84862e-11 14185.1)
(126387 -14923.5 -4.39701e-11 -16248 -2.88187e-11 13461.2)
(123192 -14299.7 -4.36022e-11 -15793.1 -2.84209e-11 13192.5)
(119277 -13894.7 -4.34243e-11 -15522.4 -2.8168e-11 12838.4)
(116385 -13250.2 -4.29913e-11 -14812.1 -2.77602e-11 12618.4)
(113652 -12539.4 -4.24996e-11 -14025.7 -2.73091e-11 12420.2)
(111377 -11764.3 -4.19369e-11 -13142.6 -2.68151e-11 12274.1)
(109368 -10953.9 -4.13435e-11 -12256.9 -2.62969e-11 12154.1)
(107651 -10131.5 -4.07351e-11 -11388.4 -2.57691e-11 12061.2)
(106166 -9308.84 -4.01292e-11 -10575.7 -2.52394e-11 11986.5)
(104899 -8496.99 -3.95343e-11 -9835.91 -2.47147e-11 11927.1)
(103818 -7700.51 -3.89592e-11 -9189.22 -2.41978e-11 11878.5)
(102906 -6920.6 -3.84052e-11 -8647.44 -2.36892e-11 11838.1)
(102143 -6153.12 -3.78738e-11 -8222.48 -2.31861e-11 11803.2)
(101516 -5390.58 -3.73605e-11 -7921.54 -2.26833e-11 11771.9)
(101007 -4615.08 -3.68568e-11 -7751.85 -2.21687e-11 11742.2)
(100612 -3808.58 -3.63514e-11 -7717.97 -2.16302e-11 11713.6)
(100308 -2919.09 -3.58144e-11 -7829.47 -2.1033e-11 11683.2)
(100123 -1940.46 -3.52395e-11 -8087.3 -2.03722e-11 11654.1)
(99982.8 -663.682 -3.4502e-11 -8515.66 -1.95082e-11 11619)
(140282 -8697.71 -3.92729e-11 -14331.9 -2.46391e-11 15001.2)
(133814 -9802.36 -4.0355e-11 -15438.8 -2.53784e-11 14283.2)
(129723 -10064.6 -4.07295e-11 -15934.7 -2.55576e-11 13848.3)
(125367 -10172.1 -4.09499e-11 -16028.5 -2.56425e-11 13419.7)
(121708 -10125 -4.09898e-11 -15751.9 -2.56285e-11 13087.7)
(118372 -9897.24 -4.08625e-11 -15206.2 -2.54983e-11 12808.9)
(115463 -9544.31 -4.06108e-11 -14463.4 -2.52867e-11 12587.3)
(112896 -9086.46 -4.0265e-11 -13621.4 -2.50056e-11 12407.2)
(110663 -8555.92 -3.98562e-11 -12733.9 -2.46756e-11 12263.3)
(108716 -7976.6 -3.94092e-11 -11860.4 -2.43117e-11 12146.5)
(107032 -7368.02 -3.89432e-11 -11036.2 -2.39263e-11 12051.6)
(105577 -6743.79 -3.84738e-11 -10296.1 -2.35281e-11 11972.4)
(104328 -6112.49 -3.80101e-11 -9663.67 -2.31219e-11 11905.2)
(103261 -5475.44 -3.75585e-11 -9160.44 -2.2709e-11 11845.8)
(102362 -4830.24 -3.71197e-11 -8804.39 -2.22868e-11 11791.4)
(101608 -4162.32 -3.6689e-11 -8614.42 -2.18456e-11 11738.6)
(101004 -3456.71 -3.62581e-11 -8606.56 -2.13749e-11 11686.9)
(100515 -2665.71 -3.5804e-11 -8812.14 -2.08421e-11 11630.8)
(100208 -1783.43 -3.53234e-11 -9248.47 -2.0243e-11 11575.6)
(99965 -612.9 -3.47059e-11 -9985.53 -1.94441e-11 11506.1)
(144538 -3987.79 -3.58932e-11 -12740 -2.15011e-11 15572.9)
(138588 -4578.73 -3.66397e-11 -13892.9 -2.18934e-11 14905.8)
(133907 -5667.61 -3.76584e-11 -15017.5 -2.26156e-11 14359.3)
(129415 -6184.52 -3.82058e-11 -15505.5 -2.29671e-11 13884.1)
(125439 -6549.89 -3.85656e-11 -15523.6 -2.32248e-11 13495.7)
(121798 -6715.73 -3.87387e-11 -15234.6 -2.3354e-11 13164.6)
(118561 -6724.15 -3.87576e-11 -14685.8 -2.33817e-11 12893.5)
(115659 -6602.81 -3.86602e-11 -13989.3 -2.33243e-11 12667.1)
(113092 -6376.29 -3.84703e-11 -13202.8 -2.31972e-11 12480.9)
(110821 -6070.8 -3.82178e-11 -12393.5 -2.30165e-11 12325.5)
(108826 -5706.5 -3.79229e-11 -11605.9 -2.27952e-11 12195.7)
(107079 -5300.24 -3.76035e-11 -10882.2 -2.25434e-11 12085.3)
(105558 -4863.78 -3.7273e-11 -10254.2 -2.22688e-11 11989.8)
(104239 -4402.86 -3.69415e-11 -9752.76 -2.19748e-11 11904.4)
(103111 -3918.96 -3.6614e-11 -9404.15 -2.16613e-11 11826)
(102149 -3403.39 -3.62898e-11 -9238.92 -2.13222e-11 11750)
(101366 -2845.05 -3.59669e-11 -9283.94 -2.09498e-11 11675.8)
(100719 -2206.93 -3.56308e-11 -9588.7 -2.0518e-11 11595.5)
(100305 -1485.15 -3.5281e-11 -10185.5 -2.00235e-11 11516.4)
(99960.4 -512.004 -3.48345e-11 -11188.4 -1.93518e-11 11415.3)
(142347 633.271 -3.27408e-11 -10959.3 -1.84477e-11 15535.6)
(137678 -44.4055 -3.37036e-11 -13365.5 -1.88682e-11 14896.4)
(133378 -1372.23 -3.48686e-11 -14532.2 -1.97484e-11 14381.4)
(129298 -2243.95 -3.56563e-11 -15191.8 -2.03328e-11 13930.1)
(125618 -2931.25 -3.62298e-11 -15327.6 -2.0803e-11 13558.5)
(122198 -3419.02 -3.66181e-11 -15147.1 -2.11449e-11 13237.8)
(119108 -3735.48 -3.68441e-11 -14697.2 -2.13766e-11 12970.8)
(116289 -3908.27 -3.69443e-11 -14088.1 -2.15142e-11 12743.4)
(113756 -3959.59 -3.69427e-11 -13375.9 -2.15717e-11 12552.3)
(111476 -3914.02 -3.68652e-11 -12627.8 -2.15643e-11 12389.3)
(109443 -3791.34 -3.67325e-11 -11889.9 -2.15037e-11 12250)
(107634 -3608.52 -3.65637e-11 -11206.5 -2.14014e-11 12128.7)
(106037 -3378.67 -3.63722e-11 -10612.6 -2.12645e-11 12021.5)
(104633 -3109.52 -3.61701e-11 -10142.8 -2.10986e-11 11923.9)
(103416 -2804.82 -3.59641e-11 -9827.84 -2.09048e-11 11832.8)
(102366 -2461.51 -3.57597e-11 -9704.77 -2.06808e-11 11743.7)
(101503 -2072.49 -3.55558e-11 -9807.56 -2.04208e-11 11655.9)
(100784 -1613.85 -3.53494e-11 -10194.6 -2.01079e-11 11560.9)
(100325 -1086.65 -3.51437e-11 -10912.1 -1.97414e-11 11466.6)
(99942.6 -373.822 -3.4892e-11 -12090.2 -1.92408e-11 11346.4)
(140693 5267.56 -2.95126e-11 -8859.82 -1.53903e-11 15574.4)
(136392 4203.27 -3.07717e-11 -11654.1 -1.60607e-11 14938.2)
(132754 2639.04 -3.21108e-11 -13098.5 -1.70915e-11 14463.9)
(128996 1481.87 -3.31173e-11 -14058.2 -1.786e-11 14018.5)
(125611 523.287 -3.38951e-11 -14449 -1.85058e-11 13653.8)
(122371 -240.318 -3.44893e-11 -14497.5 -1.90271e-11 13330.7)
(119413 -823.78 -3.49118e-11 -14240.2 -1.94334e-11 13059.6)
(116670 -1257.97 -3.52022e-11 -13793.5 -1.97427e-11 12825)
(114176 -1560.12 -3.53789e-11 -13213 -1.99654e-11 12625.6)
(111904 -1753.23 -3.54701e-11 -12571 -2.01158e-11 12453.2)
(109855 -1855.6 -3.54943e-11 -11916.4 -2.02045e-11 12304.3)
(108014 -1883.93 -3.54712e-11 -11297.9 -2.02423e-11 12173.1)
(106372 -1851.45 -3.54152e-11 -10755.6 -2.02371e-11 12056)
(104915 -1769 -3.53397e-11 -10329.6 -2.01953e-11 11948.3)
(103640 -1642.04 -3.52548e-11 -10055.5 -2.01201e-11 11847.1)
(102533 -1473.26 -3.51699e-11 -9975.76 -2.00124e-11 11747.6)
(101616 -1259.44 -3.50883e-11 -10133 -1.98689e-11 11649)
(100847 -994.168 -3.50166e-11 -10586.6 -1.96844e-11 11542.5)
(100360 -675.309 -3.49576e-11 -11388 -1.94558e-11 11437.4)
(99938.7 -232.567 -3.49001e-11 -12698.5 -1.91337e-11 11301.1)
(137777 8857.07 -2.70414e-11 -7097.19 -1.30305e-11 15457)
(134054 7770.59 -2.83467e-11 -10205.6 -1.37073e-11 14852.5)
(131031 6135 -2.97397e-11 -11824.4 -1.47803e-11 14423.9)
(127695 4843.39 -3.0851e-11 -12982.9 -1.56334e-11 14002.9)
(124686 3707.61 -3.17574e-11 -13548.9 -1.63931e-11 13659.7)
(121724 2747.42 -3.24939e-11 -13760.8 -1.70421e-11 13349.5)
(118991 1953.74 -3.30665e-11 -13650.4 -1.75855e-11 13087.2)
(116416 1305.33 -3.35084e-11 -13334.8 -1.8035e-11 12857)
(114046 789.36 -3.38353e-11 -12869.5 -1.83982e-11 12659.1)
(111862 386.442 -3.40731e-11 -12326 -1.86867e-11 12486)
(109872 81.7485 -3.42376e-11 -11755.1 -1.89092e-11 12334.5)
(108064 -140.892 -3.43476e-11 -11207.7 -1.90757e-11 12199.6)
(106439 -294.308 -3.44188e-11 -10724.5 -1.91938e-11 12078)
(104985 -390.393 -3.44654e-11 -10348.8 -1.92709e-11 11965.2)
(103703 -436.899 -3.44977e-11 -10118.7 -1.93109e-11 11858.6)
(102584 -444.249 -3.45322e-11 -10081.7 -1.93204e-11 11753.2)
(101650 -406.831 -3.45686e-11 -10278.4 -1.92944e-11 11648.4)
(100872 -345.491 -3.46342e-11 -10776.2 -1.92456e-11 11536.1)
(100376 -232.434 -3.47181e-11 -11650.5 -1.91537e-11 11422.8)
(99936.3 -75.9439 -3.48536e-11 -13030.3 -1.90219e-11 11277)
(134107 11837.6 -2.49842e-11 -5353.99 -1.10809e-11 15260.1)
(130969 10737.9 -2.62997e-11 -8589.04 -1.17619e-11 14702.4)
(128559 9113.38 -2.76851e-11 -10322.9 -1.28233e-11 14324.4)
(125685 7763.51 -2.88465e-11 -11658 -1.371e-11 13934.1)
(123092 6526.69 -2.98315e-11 -12392.9 -1.45327e-11 13617.5)
(120459 5437.68 -3.06667e-11 -12774.5 -1.52635e-11 13325)
(118004 4493.26 -3.13513e-11 -12819.8 -1.59037e-11 13076.5)