/*--------------------------------*- C++ -*----------------------------------*\
  =========                 |
  \\      /  F ield         | OpenFOAM: The Open Source CFD Toolbox
   \\    /   O peration     | Website:  https://openfoam.org
    \\  /    A nd           | Version:  9
     \\/     M anipulation  |
\*---------------------------------------------------------------------------*/
FoamFile
{
    format      ascii;
    class       volVectorField;
    location    "15";
    object      D;
}
// * * * * * * * * * * * * * * * * * * * * * * * * * * * * * * * * * * * * * //

dimensions      [0 1 0 0 0 0 0];

internalField   nonuniform List<vector> 
1000
(
(1.01594e-05 3.42014e-06 0)
(9.48026e-06 3.77382e-06 0)
(8.98542e-06 4.07402e-06 0)
(8.62736e-06 4.30754e-06 0)
(8.37183e-06 4.50954e-06 0)
(8.19121e-06 4.68317e-06 0)
(8.0688e-06 4.83967e-06 0)
(7.99084e-06 4.98219e-06 0)
(7.94664e-06 5.11517e-06 0)
(7.9307e-06 5.24123e-06 0)
(9.15637e-06 3.08615e-06 0)
(8.45125e-06 3.34068e-06 0)
(7.94061e-06 3.56843e-06 0)
(7.57257e-06 3.74281e-06 0)
(7.31053e-06 3.89634e-06 0)
(7.12457e-06 4.02826e-06 0)
(6.99709e-06 4.1479e-06 0)
(6.91343e-06 4.25735e-06 0)
(6.86264e-06 4.35888e-06 0)
(6.83726e-06 4.45797e-06 0)
(8.12802e-06 2.74942e-06 0)
(7.41945e-06 2.9001e-06 0)
(6.90719e-06 3.05174e-06 0)
(6.53989e-06 3.16688e-06 0)
(6.27934e-06 3.27264e-06 0)
(6.09435e-06 3.36475e-06 0)
(5.96674e-06 3.4499e-06 0)
(5.88148e-06 3.52891e-06 0)
(5.82756e-06 3.60199e-06 0)
(5.79712e-06 3.67532e-06 0)
(7.08616e-06 2.41298e-06 0)
(6.39272e-06 2.46149e-06 0)
(5.89309e-06 2.53608e-06 0)
(5.53767e-06 2.59385e-06 0)
(5.287e-06 2.65409e-06 0)
(5.10972e-06 2.70939e-06 0)
(4.98739e-06 2.76331e-06 0)
(4.90489e-06 2.81514e-06 0)
(4.85181e-06 2.86336e-06 0)
(4.81958e-06 2.91371e-06 0)
(6.03514e-06 2.08962e-06 0)
(5.37382e-06 2.03763e-06 0)
(4.90254e-06 2.03616e-06 0)
(4.57065e-06 2.03966e-06 0)
(4.339e-06 2.0584e-06 0)
(4.17649e-06 2.08131e-06 0)
(4.06487e-06 2.10857e-06 0)
(3.98938e-06 2.13758e-06 0)
(3.94047e-06 2.16532e-06 0)
(3.90932e-06 2.19629e-06 0)
(4.97245e-06 1.77751e-06 0)
(4.3655e-06 1.63139e-06 0)
(3.93721e-06 1.56079e-06 0)
(3.64193e-06 1.51727e-06 0)
(3.43907e-06 1.5014e-06 0)
(3.29858e-06 1.49854e-06 0)
(3.20298e-06 1.50524e-06 0)
(3.13844e-06 1.51701e-06 0)
(3.0966e-06 1.52957e-06 0)
(3.06886e-06 1.54582e-06 0)
(3.89306e-06 1.47002e-06 0)
(3.36165e-06 1.24316e-06 0)
(2.99582e-06 1.1175e-06 0)
(2.75159e-06 1.03952e-06 0)
(2.58758e-06 9.99713e-07 0)
(2.4761e-06 9.80105e-07 0)
(2.40122e-06 9.73787e-07 0)
(2.35085e-06 9.74745e-07 0)
(2.31821e-06 9.77894e-07 0)
(2.29568e-06 9.84521e-07 0)
(2.81742e-06 1.16147e-06 0)
(2.37005e-06 8.7194e-07 0)
(2.08723e-06 7.15068e-07 0)
(1.90588e-06 6.20539e-07 0)
(1.78872e-06 5.71429e-07 0)
(1.71078e-06 5.46019e-07 0)
(1.65926e-06 5.3524e-07 0)
(1.62468e-06 5.3217e-07 0)
(1.60222e-06 5.3168e-07 0)
(1.58593e-06 5.33832e-07 0)
(1.70879e-06 8.33391e-07 0)
(1.38465e-06 5.22219e-07 0)
(1.2084e-06 3.62708e-07 0)
(1.10092e-06 2.78244e-07 0)
(1.03632e-06 2.36751e-07 0)
(9.94138e-07 2.16977e-07 0)
(9.6679e-07 2.09147e-07 0)
(9.48175e-07 2.07238e-07 0)
(9.35844e-07 2.07101e-07 0)
(9.26153e-07 2.0838e-07 0)
(5.97455e-07 4.32685e-07 0)
(4.40613e-07 2.01635e-07 0)
(3.85839e-07 9.6128e-08 0)
(3.56863e-07 5.49313e-08 0)
(3.39524e-07 3.69927e-08 0)
(3.27835e-07 3.09355e-08 0)
(3.19975e-07 2.96264e-08 0)
(3.14336e-07 3.05385e-08 0)
(3.1041e-07 3.16851e-08 0)
(3.06979e-07 3.30841e-08 0)
(1.79026e-05 5.53215e-06 0)
(1.78729e-05 6.2194e-06 0)
(1.78525e-05 6.85973e-06 0)
(1.78532e-05 7.44595e-06 0)
(1.788e-05 7.98413e-06 0)
(1.7935e-05 8.48094e-06 0)
(1.80185e-05 8.94413e-06 0)
(1.81287e-05 9.38042e-06 0)
(1.82647e-05 9.7951e-06 0)
(1.8423e-05 1.01941e-05 0)
(1.73413e-05 5.48668e-06 0)
(1.72617e-05 6.17192e-06 0)
(1.72075e-05 6.80443e-06 0)
(1.71834e-05 7.37883e-06 0)
(1.71922e-05 7.90258e-06 0)
(1.72322e-05 8.38278e-06 0)
(1.73021e-05 8.82792e-06 0)
(1.73985e-05 9.24509e-06 0)
(1.75202e-05 9.63979e-06 0)
(1.76625e-05 1.00187e-05 0)
(1.67459e-05 5.39453e-06 0)
(1.66072e-05 6.07796e-06 0)
(1.6507e-05 6.69758e-06 0)
(1.64467e-05 7.25345e-06 0)
(1.64267e-05 7.75687e-06 0)
(1.64425e-05 8.2159e-06 0)
(1.64912e-05 8.63963e-06 0)
(1.65678e-05 9.03523e-06 0)
(1.66704e-05 9.40845e-06 0)
(1.67928e-05 9.7662e-06 0)
(1.61026e-05 5.26059e-06 0)
(1.58974e-05 5.94069e-06 0)
(1.57438e-05 6.54451e-06 0)
(1.56405e-05 7.07774e-06 0)
(1.55853e-05 7.55669e-06 0)
(1.55712e-05 7.9906e-06 0)
(1.55937e-05 8.38943e-06 0)
(1.56463e-05 8.76042e-06 0)
(1.57266e-05 9.10956e-06 0)
(1.58265e-05 9.44368e-06 0)
(1.54039e-05 5.08614e-06 0)
(1.51259e-05 5.75745e-06 0)
(1.49152e-05 6.34052e-06 0)
(1.47664e-05 6.84588e-06 0)
(1.46741e-05 7.29553e-06 0)
(1.46283e-05 7.7e-06 0)
(1.46232e-05 8.07023e-06 0)
(1.46506e-05 8.41343e-06 0)
(1.47077e-05 8.73588e-06 0)
(1.47845e-05 9.04396e-06 0)
(1.46488e-05 4.87525e-06 0)
(1.42939e-05 5.5285e-06 0)
(1.40248e-05 6.0848e-06 0)
(1.38308e-05 6.55747e-06 0)
(1.37016e-05 6.97386e-06 0)
(1.36247e-05 7.34537e-06 0)
(1.35924e-05 7.68394e-06 0)
(1.3595e-05 7.99657e-06 0)
(1.36293e-05 8.28996e-06 0)
(1.36838e-05 8.56966e-06 0)
(1.38394e-05 4.63109e-06 0)
(1.34065e-05 5.25381e-06 0)
(1.30803e-05 5.7757e-06 0)
(1.28431e-05 6.21043e-06 0)
(1.26793e-05 6.58975e-06 0)
(1.25734e-05 6.92522e-06 0)
(1.25158e-05 7.22959e-06 0)
(1.24956e-05 7.50945e-06 0)
(1.25088e-05 7.77186e-06 0)
(1.25428e-05 8.02141e-06 0)
(1.29799e-05 4.35835e-06 0)
(1.24718e-05 4.93604e-06 0)
(1.20921e-05 5.41502e-06 0)
(1.18153e-05 5.8066e-06 0)
(1.16205e-05 6.14547e-06 0)
(1.14889e-05 6.44247e-06 0)
(1.1409e-05 6.71081e-06 0)
(1.13688e-05 6.95634e-06 0)
(1.13632e-05 7.18647e-06 0)
(1.13795e-05 7.40431e-06 0)
(1.20758e-05 4.06164e-06 0)
(1.14992e-05 4.5791e-06 0)
(1.10721e-05 5.00645e-06 0)
(1.0761e-05 5.34974e-06 0)
(1.05399e-05 5.64515e-06 0)
(1.03868e-05 5.90187e-06 0)
(1.02883e-05 6.13296e-06 0)
(1.02315e-05 6.34351e-06 0)
(1.02099e-05 6.54042e-06 0)
(1.02116e-05 6.72611e-06 0)
(1.11335e-05 3.74714e-06 0)
(1.04988e-05 4.18921e-06 0)
(1.00326e-05 4.55656e-06 0)
(9.69392e-06 4.84687e-06 0)
(9.45221e-06 5.09643e-06 0)
(9.28243e-06 5.31174e-06 0)
(9.16952e-06 5.50533e-06 0)
(9.09981e-06 5.68085e-06 0)
(9.06538e-06 5.84506e-06 0)
(9.05685e-06 5.99654e-06 0)
(1.86122e-05 1.05778e-05 0)
(1.88295e-05 1.09588e-05 0)
(1.90635e-05 1.13336e-05 0)
(1.93122e-05 1.17041e-05 0)
(1.95745e-05 1.20722e-05 0)
(1.98488e-05 1.24389e-05 0)
(2.01339e-05 1.28055e-05 0)
(2.04287e-05 1.31728e-05 0)
(2.07321e-05 1.35416e-05 0)
(2.10431e-05 1.39127e-05 0)
(2.13609e-05 1.42864e-05 0)
(2.16846e-05 1.46634e-05 0)
(2.20133e-05 1.5044e-05 0)
(2.23464e-05 1.54284e-05 0)
(2.26831e-05 1.5817e-05 0)
(2.30225e-05 1.62098e-05 0)
(2.3364e-05 1.66067e-05 0)
(2.37069e-05 1.70075e-05 0)
(2.40505e-05 1.74115e-05 0)
(2.4394e-05 1.78174e-05 0)
(1.78598e-05 1.0388e-05 0)
(1.81038e-05 1.07625e-05 0)
(1.83609e-05 1.11314e-05 0)
(1.8629e-05 1.14966e-05 0)
(1.89078e-05 1.18602e-05 0)
(1.91959e-05 1.2223e-05 0)
(1.94926e-05 1.25865e-05 0)
(1.97971e-05 1.29514e-05 0)
(2.01087e-05 1.33184e-05 0)
(2.04266e-05 1.36881e-05 0)
(2.07501e-05 1.40612e-05 0)
(2.10787e-05 1.4438e-05 0)
(2.14117e-05 1.48189e-05 0)
(2.17485e-05 1.52042e-05 0)
(2.20887e-05 1.55941e-05 0)
(2.24316e-05 1.59888e-05 0)
(2.27768e-05 1.6388e-05 0)
(2.31237e-05 1.67917e-05 0)
(2.34717e-05 1.7199e-05 0)
(2.38202e-05 1.76089e-05 0)
(1.70009e-05 1.01245e-05 0)
(1.72794e-05 1.04997e-05 0)
(1.75674e-05 1.08694e-05 0)
(1.78622e-05 1.12353e-05 0)
(1.81644e-05 1.15998e-05 0)
(1.84729e-05 1.19638e-05 0)
(1.87876e-05 1.23286e-05 0)
(1.91077e-05 1.2695e-05 0)
(1.94331e-05 1.30638e-05 0)
(1.97631e-05 1.34357e-05 0)
(2.00975e-05 1.38111e-05 0)
(2.04359e-05 1.41906e-05 0)
(2.07778e-05 1.45744e-05 0)
(2.11229e-05 1.49631e-05 0)
(2.14709e-05 1.53566e-05 0)
(2.18214e-05 1.57553e-05 0)
(2.2174e-05 1.61592e-05 0)
(2.25284e-05 1.65681e-05 0)
(2.28841e-05 1.69816e-05 0)
(2.32401e-05 1.73992e-05 0)
(1.60483e-05 9.79317e-06 0)
(1.63678e-05 1.01744e-05 0)
(1.66932e-05 1.05504e-05 0)
(1.70209e-05 1.09219e-05 0)
(1.73527e-05 1.1292e-05 0)
(1.76873e-05 1.16612e-05 0)
(1.80254e-05 1.20312e-05 0)
(1.83665e-05 1.24027e-05 0)
(1.87107e-05 1.27767e-05 0)
(1.90576e-05 1.31537e-05 0)
(1.94074e-05 1.35344e-05 0)
(1.97598e-05 1.39192e-05 0)
(2.01146e-05 1.43086e-05 0)
(2.04718e-05 1.4703e-05 0)
(2.08312e-05 1.51026e-05 0)
(2.11925e-05 1.55077e-05 0)
(2.15557e-05 1.59185e-05 0)
(2.19203e-05 1.63351e-05 0)
(2.2286e-05 1.67575e-05 0)
(2.26519e-05 1.71855e-05 0)
(1.50225e-05 9.38763e-06 0)
(1.53879e-05 9.7811e-06 0)
(1.57558e-05 1.01696e-05 0)
(1.61209e-05 1.05522e-05 0)
(1.64869e-05 1.09331e-05 0)
(1.68521e-05 1.13122e-05 0)
(1.72179e-05 1.16918e-05 0)
(1.75839e-05 1.20724e-05 0)
(1.79507e-05 1.24551e-05 0)
(1.83183e-05 1.28407e-05 0)
(1.86868e-05 1.32298e-05 0)
(1.90565e-05 1.36229e-05 0)
(1.94273e-05 1.40206e-05 0)
(1.97994e-05 1.44233e-05 0)
(2.01728e-05 1.48314e-05 0)
(2.05474e-05 1.52453e-05 0)
(2.09233e-05 1.56653e-05 0)
(2.13003e-05 1.60918e-05 0)
(2.16781e-05 1.65254e-05 0)
(2.20558e-05 1.69661e-05 0)
(1.39403e-05 8.91025e-06 0)
(1.4355e-05 9.32167e-06 0)
(1.47691e-05 9.72852e-06 0)
(1.51752e-05 1.01274e-05 0)
(1.55789e-05 1.05239e-05 0)
(1.5978e-05 1.09176e-05 0)
(1.63747e-05 1.13108e-05 0)
(1.67688e-05 1.17044e-05 0)
(1.71613e-05 1.20995e-05 0)
(1.75522e-05 1.2497e-05 0)
(1.79423e-05 1.28976e-05 0)
(1.83317e-05 1.33019e-05 0)
(1.87209e-05 1.37106e-05 0)
(1.91101e-05 1.41241e-05 0)
(1.94995e-05 1.45431e-05 0)
(1.98893e-05 1.49679e-05 0)
(2.02797e-05 1.53993e-05 0)
(2.06706e-05 1.58377e-05 0)
(2.1062e-05 1.62842e-05 0)
(2.14532e-05 1.67391e-05 0)
(1.28195e-05 8.36191e-06 0)
(1.32854e-05 8.79704e-06 0)
(1.3748e-05 9.22789e-06 0)
(1.41973e-05 9.64845e-06 0)
(1.46409e-05 1.00653e-05 0)
(1.50763e-05 1.04779e-05 0)
(1.55063e-05 1.08889e-05 0)
(1.59307e-05 1.12993e-05 0)
(1.63509e-05 1.17104e-05 0)
(1.67674e-05 1.2123e-05 0)
(1.71809e-05 1.25382e-05 0)
(1.75919e-05 1.29566e-05 0)
(1.80012e-05 1.33789e-05 0)
(1.8409e-05 1.38058e-05 0)
(1.88159e-05 1.4238e-05 0)
(1.92222e-05 1.4676e-05 0)
(1.96283e-05 1.51206e-05 0)
(2.00342e-05 1.55726e-05 0)
(2.04403e-05 1.60334e-05 0)
(2.08462e-05 1.65037e-05 0)
(1.1677e-05 7.74751e-06 0)
(1.21941e-05 8.21178e-06 0)
(1.27058e-05 8.67117e-06 0)
(1.31994e-05 9.11828e-06 0)
(1.3684e-05 9.55971e-06 0)
(1.41571e-05 9.99563e-06 0)
(1.46217e-05 1.04284e-05 0)
(1.5078e-05 1.08593e-05 0)
(1.55275e-05 1.12897e-05 0)
(1.59709e-05 1.17207e-05 0)
(1.64093e-05 1.21534e-05 0)
(1.68433e-05 1.25887e-05 0)
(1.72738e-05 1.30272e-05 0)
(1.77014e-05 1.34699e-05 0)
(1.81267e-05 1.39173e-05 0)
(1.85504e-05 1.43704e-05 0)
(1.89729e-05 1.48299e-05 0)
(1.93947e-05 1.52969e-05 0)
(1.98161e-05 1.57731e-05 0)
(2.02375e-05 1.62592e-05 0)
(1.05299e-05 7.07279e-06 0)
(1.1097e-05 7.5719e-06 0)
(1.16564e-05 8.06335e-06 0)
(1.21946e-05 8.54155e-06 0)
(1.27201e-05 9.01115e-06 0)
(1.32312e-05 9.47376e-06 0)
(1.37308e-05 9.93147e-06 0)
(1.42196e-05 1.0386e-05 0)
(1.4699e-05 1.08388e-05 0)
(1.51701e-05 1.12912e-05 0)
(1.5634e-05 1.17443e-05 0)
(1.60917e-05 1.2199e-05 0)
(1.6544e-05 1.26564e-05 0)
(1.6992e-05 1.31171e-05 0)
(1.74364e-05 1.35821e-05 0)
(1.78779e-05 1.40521e-05 0)
(1.83173e-05 1.45282e-05 0)
(1.87553e-05 1.50115e-05 0)
(1.91925e-05 1.55038e-05 0)
(1.96298e-05 1.6006e-05 0)
(9.39154e-06 6.3481e-06 0)
(1.0006e-05 6.88563e-06 0)
(1.06082e-05 7.41018e-06 0)
(1.11899e-05 7.92278e-06 0)
(1.17555e-05 8.42435e-06 0)
(1.2305e-05 8.91729e-06 0)
(1.28402e-05 9.40344e-06 0)
(1.3362e-05 9.88469e-06 0)
(1.3872e-05 1.03627e-05 0)
(1.43713e-05 1.0839e-05 0)
(1.48613e-05 1.13149e-05 0)
(1.53431e-05 1.17914e-05 0)
(1.58177e-05 1.22695e-05 0)
(1.62863e-05 1.27503e-05 0)
(1.67498e-05 1.32345e-05 0)
(1.72093e-05 1.37231e-05 0)
(1.76656e-05 1.42171e-05 0)
(1.81198e-05 1.47176e-05 0)
(1.85726e-05 1.52265e-05 0)
(1.90258e-05 1.57448e-05 0)
(8.51312e-06 5.80456e-06 0)
(9.15392e-06 6.37004e-06 0)
(9.77868e-06 6.91334e-06 0)
(1.0384e-05 7.44557e-06 0)
(1.09724e-05 7.9667e-06 0)
(1.1544e-05 8.479e-06 0)
(1.21002e-05 8.98416e-06 0)
(1.2642e-05 9.48386e-06 0)
(1.31708e-05 9.97963e-06 0)
(1.36876e-05 1.04729e-05 0)
(1.41938e-05 1.09648e-05 0)
(1.46904e-05 1.14565e-05 0)
(1.51788e-05 1.19489e-05 0)
(1.56599e-05 1.2443e-05 0)
(1.61349e-05 1.29395e-05 0)
(1.66049e-05 1.34394e-05 0)
(1.7071e-05 1.39435e-05 0)
(1.75344e-05 1.44529e-05 0)
(1.79959e-05 1.49691e-05 0)
(1.8458e-05 1.54933e-05 0)
(7.92672e-06 5.47921e-06 0)
(8.56764e-06 6.04468e-06 0)
(9.19262e-06 6.59246e-06 0)
(9.79996e-06 7.13073e-06 0)
(1.03914e-05 7.65931e-06 0)
(1.09667e-05 8.17976e-06 0)
(1.15273e-05 8.69346e-06 0)
(1.20736e-05 9.20171e-06 0)
(1.2607e-05 9.70581e-06 0)
(1.31282e-05 1.02069e-05 0)
(1.36386e-05 1.07061e-05 0)
(1.41392e-05 1.12044e-05 0)
(1.4631e-05 1.17025e-05 0)
(1.51152e-05 1.22013e-05 0)
(1.55928e-05 1.27015e-05 0)
(1.60651e-05 1.32039e-05 0)
(1.6533e-05 1.37093e-05 0)
(1.6998e-05 1.42184e-05 0)
(1.7461e-05 1.47327e-05 0)
(1.79246e-05 1.52526e-05 0)
(7.40904e-06 5.16681e-06 0)
(8.03845e-06 5.73065e-06 0)
(8.65707e-06 6.28004e-06 0)
(9.25977e-06 6.82199e-06 0)
(9.84881e-06 7.35593e-06 0)
(1.04231e-05 7.88284e-06 0)
(1.09837e-05 8.40373e-06 0)
(1.15308e-05 8.91951e-06 0)
(1.20655e-05 9.43121e-06 0)
(1.25885e-05 9.9397e-06 0)
(1.31007e-05 1.04459e-05 0)
(1.36031e-05 1.09505e-05 0)
(1.40967e-05 1.14542e-05 0)
(1.45825e-05 1.19578e-05 0)
(1.50617e-05 1.24617e-05 0)
(1.55352e-05 1.29666e-05 0)
(1.60043e-05 1.34731e-05 0)
(1.64703e-05 1.39818e-05 0)
(1.69343e-05 1.44935e-05 0)
(1.73991e-05 1.50087e-05 0)
(6.94505e-06 4.86591e-06 0)
(7.55938e-06 5.42522e-06 0)
(8.16691e-06 5.97414e-06 0)
(8.76063e-06 6.51826e-06 0)
(9.34303e-06 7.05629e-06 0)
(9.9123e-06 7.58866e-06 0)
(1.04693e-05 8.11588e-06 0)
(1.10141e-05 8.63851e-06 0)
(1.15472e-05 9.15722e-06 0)
(1.20692e-05 9.67264e-06 0)
(1.2581e-05 1.01854e-05 0)
(1.30833e-05 1.06961e-05 0)
(1.3577e-05 1.12053e-05 0)
(1.40631e-05 1.17134e-05 0)
(1.45426e-05 1.22209e-05 0)
(1.50166e-05 1.27282e-05 0)
(1.5486e-05 1.32356e-05 0)
(1.59525e-05 1.37437e-05 0)
(1.6417e-05 1.42527e-05 0)
(1.68823e-05 1.47628e-05 0)
(6.52943e-06 4.5797e-06 0)
(7.12528e-06 5.13279e-06 0)
(7.71788e-06 5.67945e-06 0)
(8.29897e-06 6.2239e-06 0)
(8.87121e-06 6.76433e-06 0)
(9.43216e-06 7.30066e-06 0)
(9.98257e-06 7.83293e-06 0)
(1.0522e-05 8.36131e-06 0)
(1.1051e-05 8.88613e-06 0)
(1.15698e-05 9.40774e-06 0)
(1.20791e-05 9.92651e-06 0)
(1.25796e-05 1.04428e-05 0)
(1.30719e-05 1.0957e-05 0)
(1.3557e-05 1.14694e-05 0)
(1.40358e-05 1.19802e-05 0)
(1.45093e-05 1.24897e-05 0)
(1.49785e-05 1.29981e-05 0)
(1.54445e-05 1.35053e-05 0)
(1.59093e-05 1.40112e-05 0)
(1.6375e-05 1.4516e-05 0)
(6.15417e-06 4.30802e-06 0)
(6.72968e-06 4.85331e-06 0)
(7.30487e-06 5.39615e-06 0)
(7.87081e-06 5.93946e-06 0)
(8.43019e-06 6.4809e-06 0)
(8.98021e-06 7.01995e-06 0)
(9.52145e-06 7.55614e-06 0)
(1.00532e-05 8.08927e-06 0)
(1.05758e-05 8.61931e-06 0)
(1.10894e-05 9.14633e-06 0)
(1.15945e-05 9.67045e-06 0)
(1.20915e-05 1.01918e-05 0)
(1.25811e-05 1.07106e-05 0)
(1.30641e-05 1.12269e-05 0)
(1.35412e-05 1.17407e-05 0)
(1.40134e-05 1.22522e-05 0)
(1.44816e-05 1.27612e-05 0)
(1.49472e-05 1.32673e-05 0)
(1.5411e-05 1.37703e-05 0)
(1.58758e-05 1.427e-05 0)
(5.8128e-06 4.05108e-06 0)
(6.36681e-06 4.58765e-06 0)
(6.92281e-06 5.12553e-06 0)
(7.47174e-06 5.66644e-06 0)
(8.01622e-06 6.20762e-06 0)
(8.55326e-06 6.74814e-06 0)
(9.0833e-06 7.28709e-06 0)
(9.60545e-06 7.82391e-06 0)
(1.01199e-05 8.35822e-06 0)
(1.06266e-05 8.8898e-06 0)
(1.11258e-05 9.41851e-06 0)
(1.16181e-05 9.94428e-06 0)
(1.21037e-05 1.04671e-05 0)
(1.25835e-05 1.09868e-05 0)
(1.30581e-05 1.15033e-05 0)
(1.35283e-05 1.20164e-05 0)
(1.39949e-05 1.25258e-05 0)
(1.44592e-05 1.30311e-05 0)
(1.4922e-05 1.35313e-05 0)
(1.53857e-05 1.40259e-05 0)
(5.49894e-06 3.80825e-06 0)
(6.03087e-06 4.3355e-06 0)
(6.56662e-06 4.86759e-06 0)
(7.0973e-06 5.40511e-06 0)
(7.62543e-06 5.94502e-06 0)
(8.14795e-06 6.48597e-06 0)
(8.66521e-06 7.02666e-06 0)
(9.17618e-06 7.56618e-06 0)
(9.68094e-06 8.10383e-06 0)
(1.01793e-05 8.63912e-06 0)
(1.06715e-05 9.17165e-06 0)
(1.11577e-05 9.70114e-06 0)
(1.16385e-05 1.02273e-05 0)
(1.21142e-05 1.07499e-05 0)
(1.25854e-05 1.12687e-05 0)
(1.30529e-05 1.17832e-05 0)
(1.35174e-05 1.22929e-05 0)
(1.39801e-05 1.27972e-05 0)
(1.44414e-05 1.32948e-05 0)
(1.49036e-05 1.3785e-05 0)
(5.2069e-06 3.57881e-06 0)
(5.71654e-06 4.09656e-06 0)
(6.2314e-06 4.62236e-06 0)
(6.74301e-06 5.1558e-06 0)
(7.25375e-06 5.69361e-06 0)
(7.76063e-06 6.2341e-06 0)
(8.2639e-06 6.7756e-06 0)
(8.76251e-06 7.31691e-06 0)
(9.25641e-06 7.85701e-06 0)
(9.74533e-06 8.39516e-06 0)
(1.02294e-05 8.93073e-06 0)
(1.07087e-05 9.46321e-06 0)
(1.11836e-05 9.99215e-06 0)
(1.16545e-05 1.05171e-05 0)
(1.21218e-05 1.10377e-05 0)
(1.25861e-05 1.15532e-05 0)
(1.3048e-05 1.20631e-05 0)
(1.35085e-05 1.25665e-05 0)
(1.3968e-05 1.30618e-05 0)
(1.44283e-05 1.35481e-05 0)
(4.93141e-06 3.36189e-06 0)
(5.41875e-06 3.87025e-06 0)
(5.9124e-06 4.38951e-06 0)
(6.40443e-06 4.91841e-06 0)
(6.89709e-06 5.45352e-06 0)
(7.38754e-06 5.99283e-06 0)
(7.87597e-06 6.53436e-06 0)
(8.36131e-06 7.07662e-06 0)
(8.84346e-06 7.61835e-06 0)
(9.32207e-06 8.15855e-06 0)
(9.79718e-06 8.69637e-06 0)
(1.02688e-05 9.23112e-06 0)
(1.07372e-05 9.76217e-06 0)
(1.12027e-05 1.02889e-05 0)
(1.16655e-05 1.08108e-05 0)
(1.21262e-05 1.13272e-05 0)
(1.25852e-05 1.18371e-05 0)
(1.30432e-05 1.23396e-05 0)
(1.35006e-05 1.2833e-05 0)
(1.39587e-05 1.33163e-05 0)
(4.66765e-06 3.15663e-06 0)
(5.13277e-06 3.65596e-06 0)
(5.60504e-06 4.16867e-06 0)
(6.07719e-06 4.69279e-06 0)
(6.55132e-06 5.22476e-06 0)
(7.02481e-06 5.76231e-06 0)
(7.49779e-06 6.30318e-06 0)
(7.96924e-06 6.84566e-06 0)
(8.43901e-06 7.38825e-06 0)
(8.90671e-06 7.92973e-06 0)
(9.37229e-06 8.46906e-06 0)
(9.83572e-06 9.00537e-06 0)
(1.02971e-05 9.53788e-06 0)
(1.07567e-05 1.00659e-05 0)
(1.12146e-05 1.05886e-05 0)
(1.16713e-05 1.11054e-05 0)
(1.21271e-05 1.16152e-05 0)
(1.25824e-05 1.2117e-05 0)
(1.30375e-05 1.2609e-05 0)
(1.34932e-05 1.30901e-05 0)
(4.41107e-06 2.96233e-06 0)
(4.85404e-06 3.45314e-06 0)
(5.30486e-06 3.95943e-06 0)
(5.75696e-06 4.47869e-06 0)
(6.2123e-06 5.00722e-06 0)
(6.66849e-06 5.54254e-06 0)
(7.12566e-06 6.08218e-06 0)
(7.58284e-06 6.62423e-06 0)
(8.03983e-06 7.16696e-06 0)
(8.49622e-06 7.70899e-06 0)
(8.95191e-06 8.24911e-06 0)
(9.40678e-06 8.78629e-06 0)
(9.86086e-06 9.31962e-06 0)
(1.03142e-05 9.84828e-06 0)
(1.07671e-05 1.03715e-05 0)
(1.12196e-05 1.08883e-05 0)
(1.16719e-05 1.13979e-05 0)
(1.21244e-05 1.18991e-05 0)
(1.2577e-05 1.23901e-05 0)
(1.30302e-05 1.28699e-05 0)
(4.15728e-06 2.7783e-06 0)
(4.57811e-06 3.26121e-06 0)
(5.00741e-06 3.76136e-06 0)
(5.43937e-06 4.27576e-06 0)
(5.87578e-06 4.80067e-06 0)
(6.31454e-06 5.33339e-06 0)
(6.75574e-06 5.8713e-06 0)
(7.19848e-06 6.41231e-06 0)
(7.64253e-06 6.95454e-06 0)
(8.08746e-06 7.49644e-06 0)
(8.53311e-06 8.03666e-06 0)
(8.97928e-06 8.57405e-06 0)
(9.42592e-06 9.10758e-06 0)
(9.87303e-06 9.63635e-06 0)
(1.03206e-05 1.01595e-05 0)
(1.07689e-05 1.06761e-05 0)
(1.12177e-05 1.11853e-05 0)
(1.16672e-05 1.16859e-05 0)
(1.21174e-05 1.21765e-05 0)
(1.2568e-05 1.26559e-05 0)
(3.90199e-06 2.60428e-06 0)
(4.30057e-06 3.07993e-06 0)
(4.70827e-06 3.57422e-06 0)
(5.12003e-06 4.08383e-06 0)
(5.53749e-06 4.60493e-06 0)
(5.95882e-06 5.13473e-06 0)
(6.38407e-06 5.67044e-06 0)
(6.81242e-06 6.20985e-06 0)
(7.2436e-06 6.75096e-06 0)
(7.67716e-06 7.29207e-06 0)
(8.11285e-06 7.83173e-06 0)
(8.55042e-06 8.36868e-06 0)
(8.98971e-06 8.90182e-06 0)
(9.43061e-06 9.43015e-06 0)
(9.87306e-06 9.95277e-06 0)
(1.0317e-05 1.04688e-05 0)
(1.07624e-05 1.09774e-05 0)
(1.1209e-05 1.14776e-05 0)
(1.16567e-05 1.19681e-05 0)
(1.21049e-05 1.24479e-05 0)
(3.64069e-06 2.43979e-06 0)
(4.01679e-06 2.90881e-06 0)
(4.40277e-06 3.39752e-06 0)
(4.79433e-06 3.90241e-06 0)
(5.19293e-06 4.41958e-06 0)
(5.59699e-06 4.94614e-06 0)
(6.00653e-06 5.47922e-06 0)
(6.42077e-06 6.01651e-06 0)
(6.83939e-06 6.5559e-06 0)
(7.26191e-06 7.09561e-06 0)
(7.68799e-06 7.6341e-06 0)
(8.1173e-06 8.17001e-06 0)
(8.54956e-06 8.70218e-06 0)
(8.98456e-06 9.22958e-06 0)
(9.42209e-06 9.75127e-06 0)
(9.86198e-06 1.02664e-05 0)
(1.0304e-05 1.07743e-05 0)
(1.07479e-05 1.1274e-05 0)
(1.11933e-05 1.17646e-05 0)
(1.16393e-05 1.22456e-05 0)
(3.36877e-06 2.28537e-06 0)
(3.72204e-06 2.7482e-06 0)
(4.08614e-06 3.23149e-06 0)
(4.45755e-06 3.73158e-06 0)
(4.8375e-06 4.24457e-06 0)
(5.22464e-06 4.76749e-06 0)
(5.61891e-06 5.29744e-06 0)
(6.01956e-06 5.83203e-06 0)
(6.42621e-06 6.36908e-06 0)
(6.8383e-06 6.90676e-06 0)
(7.2554e-06 7.44344e-06 0)
(7.67707e-06 7.97772e-06 0)
(8.1029e-06 8.50838e-06 0)
(8.53255e-06 9.03436e-06 0)
(8.96566e-06 9.55472e-06 0)
(9.40192e-06 1.00687e-05 0)
(9.84101e-06 1.05755e-05 0)
(1.02825e-05 1.10747e-05 0)
(1.07258e-05 1.15656e-05 0)
(1.11698e-05 1.20481e-05 0)
(3.08084e-06 2.14019e-06 0)
(3.41086e-06 2.59723e-06 0)
(3.75297e-06 3.07517e-06 0)
(4.1044e-06 3.57037e-06 0)
(4.46609e-06 4.07891e-06 0)
(4.83688e-06 4.59782e-06 0)
(5.2166e-06 5.12416e-06 0)
(5.60449e-06 5.65551e-06 0)
(6.00006e-06 6.18965e-06 0)
(6.40268e-06 6.72472e-06 0)
(6.81178e-06 7.25904e-06 0)
(7.22677e-06 7.79116e-06 0)
(7.64712e-06 8.31984e-06 0)
(8.07229e-06 8.84398e-06 0)
(8.5018e-06 9.36265e-06 0)
(8.93514e-06 9.8751e-06 0)
(9.37185e-06 1.03807e-05 0)
(9.81132e-06 1.08792e-05 0)
(1.0253e-05 1.13704e-05 0)
(1.06955e-05 1.18547e-05 0)
(2.77158e-06 2.00656e-06 0)
(3.07791e-06 2.45766e-06 0)
(3.39798e-06 2.92988e-06 0)
(3.72976e-06 3.41968e-06 0)
(4.07379e-06 3.92315e-06 0)
(4.42907e-06 4.43735e-06 0)
(4.79525e-06 4.95934e-06 0)
(5.17152e-06 5.48669e-06 0)
(5.55725e-06 6.01719e-06 0)
(5.95168e-06 6.54893e-06 0)
(6.35408e-06 7.08022e-06 0)
(6.76372e-06 7.6096e-06 0)
(7.17987e-06 8.13579e-06 0)
(7.60182e-06 8.65768e-06 0)
(8.02888e-06 9.17434e-06 0)
(8.46035e-06 9.68504e-06 0)
(8.89557e-06 1.01893e-05 0)
(9.3338e-06 1.06869e-05 0)
(9.7743e-06 1.11781e-05 0)
(1.02159e-05 1.16639e-05 0)
(2.43318e-06 1.88127e-06 0)
(2.7155e-06 2.32632e-06 0)
(3.01377e-06 2.79255e-06 0)
(3.32654e-06 3.27657e-06 0)
(3.65394e-06 3.77452e-06 0)
(3.99498e-06 4.28351e-06 0)
(4.3491e-06 4.80062e-06 0)
(4.71537e-06 5.32343e-06 0)
(5.09298e-06 5.84975e-06 0)
(5.481e-06 6.37766e-06 0)
(5.87853e-06 6.90546e-06 0)
(6.28464e-06 7.43168e-06 0)
(6.69841e-06 7.95503e-06 0)
(7.11892e-06 8.4744e-06 0)
(7.54526e-06 8.98885e-06 0)
(7.97647e-06 9.49766e-06 0)
(8.41166e-06 1.00004e-05 0)
(8.84983e-06 1.0497e-05 0)
(9.2901e-06 1.0988e-05 0)
(9.73128e-06 1.14748e-05 0)
(2.06123e-06 1.77169e-06 0)
(2.31939e-06 2.20926e-06 0)
(2.59638e-06 2.66801e-06 0)
(2.89106e-06 3.14478e-06 0)
(3.20312e-06 3.6358e-06 0)
(3.53148e-06 4.13822e-06 0)
(3.8753e-06 4.64918e-06 0)
(4.23347e-06 5.16627e-06 0)
(4.60495e-06 5.68731e-06 0)
(4.98861e-06 6.2104e-06 0)
(5.38335e-06 6.73384e-06 0)
(5.78802e-06 7.25617e-06 0)
(6.20152e-06 7.77609e-06 0)
(6.62269e-06 8.29248e-06 0)
(7.05037e-06 8.80444e-06 0)
(7.48336e-06 9.31126e-06 0)
(7.92042e-06 9.81249e-06 0)
(8.36022e-06 1.03081e-05 0)
(8.8016e-06 1.07987e-05 0)
(9.24308e-06 1.12858e-05 0)
(2.96734e-07 3.15854e-08 0)
(8.96278e-07 1.96411e-07 0)
(1.53358e-06 5.04552e-07 0)
(2.21687e-06 9.35329e-07 0)
(2.95935e-06 1.47699e-06 0)
(3.76513e-06 2.11016e-06 0)
(4.63739e-06 2.81417e-06 0)
(5.57459e-06 3.5674e-06 0)
(6.57389e-06 4.34801e-06 0)
(7.63e-06 5.13811e-06 0)
(2.79496e-07 2.82162e-08 0)
(8.44835e-07 1.76302e-07 0)
(1.44425e-06 4.56036e-07 0)
(2.0841e-06 8.50676e-07 0)
(2.77642e-06 1.35138e-06 0)
(3.52503e-06 1.94186e-06 0)
(4.33321e-06 2.6042e-06 0)
(5.19955e-06 3.31932e-06 0)
(6.12082e-06 4.06624e-06 0)
(7.0915e-06 4.83077e-06 0)
(2.63995e-07 2.42109e-08 0)
(7.98668e-07 1.55906e-07 0)
(1.36454e-06 4.09083e-07 0)
(1.96588e-06 7.70003e-07 0)
(2.61339e-06 1.23204e-06 0)
(3.31031e-06 1.7814e-06 0)
(4.06019e-06 2.40248e-06 0)
(4.86245e-06 3.07885e-06 0)
(5.71586e-06 3.79148e-06 0)
(6.61448e-06 4.53027e-06 0)
(2.49813e-07 1.95681e-08 0)
(7.56612e-07 1.3544e-07 0)
(1.2928e-06 3.64647e-07 0)
(1.86072e-06 6.95598e-07 0)
(2.46993e-06 1.12329e-06 0)
(3.12283e-06 1.63585e-06 0)
(3.82269e-06 2.21933e-06 0)
(4.56857e-06 2.85908e-06 0)
(5.36061e-06 3.53706e-06 0)
(6.19159e-06 4.24452e-06 0)
(2.36554e-07 1.42284e-08 0)
(7.17353e-07 1.14164e-07 0)
(1.22629e-06 3.20646e-07 0)
(1.76394e-06 6.23682e-07 0)
(2.33886e-06 1.01947e-06 0)
(2.95263e-06 1.49766e-06 0)
(3.60853e-06 2.0458e-06 0)
(4.30521e-06 2.65089e-06 0)
(5.04421e-06 3.29642e-06 0)
(5.81604e-06 3.97353e-06 0)
(2.24109e-07 8.29107e-09 0)
(6.80563e-07 9.22378e-08 0)
(1.16441e-06 2.77336e-07 0)
(1.67462e-06 5.54761e-07 0)
(2.21889e-06 9.21565e-07 0)
(2.79794e-06 1.36852e-06 0)
(3.4149e-06 1.88425e-06 0)
(4.0678e-06 2.45681e-06 0)
(4.75951e-06 3.07116e-06 0)
(5.47899e-06 3.71784e-06 0)
(2.12228e-07 1.72365e-09 0)
(6.45463e-07 6.93358e-08 0)
(1.10567e-06 2.33784e-07 0)
(1.59039e-06 4.87112e-07 0)
(2.10661e-06 8.27006e-07 0)
(2.65427e-06 1.24509e-06 0)
(3.23644e-06 1.73096e-06 0)
(3.85056e-06 2.27345e-06 0)
(4.50037e-06 2.85897e-06 0)
(5.17378e-06 3.47704e-06 0)
(2.00817e-07 -5.38493e-09 0)
(6.11762e-07 4.55622e-08 0)
(1.0495e-06 1.90029e-07 0)
(1.5103e-06 4.20697e-07 0)
(2.00052e-06 7.3569e-07 0)
(2.51941e-06 1.12723e-06 0)
(3.06994e-06 1.58565e-06 0)
(3.6491e-06 2.10029e-06 0)
(4.26122e-06 2.65892e-06 0)
(4.89384e-06 3.25019e-06 0)
(1.8973e-07 -1.30373e-08 0)
(5.79021e-07 2.07873e-08 0)
(9.95099e-07 1.45655e-07 0)
(1.43307e-06 3.54726e-07 0)
(1.89878e-06 6.46424e-07 0)
(2.39089e-06 1.0134e-06 0)
(2.91227e-06 1.44659e-06 0)
(3.45961e-06 1.93567e-06 0)
(4.03748e-06 2.46957e-06 0)
(4.63362e-06 3.03625e-06 0)
(1.78887e-07 -2.11842e-08 0)
(5.46995e-07 -4.93936e-09 0)
(9.4199e-07 1.00627e-07 0)
(1.35791e-06 2.89042e-07 0)
(1.80016e-06 5.58902e-07 0)
(2.26689e-06 9.03116e-07 0)
(2.76088e-06 1.31308e-06 0)
(3.27874e-06 1.77871e-06 0)
(3.82503e-06 2.28984e-06 0)
(4.38808e-06 2.83408e-06 0)
(1.68198e-07 -2.98247e-08 0)
(5.15425e-07 -3.16782e-08 0)
(8.89698e-07 5.47427e-08 0)
(1.28405e-06 2.2327e-07 0)
(1.70346e-06 4.72551e-07 0)
(2.14574e-06 7.95632e-07 0)
(2.61355e-06 1.18422e-06 0)
(3.10357e-06 1.62839e-06 0)
(3.62023e-06 2.11871e-06 0)
(4.15273e-06 2.64263e-06 0)
(1.57606e-07 -3.89395e-08 0)
(4.84152e-07 -5.94289e-08 0)
(8.37902e-07 7.94749e-09 0)
(1.21089e-06 1.57302e-07 0)
(1.60773e-06 3.87179e-07 0)
(2.02599e-06 6.90641e-07 0)
(2.46825e-06 1.05957e-06 0)
(2.93144e-06 1.48415e-06 0)
(3.41974e-06 1.95548e-06 0)
(3.92343e-06 2.46109e-06 0)
(1.47075e-07 -4.85523e-08 0)
(4.53106e-07 -8.82812e-08 0)
(7.86396e-07 -3.99113e-08 0)
(1.13799e-06 9.09378e-08 0)
(1.51213e-06 3.02527e-07 0)
(1.90632e-06 5.87808e-07 0)
(2.32311e-06 9.38692e-07 0)
(2.75982e-06 1.34544e-06 0)
(3.22039e-06 1.79953e-06 0)
(3.69624e-06 2.28871e-06 0)
(1.36603e-07 -5.87423e-08 0)
(4.22332e-07 -1.18337e-07 0)
(7.35105e-07 -8.88792e-08 0)
(1.065e-06 2.42398e-08 0)
(1.41592e-06 2.18724e-07 0)
(1.78549e-06 4.87266e-07 0)
(2.17633e-06 8.21673e-07 0)
(2.58629e-06 1.21224e-06 0)
(3.01907e-06 1.65076e-06 0)
(3.46732e-06 2.12524e-06 0)
(1.26286e-07 -6.96596e-08 0)
(3.92205e-07 -1.49857e-07 0)
(6.84302e-07 -1.39195e-07 0)
(9.9185e-07 -4.29515e-08 0)
(1.3185e-06 1.35676e-07 0)
(1.66229e-06 3.88932e-07 0)
(2.02604e-06 7.08393e-07 0)
(2.40826e-06 1.08437e-06 0)
(2.81249e-06 1.50885e-06 0)
(3.23266e-06 1.97024e-06 0)
(1.1632e-07 -8.18109e-08 0)
(3.63337e-07 -1.83215e-07 0)
(6.34441e-07 -1.90763e-07 0)
(9.18558e-07 -1.10032e-07 0)
(1.21929e-06 5.43231e-08 0)
(1.53545e-06 2.93905e-07 0)
(1.87028e-06 5.99966e-07 0)
(2.22309e-06 9.62846e-07 0)
(2.5973e-06 1.37472e-06 0)
(2.98816e-06 1.82444e-06 0)
(1.07445e-07 -9.57958e-08 0)
(3.37634e-07 -2.19164e-07 0)
(5.87104e-07 -2.44089e-07 0)
(8.458e-07 -1.77346e-07 0)
(1.11789e-06 -2.55501e-08 0)
(1.40356e-06 2.01971e-07 0)
(1.7067e-06 4.96129e-07 0)
(2.02752e-06 8.47297e-07 0)
(2.36941e-06 1.24785e-06 0)
(2.7289e-06 1.68714e-06 0)
(1.0123e-07 -1.14208e-07 0)
(3.17309e-07 -2.58865e-07 0)
(5.43813e-07 -2.98105e-07 0)
(7.73901e-07 -2.42211e-07 0)
(1.0136e-06 -1.00503e-07 0)
(1.26493e-06 1.16848e-07 0)
(1.53273e-06 4.00545e-07 0)
(1.81819e-06 7.41186e-07 0)
(2.12468e-06 1.13141e-06 0)
(2.45001e-06 1.56114e-06 0)
(1.05327e-07 -1.38948e-07 0)
(3.10607e-07 -3.03747e-07 0)
(5.0982e-07 -3.53833e-07 0)
(7.04696e-07 -3.06177e-07 0)
(9.05591e-07 -1.72412e-07 0)
(1.11681e-06 3.62962e-08 0)
(1.34419e-06 3.107e-07 0)
(1.58971e-06 6.41732e-07 0)
(1.85673e-06 1.0224e-06 0)
(2.14412e-06 1.44325e-06 0)
(1.35928e-07 -1.83734e-07 0)
(3.22719e-07 -3.54857e-07 0)
(4.8762e-07 -4.042e-07 0)
(6.37945e-07 -3.58256e-07 0)
(7.9262e-07 -2.296e-07 0)
(9.57107e-07 -2.81169e-08 0)
(1.13842e-06 2.37597e-07 0)
(1.33888e-06 5.59259e-07 0)
(1.56193e-06 9.30331e-07 0)
(1.80703e-06 1.34209e-06 0)
)
;

boundaryField
{
    left
    {
        type            fixedDisplacement;
        value           uniform (0 0 0);
    }
    right
    {
        type            solidTraction;
        tractionSeries  
{
        file            "$FOAM_CASE/constant/timeVsTraction";
        outOfBounds     clamp;
}
        pressure        uniform 0;
        secondOrder     false;
        setEffectiveTraction false;
        relaxationFactor 1;
        value           nonuniform List<vector> 
30
(
(2.4565e-05 1.80199e-05 -1.0016e-20)
(2.39922e-05 1.78135e-05 -1.00762e-20)
(2.34144e-05 1.76085e-05 -1.01822e-20)
(2.28299e-05 1.74012e-05 -1.03264e-20)
(2.22389e-05 1.71892e-05 -1.05094e-20)
(2.16425e-05 1.69704e-05 -1.07322e-20)
(2.1043e-05 1.67435e-05 -1.0997e-20)
(2.04428e-05 1.65077e-05 -1.1306e-20)
(1.98445e-05 1.62632e-05 -1.16612e-20)
(1.92508e-05 1.60104e-05 -1.20651e-20)
(1.86892e-05 1.57618e-05 -1.22702e-20)
(1.81567e-05 1.55173e-05 -1.22216e-20)
(1.76317e-05 1.52693e-05 -1.21895e-20)
(1.71152e-05 1.50187e-05 -1.21732e-20)
(1.66079e-05 1.47676e-05 -1.21755e-20)
(1.61085e-05 1.45173e-05 -1.21951e-20)
(1.56178e-05 1.4269e-05 -1.22294e-20)
(1.51349e-05 1.40243e-05 -1.22781e-20)
(1.46587e-05 1.37843e-05 -1.23385e-20)
(1.41879e-05 1.355e-05 -1.24082e-20)
(1.37211e-05 1.33222e-05 -1.24841e-20)
(1.32568e-05 1.31012e-05 -1.25632e-20)
(1.27933e-05 1.28872e-05 -1.26418e-20)
(1.23289e-05 1.26801e-05 -1.27164e-20)
(1.18622e-05 1.24793e-05 -1.27831e-20)
(1.13918e-05 1.2284e-05 -1.28392e-20)