/*--------------------------------*- C++ -*----------------------------------*\
  =========                 |
  \\      /  F ield         | OpenFOAM: The Open Source CFD Toolbox
   \\    /   O peration     | Website:  https://openfoam.org
    \\  /    A nd           | Version:  9
     \\/     M anipulation  |
\*---------------------------------------------------------------------------*/
FoamFile
{
    format      ascii;
    class       volVectorField;
    location    "15";
    object      D_0;
}
// * * * * * * * * * * * * * * * * * * * * * * * * * * * * * * * * * * * * * //

dimensions      [0 1 0 0 0 0 0];

internalField   nonuniform List<vector> 
1000
(
(9.46771e-06 3.18246e-06 0)
(8.83436e-06 3.5131e-06 0)
(8.37325e-06 3.79279e-06 0)
(8.03982e-06 4.01087e-06 0)
(7.80194e-06 4.1993e-06 0)
(7.63401e-06 4.36134e-06 0)
(7.52031e-06 4.50737e-06 0)
(7.44806e-06 4.64035e-06 0)
(7.40727e-06 4.76442e-06 0)
(7.39282e-06 4.88203e-06 0)
(8.53213e-06 2.87033e-06 0)
(7.87438e-06 3.10941e-06 0)
(7.39857e-06 3.32121e-06 0)
(7.05605e-06 3.48412e-06 0)
(6.81218e-06 3.62736e-06 0)
(6.63939e-06 3.75053e-06 0)
(6.52103e-06 3.86225e-06 0)
(6.44352e-06 3.96443e-06 0)
(6.39662e-06 4.05923e-06 0)
(6.37339e-06 4.15172e-06 0)
(7.5746e-06 2.55432e-06 0)
(6.91191e-06 2.698e-06 0)
(6.43459e-06 2.8391e-06 0)
(6.09302e-06 2.94676e-06 0)
(5.85064e-06 3.04567e-06 0)
(5.67889e-06 3.13175e-06 0)
(5.56047e-06 3.21141e-06 0)
(5.48152e-06 3.28526e-06 0)
(5.43171e-06 3.3536e-06 0)
(5.40376e-06 3.42212e-06 0)
(6.60346e-06 2.2429e-06 0)
(5.95374e-06 2.28913e-06 0)
(5.48891e-06 2.35883e-06 0)
(5.15862e-06 2.41239e-06 0)
(4.92562e-06 2.46911e-06 0)
(4.76112e-06 2.52078e-06 0)
(4.64767e-06 2.57144e-06 0)
(4.57129e-06 2.61997e-06 0)
(4.52226e-06 2.66518e-06 0)
(4.49261e-06 2.71229e-06 0)
(5.6216e-06 1.94408e-06 0)
(5.00274e-06 1.89225e-06 0)
(4.56524e-06 1.89311e-06 0)
(4.25708e-06 1.89555e-06 0)
(4.04213e-06 1.91403e-06 0)
(3.89143e-06 1.93546e-06 0)
(3.78799e-06 1.96138e-06 0)
(3.71811e-06 1.98864e-06 0)
(3.67293e-06 2.0148e-06 0)
(3.64424e-06 2.04385e-06 0)
(4.62935e-06 1.65326e-06 0)
(4.06123e-06 1.5124e-06 0)
(3.66569e-06 1.45011e-06 0)
(3.39171e-06 1.4087e-06 0)
(3.2038e-06 1.39526e-06 0)
(3.07354e-06 1.39269e-06 0)
(2.98499e-06 1.39951e-06 0)
(2.92522e-06 1.41069e-06 0)
(2.88655e-06 1.42269e-06 0)
(2.86096e-06 1.43801e-06 0)
(3.62256e-06 1.37023e-06 0)
(3.12586e-06 1.15154e-06 0)
(2.78946e-06 1.03852e-06 0)
(2.56269e-06 9.64471e-07 0)
(2.41095e-06 9.28752e-07 0)
(2.30747e-06 9.10385e-07 0)
(2.23809e-06 9.05006e-07 0)
(2.19138e-06 9.06011e-07 0)
(2.16118e-06 9.09179e-07 0)
(2.14035e-06 9.15466e-07 0)
(2.61472e-06 1.08708e-06 0)
(2.20215e-06 8.0884e-07 0)
(1.94355e-06 6.65746e-07 0)
(1.77511e-06 5.75914e-07 0)
(1.66697e-06 5.31053e-07 0)
(1.5945e-06 5.07054e-07 0)
(1.54677e-06 4.97295e-07 0)
(1.51465e-06 4.94412e-07 0)
(1.49384e-06 4.94075e-07 0)
(1.47875e-06 4.96112e-07 0)
(1.57653e-06 7.79979e-07 0)
(1.28546e-06 4.86116e-07 0)
(1.12515e-06 3.38823e-07 0)
(1.02532e-06 2.58819e-07 0)
(9.65949e-07 2.20412e-07 0)
(9.26643e-07 2.01567e-07 0)
(9.01345e-07 1.94319e-07 0)
(8.84024e-07 1.92418e-07 0)
(8.72606e-07 1.92305e-07 0)
(8.63615e-07 1.93467e-07 0)
(5.5107e-07 4.01579e-07 0)
(4.0894e-07 1.89873e-07 0)
(3.59199e-07 9.01944e-08 0)
(3.3229e-07 5.16573e-08 0)
(3.16424e-07 3.4659e-08 0)
(3.05534e-07 2.88133e-08 0)
(2.98288e-07 2.75253e-08 0)
(2.93046e-07 2.82956e-08 0)
(2.89419e-07 2.93449e-08 0)
(2.86238e-07 3.06228e-08 0)
(1.66931e-05 5.15328e-06 0)
(1.66653e-05 5.79431e-06 0)
(1.66461e-05 6.39157e-06 0)
(1.66466e-05 6.93835e-06 0)
(1.66715e-05 7.44028e-06 0)
(1.67227e-05 7.9036e-06 0)
(1.68005e-05 8.33552e-06 0)
(1.69032e-05 8.74232e-06 0)
(1.703e-05 9.12893e-06 0)
(1.71776e-05 9.50087e-06 0)
(1.61696e-05 5.11091e-06 0)
(1.60952e-05 5.75008e-06 0)
(1.60445e-05 6.34006e-06 0)
(1.6022e-05 6.87582e-06 0)
(1.60301e-05 7.36429e-06 0)
(1.60673e-05 7.81211e-06 0)
(1.61324e-05 8.22719e-06 0)
(1.62224e-05 8.61615e-06 0)
(1.63359e-05 8.98414e-06 0)
(1.64686e-05 9.33741e-06 0)
(1.56144e-05 5.025e-06 0)
(1.54848e-05 5.66251e-06 0)
(1.53913e-05 6.24047e-06 0)
(1.53349e-05 6.75895e-06 0)
(1.53162e-05 7.22845e-06 0)
(1.53309e-05 7.65652e-06 0)
(1.53763e-05 8.05162e-06 0)
(1.54477e-05 8.42048e-06 0)
(1.55435e-05 8.76843e-06 0)
(1.56576e-05 9.10193e-06 0)
(1.50144e-05 4.90011e-06 0)
(1.48228e-05 5.53454e-06 0)
(1.46794e-05 6.09778e-06 0)
(1.45829e-05 6.59512e-06 0)
(1.45314e-05 7.0418e-06 0)
(1.45182e-05 7.44645e-06 0)
(1.45392e-05 7.81833e-06 0)
(1.45883e-05 8.16422e-06 0)
(1.46633e-05 8.48972e-06 0)
(1.47565e-05 8.80117e-06 0)
(1.43627e-05 4.73742e-06 0)
(1.41032e-05 5.3637e-06 0)
(1.39064e-05 5.90757e-06 0)
(1.37676e-05 6.37893e-06 0)
(1.36814e-05 6.79828e-06 0)
(1.36388e-05 7.17545e-06 0)
(1.3634e-05 7.52066e-06 0)
(1.36596e-05 7.84063e-06 0)
(1.37129e-05 8.14124e-06 0)
(1.37847e-05 8.42841e-06 0)
(1.36584e-05 4.54072e-06 0)
(1.3327e-05 5.15019e-06 0)
(1.30758e-05 5.6691e-06 0)
(1.28948e-05 6.10998e-06 0)
(1.27743e-05 6.4983e-06 0)
(1.27025e-05 6.84473e-06 0)
(1.26724e-05 7.16041e-06 0)
(1.26749e-05 7.45186e-06 0)
(1.27071e-05 7.72536e-06 0)
(1.2758e-05 7.98609e-06 0)
(1.29032e-05 4.31299e-06 0)
(1.24991e-05 4.89403e-06 0)
(1.21946e-05 5.38083e-06 0)
(1.19732e-05 5.78631e-06 0)
(1.18205e-05 6.14004e-06 0)
(1.17218e-05 6.45285e-06 0)
(1.16682e-05 6.73663e-06 0)
(1.16495e-05 6.99754e-06 0)
(1.1662e-05 7.24216e-06 0)
(1.16939e-05 7.47477e-06 0)
(1.21012e-05 4.0585e-06 0)
(1.16267e-05 4.59761e-06 0)
(1.12724e-05 5.04437e-06 0)
(1.10142e-05 5.40961e-06 0)
(1.08326e-05 5.7256e-06 0)
(1.071e-05 6.00255e-06 0)
(1.06357e-05 6.25274e-06 0)
(1.05984e-05 6.48165e-06 0)
(1.05935e-05 6.69618e-06 0)
(1.06089e-05 6.89923e-06 0)
(1.12574e-05 3.78168e-06 0)
(1.0719e-05 4.26465e-06 0)
(1.03205e-05 4.66315e-06 0)
(1.00305e-05 4.98338e-06 0)
(9.82448e-06 5.25884e-06 0)
(9.68192e-06 5.49825e-06 0)
(9.59033e-06 5.71372e-06 0)
(9.53763e-06 5.91004e-06 0)
(9.51778e-06 6.09362e-06 0)
(9.51974e-06 6.26673e-06 0)
(1.03775e-05 3.48769e-06 0)
(9.78513e-06 3.90073e-06 0)
(9.35037e-06 4.24323e-06 0)
(9.0348e-06 4.51416e-06 0)
(8.80969e-06 4.74689e-06 0)
(8.65174e-06 4.94772e-06 0)
(8.54681e-06 5.12828e-06 0)
(8.48219e-06 5.29197e-06 0)
(8.45045e-06 5.4451e-06 0)
(8.44287e-06 5.58635e-06 0)
(1.73541e-05 9.85863e-06 0)
(1.75567e-05 1.02137e-05 0)
(1.7775e-05 1.05631e-05 0)
(1.8007e-05 1.09084e-05 0)
(1.82516e-05 1.12515e-05 0)
(1.85075e-05 1.15933e-05 0)
(1.87735e-05 1.1935e-05 0)
(1.90484e-05 1.22773e-05 0)
(1.93315e-05 1.26211e-05 0)
(1.96217e-05 1.29669e-05 0)
(1.99182e-05 1.33153e-05 0)
(2.02201e-05 1.36666e-05 0)
(2.05269e-05 1.40213e-05 0)
(2.08376e-05 1.43797e-05 0)
(2.11517e-05 1.47418e-05 0)
(2.14684e-05 1.5108e-05 0)
(2.17871e-05 1.5478e-05 0)
(2.2107e-05 1.58516e-05 0)
(2.24275e-05 1.62281e-05 0)
(2.2748e-05 1.66065e-05 0)
(1.66526e-05 9.68162e-06 0)
(1.68802e-05 1.00308e-05 0)
(1.712e-05 1.03745e-05 0)
(1.73702e-05 1.07149e-05 0)
(1.76302e-05 1.10538e-05 0)
(1.78989e-05 1.1392e-05 0)
(1.81757e-05 1.17308e-05 0)
(1.84598e-05 1.20708e-05 0)
(1.87505e-05 1.24129e-05 0)
(1.9047e-05 1.27575e-05 0)
(1.93488e-05 1.31052e-05 0)
(1.96554e-05 1.34564e-05 0)
(1.9966e-05 1.38114e-05 0)
(2.02803e-05 1.41705e-05 0)
(2.05977e-05 1.4534e-05 0)
(2.09177e-05 1.49018e-05 0)
(2.12397e-05 1.5274e-05 0)
(2.15634e-05 1.56502e-05 0)
(2.18881e-05 1.60299e-05 0)
(2.22132e-05 1.64121e-05 0)
(1.58518e-05 9.43593e-06 0)
(1.61116e-05 9.78566e-06 0)
(1.63802e-05 1.01302e-05 0)
(1.66552e-05 1.04713e-05 0)
(1.69371e-05 1.0811e-05 0)
(1.72249e-05 1.11503e-05 0)
(1.75185e-05 1.14903e-05 0)
(1.78171e-05 1.18317e-05 0)
(1.81207e-05 1.21755e-05 0)
(1.84286e-05 1.2522e-05 0)
(1.87406e-05 1.2872e-05 0)
(1.90562e-05 1.32256e-05 0)
(1.93752e-05 1.35834e-05 0)
(1.96972e-05 1.39456e-05 0)
(2.00218e-05 1.43124e-05 0)
(2.03489e-05 1.46841e-05 0)
(2.06779e-05 1.50605e-05 0)
(2.10085e-05 1.54416e-05 0)
(2.13403e-05 1.58271e-05 0)
(2.16725e-05 1.62164e-05 0)
(1.49634e-05 9.12696e-06 0)
(1.52615e-05 9.48234e-06 0)
(1.55651e-05 9.83277e-06 0)
(1.58707e-05 1.0179e-05 0)
(1.61803e-05 1.0524e-05 0)
(1.64924e-05 1.08681e-05 0)
(1.68079e-05 1.12129e-05 0)
(1.71261e-05 1.15592e-05 0)
(1.74472e-05 1.19077e-05 0)
(1.77709e-05 1.22591e-05 0)
(1.80972e-05 1.26139e-05 0)
(1.84259e-05 1.29725e-05 0)
(1.8757e-05 1.33355e-05 0)
(1.90902e-05 1.37031e-05 0)
(1.94255e-05 1.40755e-05 0)
(1.97627e-05 1.44531e-05 0)
(2.01015e-05 1.4836e-05 0)
(2.04417e-05 1.52243e-05 0)
(2.07829e-05 1.56181e-05 0)
(2.11243e-05 1.60171e-05 0)
(1.40067e-05 8.74877e-06 0)
(1.43476e-05 9.11554e-06 0)
(1.46909e-05 9.47768e-06 0)
(1.50315e-05 9.83428e-06 0)
(1.5373e-05 1.01893e-05 0)
(1.57137e-05 1.05427e-05 0)
(1.6055e-05 1.08964e-05 0)
(1.63964e-05 1.12511e-05 0)
(1.67386e-05 1.16079e-05 0)
(1.70815e-05 1.19672e-05 0)
(1.74254e-05 1.23298e-05 0)
(1.77702e-05 1.26962e-05 0)
(1.81162e-05 1.30669e-05 0)
(1.84634e-05 1.34422e-05 0)
(1.88117e-05 1.38226e-05 0)
(1.91613e-05 1.42084e-05 0)
(1.9512e-05 1.45998e-05 0)
(1.98637e-05 1.49974e-05 0)
(2.02162e-05 1.54015e-05 0)
(2.05686e-05 1.58124e-05 0)
(1.29974e-05 8.30358e-06 0)
(1.33844e-05 8.68709e-06 0)
(1.37707e-05 9.06634e-06 0)
(1.41496e-05 9.43818e-06 0)
(1.45262e-05 9.80771e-06 0)
(1.48986e-05 1.01746e-05 0)
(1.52687e-05 1.05412e-05 0)
(1.56364e-05 1.0908e-05 0)
(1.60025e-05 1.12763e-05 0)
(1.63673e-05 1.16467e-05 0)
(1.67312e-05 1.202e-05 0)
(1.70946e-05 1.23969e-05 0)
(1.74577e-05 1.27777e-05 0)
(1.78208e-05 1.31632e-05 0)
(1.81841e-05 1.35537e-05 0)
(1.85478e-05 1.39496e-05 0)
(1.8912e-05 1.43517e-05 0)
(1.92767e-05 1.47603e-05 0)
(1.96419e-05 1.51765e-05 0)
(2.00069e-05 1.56007e-05 0)
(1.19521e-05 7.7922e-06 0)
(1.23868e-05 8.19784e-06 0)
(1.28184e-05 8.59948e-06 0)
(1.32376e-05 8.99151e-06 0)
(1.36516e-05 9.38002e-06 0)
(1.40578e-05 9.76464e-06 0)
(1.44589e-05 1.01478e-05 0)
(1.48549e-05 1.05302e-05 0)
(1.52469e-05 1.09133e-05 0)
(1.56355e-05 1.12979e-05 0)
(1.60213e-05 1.16849e-05 0)
(1.64048e-05 1.20748e-05 0)
(1.67866e-05 1.24684e-05 0)
(1.71671e-05 1.28663e-05 0)
(1.75468e-05 1.32691e-05 0)
(1.79259e-05 1.36773e-05 0)
(1.83047e-05 1.40917e-05 0)
(1.86835e-05 1.4513e-05 0)
(1.90623e-05 1.49426e-05 0)
(1.94411e-05 1.5381e-05 0)
(1.08866e-05 7.21921e-06 0)
(1.13691e-05 7.65204e-06 0)
(1.18465e-05 8.08031e-06 0)
(1.23071e-05 8.49711e-06 0)
(1.27592e-05 8.90859e-06 0)
(1.32006e-05 9.31491e-06 0)
(1.3634e-05 9.71829e-06 0)
(1.40598e-05 1.01199e-05 0)
(1.44792e-05 1.05211e-05 0)
(1.48929e-05 1.09228e-05 0)
(1.53019e-05 1.13261e-05 0)
(1.57068e-05 1.17317e-05 0)
(1.61085e-05 1.21404e-05 0)
(1.65074e-05 1.2553e-05 0)
(1.69043e-05 1.297e-05 0)
(1.72996e-05 1.33923e-05 0)
(1.76938e-05 1.38206e-05 0)
(1.80873e-05 1.42559e-05 0)
(1.84805e-05 1.46997e-05 0)
(1.88737e-05 1.51529e-05 0)
(9.81683e-06 6.58998e-06 0)
(1.03459e-05 7.05532e-06 0)
(1.08679e-05 7.5135e-06 0)
(1.137e-05 7.9593e-06 0)
(1.18603e-05 8.39706e-06 0)
(1.23373e-05 8.82828e-06 0)
(1.28034e-05 9.25492e-06 0)
(1.32594e-05 9.67856e-06 0)
(1.37067e-05 1.01006e-05 0)
(1.41462e-05 1.05222e-05 0)
(1.4579e-05 1.09445e-05 0)
(1.50061e-05 1.13684e-05 0)
(1.54282e-05 1.17946e-05 0)
(1.58461e-05 1.2224e-05 0)
(1.62607e-05 1.26574e-05 0)
(1.66727e-05 1.30955e-05 0)
(1.70826e-05 1.35392e-05 0)
(1.74913e-05 1.39897e-05 0)
(1.78992e-05 1.44485e-05 0)
(1.83073e-05 1.49167e-05 0)
(8.7553e-06 5.91416e-06 0)
(9.32858e-06 6.41535e-06 0)
(9.89047e-06 6.90441e-06 0)
(1.04332e-05 7.3823e-06 0)
(1.09609e-05 7.84987e-06 0)
(1.14736e-05 8.30939e-06 0)
(1.19729e-05 8.76254e-06 0)
(1.24598e-05 9.21111e-06 0)
(1.29356e-05 9.65667e-06 0)
(1.34015e-05 1.01006e-05 0)
(1.38587e-05 1.05441e-05 0)
(1.43081e-05 1.09882e-05 0)
(1.4751e-05 1.14339e-05 0)
(1.51882e-05 1.18819e-05 0)
(1.56207e-05 1.23332e-05 0)
(1.60494e-05 1.27886e-05 0)
(1.64751e-05 1.3249e-05 0)
(1.68989e-05 1.37155e-05 0)
(1.73215e-05 1.41898e-05 0)
(1.77443e-05 1.46729e-05 0)
(7.93644e-06 5.40731e-06 0)
(8.53424e-06 5.93456e-06 0)
(9.1171e-06 6.4411e-06 0)
(9.68184e-06 6.93729e-06 0)
(1.02308e-05 7.4231e-06 0)
(1.07641e-05 7.90066e-06 0)
(1.1283e-05 8.37154e-06 0)
(1.17886e-05 8.83731e-06 0)
(1.22819e-05 9.29941e-06 0)
(1.27641e-05 9.75913e-06 0)
(1.32364e-05 1.02176e-05 0)
(1.36998e-05 1.06759e-05 0)
(1.41554e-05 1.11349e-05 0)
(1.46043e-05 1.15953e-05 0)
(1.50475e-05 1.20581e-05 0)
(1.54861e-05 1.25239e-05 0)
(1.59209e-05 1.29938e-05 0)
(1.63533e-05 1.34685e-05 0)
(1.6784e-05 1.39497e-05 0)
(1.72151e-05 1.44382e-05 0)
(7.39004e-06 5.10399e-06 0)
(7.98791e-06 5.63118e-06 0)
(8.57096e-06 6.14187e-06 0)
(9.13756e-06 6.64367e-06 0)
(9.68932e-06 7.13642e-06 0)
(1.02261e-05 7.62157e-06 0)
(1.07491e-05 8.1004e-06 0)
(1.12588e-05 8.57414e-06 0)
(1.17564e-05 9.044e-06 0)
(1.22428e-05 9.51107e-06 0)
(1.2719e-05 9.97634e-06 0)
(1.3186e-05 1.04407e-05 0)
(1.36449e-05 1.0905e-05 0)
(1.40967e-05 1.13699e-05 0)
(1.45423e-05 1.18361e-05 0)
(1.4983e-05 1.23043e-05 0)
(1.54195e-05 1.27753e-05 0)
(1.58534e-05 1.32498e-05 0)
(1.62854e-05 1.37291e-05 0)
(1.67181e-05 1.42137e-05 0)
(6.90776e-06 4.81276e-06 0)
(7.49487e-06 5.3384e-06 0)
(8.07195e-06 5.85056e-06 0)
(8.6342e-06 6.35577e-06 0)
(9.18372e-06 6.8535e-06 0)
(9.71949e-06 7.34466e-06 0)
(1.02425e-05 7.83019e-06 0)
(1.0753e-05 8.31095e-06 0)
(1.12519e-05 8.78788e-06 0)
(1.17398e-05 9.26183e-06 0)
(1.22177e-05 9.73359e-06 0)
(1.26864e-05 1.02039e-05 0)
(1.3147e-05 1.06734e-05 0)
(1.36003e-05 1.11427e-05 0)
(1.40473e-05 1.16123e-05 0)
(1.44892e-05 1.20829e-05 0)
(1.49268e-05 1.25549e-05 0)
(1.53617e-05 1.30291e-05 0)
(1.57946e-05 1.35059e-05 0)
(1.62283e-05 1.39861e-05 0)
(6.47554e-06 4.53229e-06 0)
(7.04857e-06 5.05367e-06 0)
(7.61529e-06 5.56536e-06 0)
(8.16914e-06 6.07257e-06 0)
(8.71247e-06 6.57408e-06 0)
(9.24355e-06 7.07031e-06 0)
(9.76325e-06 7.56174e-06 0)
(1.02714e-05 8.04887e-06 0)
(1.07688e-05 8.53234e-06 0)
(1.12559e-05 9.01273e-06 0)
(1.17334e-05 9.49064e-06 0)
(1.2202e-05 9.96662e-06 0)
(1.26627e-05 1.04412e-05 0)
(1.31163e-05 1.09147e-05 0)
(1.35637e-05 1.13877e-05 0)
(1.40059e-05 1.18605e-05 0)
(1.44439e-05 1.23334e-05 0)
(1.48792e-05 1.28069e-05 0)
(1.53126e-05 1.32813e-05 0)
(1.57468e-05 1.37566e-05 0)
(6.08842e-06 4.26553e-06 0)
(6.6442e-06 4.78107e-06 0)
(7.19699e-06 5.29062e-06 0)
(7.73906e-06 5.79811e-06 0)
(8.27289e-06 6.30184e-06 0)
(8.79621e-06 6.80175e-06 0)
(9.30971e-06 7.29787e-06 0)
(9.81298e-06 7.79035e-06 0)
(1.03065e-05 8.27951e-06 0)
(1.07906e-05 8.76566e-06 0)
(1.12658e-05 9.24916e-06 0)
(1.17327e-05 9.73037e-06 0)
(1.21921e-05 1.02096e-05 0)
(1.26447e-05 1.06871e-05 0)
(1.30915e-05 1.11632e-05 0)
(1.35332e-05 1.1638e-05 0)
(1.3971e-05 1.21118e-05 0)
(1.44058e-05 1.25845e-05 0)
(1.48395e-05 1.3056e-05 0)
(1.52741e-05 1.35263e-05 0)
(5.73892e-06 4.01232e-06 0)
(6.27574e-06 4.52056e-06 0)
(6.81228e-06 5.02652e-06 0)
(7.34021e-06 5.53292e-06 0)
(7.86205e-06 6.03757e-06 0)
(8.37517e-06 6.53999e-06 0)
(8.88012e-06 7.03975e-06 0)
(9.37623e-06 7.53665e-06 0)
(9.86383e-06 8.03066e-06 0)
(1.0343e-05 8.52185e-06 0)
(1.08142e-05 9.01034e-06 0)
(1.1278e-05 9.49625e-06 0)
(1.17348e-05 9.97973e-06 0)
(1.21855e-05 1.04609e-05 0)
(1.26306e-05 1.09398e-05 0)
(1.30712e-05 1.14164e-05 0)
(1.35081e-05 1.18908e-05 0)
(1.39425e-05 1.23625e-05 0)
(1.43753e-05 1.28312e-05 0)
(1.4809e-05 1.32969e-05 0)
(5.42101e-06 3.77286e-06 0)
(5.93778e-06 4.27293e-06 0)
(6.45643e-06 4.77424e-06 0)
(6.9685e-06 5.27837e-06 0)
(7.47644e-06 5.78277e-06 0)
(7.97746e-06 6.28654e-06 0)
(8.47196e-06 6.78885e-06 0)
(8.9591e-06 7.28917e-06 0)
(9.43907e-06 7.78716e-06 0)
(9.91181e-06 8.28259e-06 0)
(1.03776e-05 8.77535e-06 0)
(1.08369e-05 9.26536e-06 0)
(1.12901e-05 9.75257e-06 0)
(1.17377e-05 1.02369e-05 0)
(1.21805e-05 1.07183e-05 0)
(1.26192e-05 1.11965e-05 0)
(1.30546e-05 1.16712e-05 0)
(1.34879e-05 1.21421e-05 0)
(1.39197e-05 1.26082e-05 0)
(1.43524e-05 1.30691e-05 0)
(5.12872e-06 3.54653e-06 0)
(5.62491e-06 4.03788e-06 0)
(6.12469e-06 4.53377e-06 0)
(6.61975e-06 5.03472e-06 0)
(7.11245e-06 5.53791e-06 0)
(7.59993e-06 6.04208e-06 0)
(8.08251e-06 6.54599e-06 0)
(8.55924e-06 7.04882e-06 0)
(9.03018e-06 7.54991e-06 0)
(9.49516e-06 8.04879e-06 0)
(9.95438e-06 8.54511e-06 0)
(1.04081e-05 9.03857e-06 0)
(1.08566e-05 9.52895e-06 0)
(1.13005e-05 1.0016e-05 0)
(1.17402e-05 1.04994e-05 0)
(1.21764e-05 1.09789e-05 0)
(1.26098e-05 1.14539e-05 0)
(1.30415e-05 1.19239e-05 0)
(1.34719e-05 1.23875e-05 0)
(1.39032e-05 1.28443e-05 0)
(4.85677e-06 3.33267e-06 0)
(5.33219e-06 3.81515e-06 0)
(5.81249e-06 4.30515e-06 0)
(6.28978e-06 4.80228e-06 0)
(6.76627e-06 5.3035e-06 0)
(7.23917e-06 5.80722e-06 0)
(7.70872e-06 6.31188e-06 0)
(8.17392e-06 6.81636e-06 0)
(8.63474e-06 7.31973e-06 0)
(9.09092e-06 7.82127e-06 0)
(9.54256e-06 8.3204e-06 0)
(9.98979e-06 8.81665e-06 0)
(1.04329e-05 9.30959e-06 0)
(1.08722e-05 9.79884e-06 0)
(1.13083e-05 1.02839e-05 0)
(1.17415e-05 1.07644e-05 0)
(1.21726e-05 1.12396e-05 0)
(1.26022e-05 1.17086e-05 0)
(1.3031e-05 1.21702e-05 0)
(1.34605e-05 1.26233e-05 0)
(4.60024e-06 3.13048e-06 0)
(5.05489e-06 3.60418e-06 0)
(5.51542e-06 4.08806e-06 0)
(5.97447e-06 4.58095e-06 0)
(6.43411e-06 5.07963e-06 0)
(6.89169e-06 5.58223e-06 0)
(7.3474e-06 6.0869e-06 0)
(7.80024e-06 6.59227e-06 0)
(8.2501e-06 7.09714e-06 0)
(8.69667e-06 7.60058e-06 0)
(9.13998e-06 8.10181e-06 0)
(9.58006e-06 8.60017e-06 0)
(1.00171e-05 9.09508e-06 0)
(1.04514e-05 9.586e-06 0)
(1.08832e-05 1.00724e-05 0)
(1.13131e-05 1.05535e-05 0)
(1.17414e-05 1.10287e-05 0)
(1.21688e-05 1.1497e-05 0)
(1.25956e-05 1.19567e-05 0)
(1.3023e-05 1.2407e-05 0)
(4.35464e-06 2.93913e-06 0)
(4.78859e-06 3.4044e-06 0)
(5.22921e-06 3.88216e-06 0)
(5.66973e-06 4.37057e-06 0)
(6.1121e-06 4.86632e-06 0)
(6.55388e-06 5.36726e-06 0)
(6.99519e-06 5.87132e-06 0)
(7.43508e-06 6.37688e-06 0)
(7.8734e-06 6.88254e-06 0)
(8.30979e-06 7.38717e-06 0)
(8.74421e-06 7.88979e-06 0)
(9.17663e-06 8.38961e-06 0)
(9.60715e-06 8.88587e-06 0)
(1.0036e-05 9.37793e-06 0)
(1.04633e-05 9.8651e-06 0)
(1.08894e-05 1.03467e-05 0)
(1.13147e-05 1.08217e-05 0)
(1.17396e-05 1.12893e-05 0)
(1.21642e-05 1.17477e-05 0)
(1.25894e-05 1.2196e-05 0)
(4.11573e-06 2.75797e-06 0)
(4.52905e-06 3.21529e-06 0)
(4.94968e-06 3.68706e-06 0)
(5.37152e-06 4.17093e-06 0)
(5.79638e-06 4.66345e-06 0)
(6.22204e-06 5.16231e-06 0)
(6.64862e-06 5.66521e-06 0)
(7.0752e-06 6.17035e-06 0)
(7.50161e-06 6.67615e-06 0)
(7.92747e-06 7.18128e-06 0)
(8.35266e-06 7.68464e-06 0)
(8.7771e-06 8.18526e-06 0)
(9.2008e-06 8.68228e-06 0)
(9.62386e-06 9.17495e-06 0)
(1.00464e-05 9.6625e-06 0)
(1.04686e-05 1.01442e-05 0)
(1.08907e-05 1.0619e-05 0)
(1.13129e-05 1.1086e-05 0)
(1.17353e-05 1.15435e-05 0)
(1.21581e-05 1.19906e-05 0)
(3.87943e-06 2.58637e-06 0)
(4.27212e-06 3.03632e-06 0)
(4.67271e-06 3.50235e-06 0)
(5.07578e-06 3.98169e-06 0)
(5.48301e-06 4.47082e-06 0)
(5.89242e-06 4.96725e-06 0)
(6.30411e-06 5.46853e-06 0)
(6.71723e-06 5.9727e-06 0)
(7.13159e-06 6.47802e-06 0)
(7.54676e-06 6.98303e-06 0)
(7.96259e-06 7.48648e-06 0)
(8.37892e-06 7.98728e-06 0)
(8.79569e-06 8.48449e-06 0)
(9.21289e-06 8.97726e-06 0)
(9.63056e-06 9.46476e-06 0)
(1.00488e-05 9.94619e-06 0)
(1.04676e-05 1.04207e-05 0)
(1.0887e-05 1.08872e-05 0)
(1.13071e-05 1.13443e-05 0)
(1.17275e-05 1.1791e-05 0)
(3.64174e-06 2.42409e-06 0)
(4.0137e-06 2.86726e-06 0)
(4.39417e-06 3.32781e-06 0)
(4.77842e-06 3.80268e-06 0)
(5.16798e-06 4.28826e-06 0)
(5.56115e-06 4.78196e-06 0)
(5.95798e-06 5.28119e-06 0)
(6.35769e-06 5.78387e-06 0)
(6.76004e-06 6.28813e-06 0)
(7.16461e-06 6.7924e-06 0)
(7.57116e-06 7.29532e-06 0)
(7.97947e-06 7.79572e-06 0)
(8.38938e-06 8.29255e-06 0)
(8.80079e-06 8.78491e-06 0)
(9.21364e-06 9.27194e-06 0)
(9.62787e-06 9.75285e-06 0)
(1.00434e-05 1.02268e-05 0)
(1.04602e-05 1.06929e-05 0)
(1.08779e-05 1.11499e-05 0)
(1.12961e-05 1.1597e-05 0)
(3.39846e-06 2.27066e-06 0)
(3.74947e-06 2.70765e-06 0)
(4.1097e-06 3.16301e-06 0)
(4.47513e-06 3.63346e-06 0)
(4.84712e-06 4.11537e-06 0)
(5.22419e-06 4.60605e-06 0)
(5.60637e-06 5.10282e-06 0)
(5.99293e-06 5.60352e-06 0)
(6.38357e-06 6.10618e-06 0)
(6.77785e-06 6.60915e-06 0)
(7.17544e-06 7.11097e-06 0)
(7.57604e-06 7.6104e-06 0)
(7.9794e-06 8.10633e-06 0)
(8.3853e-06 8.59781e-06 0)
(8.79357e-06 9.08397e-06 0)
(9.20403e-06 9.56404e-06 0)
(9.6165e-06 1.00373e-05 0)
(1.00307e-05 1.05029e-05 0)
(1.04463e-05 1.09601e-05 0)
(1.08624e-05 1.14082e-05 0)
(3.14529e-06 2.1266e-06 0)
(3.47503e-06 2.55783e-06 0)
(3.81488e-06 3.00813e-06 0)
(4.16152e-06 3.47411e-06 0)
(4.51613e-06 3.95212e-06 0)
(4.87742e-06 4.43941e-06 0)
(5.24537e-06 4.93326e-06 0)
(5.61926e-06 5.43144e-06 0)
(5.99874e-06 5.93192e-06 0)
(6.38329e-06 6.43298e-06 0)
(6.77251e-06 6.93312e-06 0)
(7.16598e-06 7.43102e-06 0)
(7.56334e-06 7.92555e-06 0)
(7.96425e-06 8.4157e-06 0)
(8.36839e-06 8.90062e-06 0)
(8.77547e-06 9.37955e-06 0)
(9.18517e-06 9.85184e-06 0)
(9.59709e-06 1.0317e-05 0)
(1.00107e-05 1.07744e-05 0)
(1.04251e-05 1.1224e-05 0)
(2.87723e-06 1.99115e-06 0)
(3.1853e-06 2.41697e-06 0)
(3.50464e-06 2.86229e-06 0)
(3.83266e-06 3.32371e-06 0)
(4.17024e-06 3.79758e-06 0)
(4.51629e-06 4.28113e-06 0)
(4.87067e-06 4.77161e-06 0)
(5.23266e-06 5.26676e-06 0)
(5.60181e-06 5.76453e-06 0)
(5.97753e-06 6.26316e-06 0)
(6.35928e-06 6.7611e-06 0)
(6.74653e-06 7.25699e-06 0)
(7.13877e-06 7.74967e-06 0)
(7.53551e-06 8.23811e-06 0)
(7.93628e-06 8.72145e-06 0)
(8.34064e-06 9.19898e-06 0)
(8.74812e-06 9.67015e-06 0)
(9.15819e-06 1.01347e-05 0)
(9.57027e-06 1.05923e-05 0)
(9.98322e-06 1.10436e-05 0)
(2.58929e-06 1.86646e-06 0)
(2.87528e-06 2.28673e-06 0)
(3.17407e-06 2.72673e-06 0)
(3.48376e-06 3.18311e-06 0)
(3.80488e-06 3.65226e-06 0)
(4.13647e-06 4.13142e-06 0)
(4.47822e-06 4.61784e-06 0)
(4.82937e-06 5.10928e-06 0)
(5.18935e-06 5.60365e-06 0)
(5.55742e-06 6.09918e-06 0)
(5.93293e-06 6.59429e-06 0)
(6.31518e-06 7.08762e-06 0)
(6.7035e-06 7.57798e-06 0)
(7.09723e-06 8.06432e-06 0)
(7.49572e-06 8.54579e-06 0)
(7.89832e-06 9.02169e-06 0)
(8.30442e-06 9.49156e-06 0)
(8.71332e-06 9.95525e-06 0)
(9.12434e-06 1.0413e-05 0)
(9.53638e-06 1.08656e-05 0)
(2.27421e-06 1.74952e-06 0)
(2.53781e-06 2.16417e-06 0)
(2.81627e-06 2.59858e-06 0)
(3.10824e-06 3.04958e-06 0)
(3.41384e-06 3.51358e-06 0)
(3.73214e-06 3.98788e-06 0)
(4.06264e-06 4.46976e-06 0)
(4.40446e-06 4.95697e-06 0)
(4.75686e-06 5.44744e-06 0)
(5.11895e-06 5.9394e-06 0)
(5.48991e-06 6.43126e-06 0)
(5.86886e-06 6.92165e-06 0)
(6.25497e-06 7.40935e-06 0)
(6.64735e-06 7.89335e-06 0)
(7.04516e-06 8.37275e-06 0)
(7.44752e-06 8.84689e-06 0)
(7.85359e-06 9.31535e-06 0)
(8.26244e-06 9.77809e-06 0)
(8.67323e-06 1.02356e-05 0)
(9.08488e-06 1.06893e-05 0)
(1.92787e-06 1.64723e-06 0)
(2.16893e-06 2.05491e-06 0)
(2.42754e-06 2.48235e-06 0)
(2.70263e-06 2.9266e-06 0)
(2.99392e-06 3.38415e-06 0)
(3.30039e-06 3.85233e-06 0)
(3.62128e-06 4.32847e-06 0)
(3.95553e-06 4.81034e-06 0)
(4.3022e-06 5.2959e-06 0)
(4.66022e-06 5.78336e-06 0)
(5.02857e-06 6.27116e-06 0)
(5.40619e-06 6.75792e-06 0)
(5.79203e-06 7.24242e-06 0)
(6.18502e-06 7.72365e-06 0)
(6.58409e-06 8.20073e-06 0)
(6.9881e-06 8.67301e-06 0)
(7.39592e-06 9.14008e-06 0)
(7.80628e-06 9.60191e-06 0)
(8.21811e-06 1.00591e-05 0)
(8.63004e-06 1.0513e-05 0)
(2.76707e-07 2.92277e-08 0)
(8.35812e-07 1.82349e-07 0)
(1.43005e-06 4.68936e-07 0)
(2.06706e-06 8.69809e-07 0)
(2.75915e-06 1.3741e-06 0)
(3.51018e-06 1.9638e-06 0)
(4.32318e-06 2.61971e-06 0)
(5.19675e-06 3.32166e-06 0)
(6.12827e-06 4.04929e-06 0)
(7.11284e-06 4.7859e-06 0)
(2.60647e-07 2.60911e-08 0)
(7.87881e-07 1.63641e-07 0)
(1.34683e-06 4.23816e-07 0)
(1.94341e-06 7.91075e-07 0)
(2.58882e-06 1.25723e-06 0)
(3.28664e-06 1.80718e-06 0)
(4.03996e-06 2.42421e-06 0)
(4.84751e-06 3.09059e-06 0)
(5.70629e-06 3.78674e-06 0)
(6.61116e-06 4.49942e-06 0)
(2.46208e-07 2.23684e-08 0)
(7.44871e-07 1.44674e-07 0)
(1.27259e-06 3.8015e-07 0)
(1.83331e-06 7.16038e-07 0)
(2.43701e-06 1.1462e-06 0)
(3.08672e-06 1.65783e-06 0)
(3.78576e-06 2.23639e-06 0)
(4.5336e-06 2.86661e-06 0)
(5.32915e-06 3.53074e-06 0)
(6.16683e-06 4.21935e-06 0)
(2.32996e-07 1.80486e-08 0)
(7.05689e-07 1.25628e-07 0)
(1.20576e-06 3.38802e-07 0)
(1.73537e-06 6.46798e-07 0)
(2.30342e-06 1.04498e-06 0)
(2.91214e-06 1.52233e-06 0)
(3.56462e-06 2.06586e-06 0)
(4.25995e-06 2.66192e-06 0)
(4.99832e-06 3.29371e-06 0)
(5.77296e-06 3.95305e-06 0)
(2.20643e-07 1.3081e-08 0)
(6.69113e-07 1.05828e-07 0)
(1.1438e-06 2.9785e-07 0)
(1.64522e-06 5.79861e-07 0)
(2.18135e-06 9.48336e-07 0)
(2.75365e-06 1.39367e-06 0)
(3.3652e-06 1.90426e-06 0)
(4.01471e-06 2.468e-06 0)
(4.70368e-06 3.06952e-06 0)
(5.42321e-06 3.70052e-06 0)
(2.09049e-07 7.55421e-09 0)
(6.34837e-07 8.5413e-08 0)
(1.08615e-06 2.57526e-07 0)
(1.56203e-06 5.1569e-07 0)
(2.06962e-06 8.57178e-07 0)
(2.60959e-06 1.27341e-06 0)
(3.18488e-06 1.75379e-06 0)
(3.79364e-06 2.2872e-06 0)
(4.43856e-06 2.85964e-06 0)
(5.10932e-06 3.46226e-06 0)
(1.9798e-07 1.44156e-09 0)
(6.02137e-07 6.40846e-08 0)
(1.03143e-06 2.16967e-07 0)
(1.48357e-06 4.52689e-07 0)
(1.96505e-06 7.69112e-07 0)
(2.4758e-06 1.15845e-06 0)
(3.0187e-06 1.61101e-06 0)
(3.59135e-06 2.11638e-06 0)
(4.19725e-06 2.66194e-06 0)
(4.82511e-06 3.23787e-06 0)
(1.8735e-07 -5.1793e-09 0)
(5.70741e-07 4.19376e-08 0)
(9.79111e-07 1.76207e-07 0)
(1.40896e-06 3.9082e-07 0)
(1.86624e-06 6.84046e-07 0)
(2.35021e-06 1.04865e-06 0)
(2.86365e-06 1.47563e-06 0)
(3.40375e-06 1.95505e-06 0)
(3.97455e-06 2.47553e-06 0)
(4.56443e-06 3.02648e-06 0)
(1.77021e-07 -1.23153e-08 0)
(5.4024e-07 1.88521e-08 0)
(9.28433e-07 1.34861e-07 0)
(1.33703e-06 3.29351e-07 0)
(1.77149e-06 6.00873e-07 0)
(2.23052e-06 9.42582e-07 0)
(2.71682e-06 1.34605e-06 0)
(3.22729e-06 1.80165e-06 0)
(3.76621e-06 2.29907e-06 0)
(4.32211e-06 2.82708e-06 0)
(1.66918e-07 -1.99142e-08 0)
(5.10403e-07 -5.12563e-09 0)
(8.78963e-07 9.28945e-08 0)
(1.26703e-06 2.68136e-07 0)
(1.67963e-06 5.19306e-07 0)
(2.11505e-06 8.39806e-07 0)
(2.57585e-06 1.22162e-06 0)
(3.05887e-06 1.65536e-06 0)
(3.56838e-06 2.13156e-06 0)
(4.09348e-06 2.63865e-06 0)
(1.56959e-07 -2.79722e-08 0)
(4.80992e-07 -3.00532e-08 0)
(8.30258e-07 5.01191e-08 0)
(1.19824e-06 2.06824e-07 0)
(1.58958e-06 4.38814e-07 0)
(2.00223e-06 7.39616e-07 0)
(2.43865e-06 1.10151e-06 0)
(2.89576e-06 1.51525e-06 0)
(3.37768e-06 1.97204e-06 0)
(3.87433e-06 2.46019e-06 0)
(1.47089e-07 -3.64744e-08 0)
(4.5186e-07 -5.59373e-08 0)
(7.82019e-07 6.48346e-09 0)
(1.13011e-06 1.45315e-07 0)
(1.50044e-06 3.59216e-07 0)
(1.89072e-06 6.41732e-07 0)
(2.30336e-06 9.85301e-07 0)
(2.73548e-06 1.38078e-06 0)
(3.191e-06 1.81987e-06 0)
(3.66083e-06 2.29094e-06 0)
(1.37279e-07 -4.54419e-08 0)
(4.22944e-07 -8.28576e-08 0)
(7.34054e-07 -3.8156e-08 0)
(1.06223e-06 8.3421e-08 0)
(1.41143e-06 2.80273e-07 0)
(1.7793e-06 5.45839e-07 0)
(2.16823e-06 8.72586e-07 0)
(2.5757e-06 1.25143e-06 0)
(3.00539e-06 1.67446e-06 0)
(3.4493e-06 2.13021e-06 0)
(1.27526e-07 -5.49504e-08 0)
(3.94285e-07 -1.10906e-07 0)
(6.86297e-07 -8.38411e-08 0)
(9.94276e-07 2.11995e-08 0)
(1.32186e-06 2.021e-07 0)
(1.66681e-06 4.52061e-07 0)
(2.03158e-06 7.63448e-07 0)
(2.41414e-06 1.12722e-06 0)
(2.81795e-06 1.53571e-06 0)
(3.23617e-06 1.97776e-06 0)
(1.17918e-07 -6.51396e-08 0)
(3.66235e-07 -1.40328e-07 0)
(6.3901e-07 -1.30799e-07 0)
(9.26195e-07 -4.1502e-08 0)
(1.23119e-06 1.24614e-07 0)
(1.55213e-06 3.60321e-07 0)
(1.89167e-06 6.57773e-07 0)
(2.24841e-06 1.00794e-06 0)
(2.62564e-06 1.40335e-06 0)
(3.0177e-06 1.83319e-06 0)
(1.08642e-07 -7.64863e-08 0)
(3.39374e-07 -1.71478e-07 0)
(5.92623e-07 -1.78954e-07 0)
(8.58007e-07 -1.04119e-07 0)
(1.13887e-06 4.86833e-08 0)
(1.43409e-06 2.71642e-07 0)
(1.7467e-06 5.56603e-07 0)
(2.07604e-06 8.94559e-07 0)
(2.42531e-06 1.27822e-06 0)
(2.79008e-06 1.69718e-06 0)
(1.0039e-07 -8.95509e-08 0)
(3.15491e-07 -2.0506e-07 0)
(5.4862e-07 -2.28769e-07 0)
(7.90351e-07 -1.66981e-07 0)
(1.04455e-06 -2.58838e-08 0)
(1.31138e-06 1.8583e-07 0)
(1.59446e-06 4.59691e-07 0)
(1.89401e-06 7.8673e-07 0)
(2.21317e-06 1.15984e-06 0)
(2.54872e-06 1.56907e-06 0)
(9.46301e-08 -1.06769e-07 0)
(2.96659e-07 -2.42172e-07 0)
(5.08437e-07 -2.79254e-07 0)
(7.2354e-07 -2.27595e-07 0)
(9.47577e-07 -9.58977e-08 0)
(1.18242e-06 1.06343e-07 0)
(1.43259e-06 3.70461e-07 0)
(1.69919e-06 6.87687e-07 0)
(1.98536e-06 1.05116e-06 0)
(2.28908e-06 1.45148e-06 0)
(9.85217e-08 -1.29913e-07 0)
(2.90598e-07 -2.84146e-07 0)
(4.76995e-07 -3.31362e-07 0)
(6.59304e-07 -2.87389e-07 0)
(8.47188e-07 -1.63098e-07 0)
(1.04466e-06 3.10929e-08 0)
(1.25716e-06 2.86556e-07 0)
(1.48655e-06 5.94833e-07 0)
(1.73595e-06 9.494e-07 0)
(2.00431e-06 1.34144e-06 0)
(1.27227e-07 -1.71851e-07 0)
(3.0217e-07 -3.31999e-07 0)
(4.56627e-07 -3.78507e-07 0)
(5.97414e-07 -3.36117e-07 0)
(7.42215e-07 -2.16579e-07 0)
(8.96125e-07 -2.91195e-08 0)
(1.0657e-06 2.18243e-07 0)
(1.25309e-06 5.17789e-07 0)
(1.46152e-06 8.63421e-07 0)
(1.69047e-06 1.247e-06 0)
)
;

boundaryField
{
    left
    {
        type            fixedDisplacement;
        value           uniform (0 0 0);
    }
    right
    {
        type            solidTraction;
        tractionSeries  
{
        file            "$FOAM_CASE/constant/timeVsTraction";
        outOfBounds     clamp;
}
        pressure        uniform 0;
        secondOrder     false;
        setEffectiveTraction false;
        relaxationFactor 1;
        value           nonuniform List<vector> 
30
(
(2.29076e-05 1.67953e-05 -8.57003e-21)
(2.23738e-05 1.66027e-05 -8.62154e-21)
(2.18352e-05 1.64116e-05 -8.71098e-21)
(2.12904e-05 1.62182e-05 -8.83157e-21)
(2.07394e-05 1.60204e-05 -8.98387e-21)
(2.01836e-05 1.58163e-05 -9.16888e-21)
(1.96247e-05 1.56045e-05 -9.38878e-21)
(1.90653e-05 1.53846e-05 -9.64568e-21)
(1.85076e-05 1.51564e-05 -9.94188e-21)
(1.79543e-05 1.49205e-05 -1.02799e-20)
(1.74309e-05 1.46885e-05 -1.04495e-20)
(1.69346e-05 1.44604e-05 -1.04043e-20)
(1.64453e-05 1.42289e-05 -1.03744e-20)
(1.59641e-05 1.39952e-05 -1.03594e-20)
(1.54914e-05 1.37608e-05 -1.03615e-20)
(1.50261e-05 1.35273e-05 -1.03799e-20)
(1.45689e-05 1.32956e-05 -1.04118e-20)
(1.4119e-05 1.30673e-05 -1.04572e-20)
(1.36754e-05 1.28434e-05 -1.05135e-20)
(1.32369e-05 1.26248e-05 -1.05786e-20)
(1.28021e-05 1.24122e-05 -1.06494e-20)
(1.23695e-05 1.22061e-05 -1.07231e-20)
(1.19377e-05 1.20065e-05 -1.07962e-20)
(1.15052e-05 1.18132e-05 -1.08656e-20)
(1.10704e-05 1.1626e-05 -1.09277e-20)
(1.06322e-05 1.14438e-05 -1.09799e-20)