/*--------------------------------*- C++ -*----------------------------------*\
  =========                 |
  \\      /  F ield         | OpenFOAM: The Open Source CFD Toolbox
   \\    /   O peration     | Website:  https://openfoam.org
    \\  /    A nd           | Version:  9
     \\/     M anipulation  |
\*---------------------------------------------------------------------------*/
FoamFile
{
    format      ascii;
    class       volVectorField;
    location    "15";
    object      D;
}
// * * * * * * * * * * * * * * * * * * * * * * * * * * * * * * * * * * * * * //

dimensions      [0 1 0 0 0 0 0];

internalField   nonuniform List<vector> 
1000
(
(1.01436e-05 3.40607e-06 0)
(9.46402e-06 3.76288e-06 0)
(8.97013e-06 4.06234e-06 0)
(8.61316e-06 4.29665e-06 0)
(8.35847e-06 4.49863e-06 0)
(8.1788e-06 4.67249e-06 0)
(8.05716e-06 4.82906e-06 0)
(7.97991e-06 4.97167e-06 0)
(7.93639e-06 5.10471e-06 0)
(7.92097e-06 5.23076e-06 0)
(9.14121e-06 3.07098e-06 0)
(8.43551e-06 3.33037e-06 0)
(7.92614e-06 3.55704e-06 0)
(7.55961e-06 3.73231e-06 0)
(7.29848e-06 3.88599e-06 0)
(7.11363e-06 4.01822e-06 0)
(6.98698e-06 4.13809e-06 0)
(6.9041e-06 4.24771e-06 0)
(6.854e-06 4.34945e-06 0)
(6.82923e-06 4.44856e-06 0)
(8.11744e-06 2.73519e-06 0)
(7.40526e-06 2.89075e-06 0)
(6.89432e-06 3.0416e-06 0)
(6.52861e-06 3.15712e-06 0)
(6.26894e-06 3.2633e-06 0)
(6.08512e-06 3.35564e-06 0)
(5.95834e-06 3.44115e-06 0)
(5.87386e-06 3.52035e-06 0)
(5.8206e-06 3.59374e-06 0)
(5.79076e-06 3.66711e-06 0)
(7.07747e-06 2.40411e-06 0)
(6.37935e-06 2.45354e-06 0)
(5.88168e-06 2.52832e-06 0)
(5.52799e-06 2.58534e-06 0)
(5.27838e-06 2.64633e-06 0)
(5.10227e-06 2.70162e-06 0)
(4.98075e-06 2.75603e-06 0)
(4.89897e-06 2.80801e-06 0)
(4.84648e-06 2.85659e-06 0)
(4.81479e-06 2.90696e-06 0)
(6.02397e-06 2.0827e-06 0)
(5.36103e-06 2.02799e-06 0)
(4.89219e-06 2.02971e-06 0)
(4.56257e-06 2.03204e-06 0)
(4.33216e-06 2.05222e-06 0)
(4.17082e-06 2.07502e-06 0)
(4.05995e-06 2.10292e-06 0)
(3.98509e-06 2.13204e-06 0)
(3.93665e-06 2.16016e-06 0)
(3.90595e-06 2.19116e-06 0)
(4.9613e-06 1.77326e-06 0)
(4.3531e-06 1.62069e-06 0)
(3.92909e-06 1.55641e-06 0)
(3.63607e-06 1.51097e-06 0)
(3.43432e-06 1.49725e-06 0)
(3.29476e-06 1.49404e-06 0)
(3.19971e-06 1.50147e-06 0)
(3.1356e-06 1.51323e-06 0)
(3.09407e-06 1.52614e-06 0)
(3.06667e-06 1.54237e-06 0)
(3.88563e-06 1.47561e-06 0)
(3.35327e-06 1.23602e-06 0)
(2.99134e-06 1.11786e-06 0)
(2.74836e-06 1.03596e-06 0)
(2.58501e-06 9.98397e-07 0)
(2.47395e-06 9.77799e-07 0)
(2.39935e-06 9.72103e-07 0)
(2.3492e-06 9.72811e-07 0)
(2.31671e-06 9.76188e-07 0)
(2.29438e-06 9.827e-07 0)
(2.80411e-06 1.18126e-06 0)
(2.36539e-06 8.72459e-07 0)
(2.08417e-06 7.21346e-07 0)
(1.90418e-06 6.20479e-07 0)
(1.78736e-06 5.72936e-07 0)
(1.70961e-06 5.45802e-07 0)
(1.65823e-06 5.35342e-07 0)
(1.62372e-06 5.31762e-07 0)
(1.60133e-06 5.31339e-07 0)
(1.58516e-06 5.33283e-07 0)
(1.69303e-06 8.61506e-07 0)
(1.38285e-06 5.19859e-07 0)
(1.20496e-06 3.71324e-07 0)
(1.09932e-06 2.79341e-07 0)
(1.03521e-06 2.39687e-07 0)
(9.93273e-07 2.17962e-07 0)
(9.66142e-07 2.10359e-07 0)
(9.47588e-07 2.07858e-07 0)
(9.3533e-07 2.07708e-07 0)
(9.25716e-07 2.08757e-07 0)
(5.83634e-07 4.50395e-07 0)
(4.3956e-07 1.90984e-07 0)
(3.8493e-07 9.9781e-08 0)
(3.55961e-07 5.4083e-08 0)
(3.3912e-07 3.82862e-08 0)
(3.27373e-07 3.12131e-08 0)
(3.19672e-07 3.02184e-08 0)
(3.14034e-07 3.08347e-08 0)
(3.10159e-07 3.20111e-08 0)
(3.06755e-07 3.33023e-08 0)
(1.78874e-05 5.51989e-06 0)
(1.78576e-05 6.20692e-06 0)
(1.78369e-05 6.84721e-06 0)
(1.78372e-05 7.43348e-06 0)
(1.78637e-05 7.97161e-06 0)
(1.79183e-05 8.46831e-06 0)
(1.80014e-05 8.9313e-06 0)
(1.81113e-05 9.36731e-06 0)
(1.82469e-05 9.78165e-06 0)
(1.84049e-05 1.01802e-05 0)
(1.73262e-05 5.47449e-06 0)
(1.72465e-05 6.15959e-06 0)
(1.7192e-05 6.79206e-06 0)
(1.71677e-05 7.36652e-06 0)
(1.71761e-05 7.89019e-06 0)
(1.72158e-05 8.37027e-06 0)
(1.72854e-05 8.81518e-06 0)
(1.73816e-05 9.23205e-06 0)
(1.75031e-05 9.62643e-06 0)
(1.76451e-05 1.00049e-05 0)
(1.67312e-05 5.38241e-06 0)
(1.65923e-05 6.06585e-06 0)
(1.64918e-05 6.68542e-06 0)
(1.64311e-05 7.24135e-06 0)
(1.64109e-05 7.74468e-06 0)
(1.64264e-05 8.20356e-06 0)
(1.64748e-05 8.62706e-06 0)
(1.65512e-05 9.02238e-06 0)
(1.66536e-05 9.39531e-06 0)
(1.67759e-05 9.75264e-06 0)
(1.60883e-05 5.24851e-06 0)
(1.58828e-05 5.92881e-06 0)
(1.57288e-05 6.53255e-06 0)
(1.56251e-05 7.06582e-06 0)
(1.55697e-05 7.54461e-06 0)
(1.55554e-05 7.97837e-06 0)
(1.55777e-05 8.37697e-06 0)
(1.56301e-05 8.7477e-06 0)
(1.57103e-05 9.09655e-06 0)
(1.58101e-05 9.43026e-06 0)
(1.539e-05 5.07413e-06 0)
(1.51116e-05 5.74588e-06 0)
(1.49004e-05 6.32881e-06 0)
(1.47513e-05 6.83419e-06 0)
(1.46587e-05 7.28367e-06 0)
(1.46128e-05 7.68799e-06 0)
(1.46075e-05 8.05799e-06 0)
(1.46348e-05 8.40092e-06 0)
(1.46918e-05 8.7231e-06 0)
(1.47687e-05 9.03079e-06 0)
(1.46353e-05 4.86329e-06 0)
(1.42798e-05 5.5172e-06 0)
(1.40102e-05 6.07329e-06 0)
(1.38159e-05 6.546e-06 0)
(1.36864e-05 6.96219e-06 0)
(1.36094e-05 7.33355e-06 0)
(1.35769e-05 7.67188e-06 0)
(1.35796e-05 7.98426e-06 0)
(1.36139e-05 8.27737e-06 0)
(1.36686e-05 8.55673e-06 0)
(1.38262e-05 4.61921e-06 0)
(1.33924e-05 5.24281e-06 0)
(1.30657e-05 5.76441e-06 0)
(1.28282e-05 6.19921e-06 0)
(1.26643e-05 6.57829e-06 0)
(1.25584e-05 6.91363e-06 0)
(1.25008e-05 7.21775e-06 0)
(1.24808e-05 7.4974e-06 0)
(1.24941e-05 7.75954e-06 0)
(1.25284e-05 8.0088e-06 0)
(1.29668e-05 4.34643e-06 0)
(1.24574e-05 4.92524e-06 0)
(1.20774e-05 5.40387e-06 0)
(1.18004e-05 5.79557e-06 0)
(1.16056e-05 6.13418e-06 0)
(1.14742e-05 6.43108e-06 0)
(1.13945e-05 6.69919e-06 0)
(1.13547e-05 6.94456e-06 0)
(1.13493e-05 7.17445e-06 0)
(1.1366e-05 7.39206e-06 0)
(1.20625e-05 4.04964e-06 0)
(1.14844e-05 4.56846e-06 0)
(1.10571e-05 4.99532e-06 0)
(1.07461e-05 5.33883e-06 0)
(1.05253e-05 5.63399e-06 0)
(1.03726e-05 5.89067e-06 0)
(1.02745e-05 6.12159e-06 0)
(1.02182e-05 6.33205e-06 0)
(1.0197e-05 6.52878e-06 0)
(1.01993e-05 6.71433e-06 0)
(1.11194e-05 3.73426e-06 0)
(1.04833e-05 4.17849e-06 0)
(1.00173e-05 4.54525e-06 0)
(9.67919e-06 4.836e-06 0)
(9.43805e-06 5.08538e-06 0)
(9.26899e-06 5.30077e-06 0)
(9.15668e-06 5.49429e-06 0)
(9.08762e-06 5.66982e-06 0)
(9.05373e-06 5.83394e-06 0)
(9.04581e-06 5.98545e-06 0)
(1.85938e-05 1.05636e-05 0)
(1.88108e-05 1.0944e-05 0)
(1.90445e-05 1.13183e-05 0)
(1.92929e-05 1.16882e-05 0)
(1.95549e-05 1.20557e-05 0)
(1.9829e-05 1.24219e-05 0)
(2.01139e-05 1.27879e-05 0)
(2.04084e-05 1.31546e-05 0)
(2.07116e-05 1.35228e-05 0)
(2.10225e-05 1.38932e-05 0)
(2.13401e-05 1.42663e-05 0)
(2.16636e-05 1.46427e-05 0)
(2.19922e-05 1.50226e-05 0)
(2.23252e-05 1.54064e-05 0)
(2.26617e-05 1.57944e-05 0)
(2.30011e-05 1.61866e-05 0)
(2.33425e-05 1.65829e-05 0)
(2.36853e-05 1.69831e-05 0)
(2.40288e-05 1.73865e-05 0)
(2.43722e-05 1.77918e-05 0)
(1.78421e-05 1.03738e-05 0)
(1.80859e-05 1.07479e-05 0)
(1.83427e-05 1.11162e-05 0)
(1.86106e-05 1.14809e-05 0)
(1.88891e-05 1.18439e-05 0)
(1.9177e-05 1.22062e-05 0)
(1.94735e-05 1.25691e-05 0)
(1.97778e-05 1.29334e-05 0)
(2.00892e-05 1.32997e-05 0)
(2.04069e-05 1.36689e-05 0)
(2.07302e-05 1.40413e-05 0)
(2.10586e-05 1.44174e-05 0)
(2.13915e-05 1.47977e-05 0)
(2.17282e-05 1.51824e-05 0)
(2.20682e-05 1.55717e-05 0)
(2.2411e-05 1.59657e-05 0)
(2.27561e-05 1.63643e-05 0)
(2.31029e-05 1.67674e-05 0)
(2.34509e-05 1.71741e-05 0)
(2.37993e-05 1.75835e-05 0)
(1.69837e-05 1.01106e-05 0)
(1.72621e-05 1.04853e-05 0)
(1.75498e-05 1.08545e-05 0)
(1.78444e-05 1.12199e-05 0)
(1.81464e-05 1.15838e-05 0)
(1.84547e-05 1.19472e-05 0)
(1.87692e-05 1.23114e-05 0)
(1.90892e-05 1.26772e-05 0)
(1.94143e-05 1.30454e-05 0)
(1.97442e-05 1.34166e-05 0)
(2.00785e-05 1.37914e-05 0)
(2.04167e-05 1.41702e-05 0)
(2.07584e-05 1.45534e-05 0)
(2.11034e-05 1.49414e-05 0)
(2.14513e-05 1.53343e-05 0)
(2.18017e-05 1.57324e-05 0)
(2.21542e-05 1.61356e-05 0)
(2.25085e-05 1.65439e-05 0)
(2.2864e-05 1.69568e-05 0)
(2.322e-05 1.73739e-05 0)
(1.60316e-05 9.77944e-06 0)
(1.63511e-05 1.01602e-05 0)
(1.66763e-05 1.05357e-05 0)
(1.70038e-05 1.09067e-05 0)
(1.73354e-05 1.12762e-05 0)
(1.76699e-05 1.16448e-05 0)
(1.80078e-05 1.20143e-05 0)
(1.83487e-05 1.23852e-05 0)
(1.86927e-05 1.27585e-05 0)
(1.90396e-05 1.31348e-05 0)
(1.93892e-05 1.35149e-05 0)
(1.97414e-05 1.38991e-05 0)
(2.00961e-05 1.42878e-05 0)
(2.04532e-05 1.46815e-05 0)
(2.08124e-05 1.50805e-05 0)
(2.11736e-05 1.54849e-05 0)
(2.15367e-05 1.58951e-05 0)
(2.19012e-05 1.6311e-05 0)
(2.22668e-05 1.67328e-05 0)
(2.26326e-05 1.71603e-05 0)
(1.50064e-05 9.37416e-06 0)
(1.53718e-05 9.76717e-06 0)
(1.57395e-05 1.01552e-05 0)
(1.61045e-05 1.05373e-05 0)
(1.64703e-05 1.09175e-05 0)
(1.68354e-05 1.12961e-05 0)
(1.7201e-05 1.16751e-05 0)
(1.75669e-05 1.20551e-05 0)
(1.79336e-05 1.24372e-05 0)
(1.8301e-05 1.28221e-05 0)
(1.86694e-05 1.32105e-05 0)
(1.90389e-05 1.3603e-05 0)
(1.94096e-05 1.4e-05 0)
(1.97816e-05 1.4402e-05 0)
(2.01548e-05 1.48095e-05 0)
(2.05294e-05 1.52227e-05 0)
(2.09052e-05 1.5642e-05 0)
(2.1282e-05 1.60679e-05 0)
(2.16597e-05 1.65008e-05 0)
(2.20374e-05 1.69409e-05 0)
(1.39249e-05 8.89702e-06 0)
(1.43396e-05 9.30801e-06 0)
(1.47535e-05 9.71432e-06 0)
(1.51596e-05 1.01128e-05 0)
(1.55631e-05 1.05087e-05 0)
(1.59621e-05 1.09018e-05 0)
(1.63587e-05 1.12944e-05 0)
(1.67526e-05 1.16874e-05 0)
(1.71449e-05 1.20819e-05 0)
(1.75358e-05 1.24787e-05 0)
(1.79257e-05 1.28786e-05 0)
(1.8315e-05 1.32822e-05 0)
(1.87041e-05 1.36902e-05 0)
(1.90931e-05 1.4103e-05 0)
(1.94824e-05 1.45213e-05 0)
(1.98721e-05 1.49454e-05 0)
(2.02624e-05 1.53761e-05 0)
(2.06532e-05 1.58138e-05 0)
(2.10444e-05 1.62596e-05 0)
(2.14356e-05 1.6714e-05 0)
(1.2805e-05 8.34899e-06 0)
(1.32708e-05 8.78372e-06 0)
(1.37332e-05 9.21401e-06 0)
(1.41825e-05 9.63411e-06 0)
(1.4626e-05 1.00503e-05 0)
(1.50612e-05 1.04624e-05 0)
(1.5491e-05 1.08729e-05 0)
(1.59154e-05 1.12826e-05 0)
(1.63354e-05 1.1693e-05 0)
(1.67518e-05 1.2105e-05 0)
(1.71652e-05 1.25194e-05 0)
(1.75761e-05 1.29371e-05 0)
(1.79852e-05 1.33588e-05 0)
(1.83929e-05 1.3785e-05 0)
(1.87997e-05 1.42164e-05 0)
(1.92059e-05 1.46536e-05 0)
(1.96119e-05 1.50975e-05 0)
(2.00177e-05 1.55488e-05 0)
(2.04237e-05 1.60089e-05 0)
(2.08295e-05 1.64785e-05 0)
(1.16634e-05 7.73495e-06 0)
(1.21806e-05 8.19884e-06 0)
(1.2692e-05 8.65766e-06 0)
(1.31856e-05 9.10431e-06 0)
(1.367e-05 9.54516e-06 0)
(1.4143e-05 9.9805e-06 0)
(1.46074e-05 1.04126e-05 0)
(1.50636e-05 1.08429e-05 0)
(1.55129e-05 1.12726e-05 0)
(1.59563e-05 1.1703e-05 0)
(1.63945e-05 1.2135e-05 0)
(1.68284e-05 1.25695e-05 0)
(1.72587e-05 1.30073e-05 0)
(1.76862e-05 1.34492e-05 0)
(1.81115e-05 1.38959e-05 0)
(1.8535e-05 1.43482e-05 0)
(1.89574e-05 1.4807e-05 0)
(1.93791e-05 1.52732e-05 0)
(1.98004e-05 1.57486e-05 0)
(2.02218e-05 1.62341e-05 0)
(1.05174e-05 7.06071e-06 0)
(1.10845e-05 7.55942e-06 0)
(1.16437e-05 8.05031e-06 0)
(1.21818e-05 8.528e-06 0)
(1.27071e-05 8.99704e-06 0)
(1.32181e-05 9.45906e-06 0)
(1.37175e-05 9.91614e-06 0)
(1.42062e-05 1.037e-05 0)
(1.46854e-05 1.08221e-05 0)
(1.51564e-05 1.12738e-05 0)
(1.56202e-05 1.17262e-05 0)
(1.60777e-05 1.21802e-05 0)
(1.653e-05 1.26367e-05 0)
(1.69779e-05 1.30967e-05 0)
(1.74221e-05 1.35609e-05 0)
(1.78635e-05 1.40301e-05 0)
(1.83028e-05 1.45054e-05 0)
(1.87407e-05 1.49879e-05 0)
(1.91778e-05 1.54793e-05 0)
(1.96151e-05 1.59808e-05 0)
(9.38041e-06 6.33663e-06 0)
(9.99483e-06 6.87368e-06 0)
(1.05967e-05 7.39772e-06 0)
(1.11783e-05 7.90974e-06 0)
(1.17437e-05 8.41071e-06 0)
(1.2293e-05 8.90303e-06 0)
(1.28279e-05 9.38852e-06 0)
(1.33496e-05 9.86909e-06 0)
(1.38595e-05 1.03464e-05 0)
(1.43587e-05 1.0822e-05 0)
(1.48485e-05 1.12971e-05 0)
(1.53301e-05 1.17728e-05 0)
(1.58047e-05 1.22502e-05 0)
(1.62731e-05 1.27301e-05 0)
(1.67366e-05 1.32135e-05 0)
(1.71959e-05 1.37013e-05 0)
(1.76521e-05 1.41944e-05 0)
(1.81063e-05 1.46941e-05 0)
(1.8559e-05 1.52021e-05 0)
(1.90121e-05 1.57195e-05 0)
(8.50351e-06 5.79374e-06 0)
(9.14407e-06 6.35853e-06 0)
(9.7685e-06 6.90134e-06 0)
(1.03736e-05 7.43296e-06 0)
(1.09617e-05 7.95347e-06 0)
(1.15331e-05 8.46513e-06 0)
(1.20891e-05 8.96962e-06 0)
(1.26308e-05 9.46861e-06 0)
(1.31594e-05 9.96365e-06 0)
(1.3676e-05 1.04561e-05 0)
(1.4182e-05 1.09473e-05 0)
(1.46786e-05 1.14382e-05 0)
(1.51668e-05 1.19298e-05 0)
(1.56478e-05 1.2423e-05 0)
(1.61227e-05 1.29187e-05 0)
(1.65927e-05 1.34176e-05 0)
(1.70586e-05 1.39209e-05 0)
(1.75219e-05 1.44294e-05 0)
(1.79834e-05 1.49447e-05 0)
(1.84454e-05 1.5468e-05 0)
(7.91844e-06 5.46886e-06 0)
(8.55902e-06 6.03359e-06 0)
(9.18363e-06 6.58081e-06 0)
(9.7907e-06 7.11842e-06 0)
(1.03818e-05 7.64633e-06 0)
(1.0957e-05 8.1661e-06 0)
(1.15173e-05 8.67909e-06 0)
(1.20634e-05 9.1866e-06 0)
(1.25966e-05 9.68995e-06 0)
(1.31177e-05 1.01903e-05 0)
(1.3628e-05 1.06887e-05 0)
(1.41284e-05 1.11861e-05 0)
(1.46201e-05 1.16834e-05 0)
(1.51041e-05 1.21814e-05 0)
(1.55817e-05 1.26807e-05 0)
(1.60538e-05 1.31823e-05 0)
(1.65216e-05 1.36867e-05 0)
(1.69866e-05 1.4195e-05 0)
(1.74495e-05 1.47082e-05 0)
(1.79131e-05 1.52273e-05 0)
(7.40193e-06 5.15697e-06 0)
(8.03102e-06 5.71996e-06 0)
(8.64923e-06 6.26873e-06 0)
(9.25165e-06 6.80998e-06 0)
(9.84039e-06 7.34322e-06 0)
(1.04144e-05 7.86941e-06 0)
(1.09748e-05 8.38956e-06 0)
(1.15218e-05 8.90459e-06 0)
(1.20563e-05 9.41551e-06 0)
(1.25791e-05 9.92321e-06 0)
(1.30911e-05 1.04286e-05 0)
(1.35934e-05 1.09323e-05 0)
(1.40869e-05 1.14352e-05 0)
(1.45726e-05 1.19379e-05 0)
(1.50516e-05 1.2441e-05 0)
(1.55251e-05 1.2945e-05 0)
(1.59941e-05 1.34506e-05 0)
(1.646e-05 1.39583e-05 0)
(1.69239e-05 1.44691e-05 0)
(1.73886e-05 1.49833e-05 0)
(6.93908e-06 4.8566e-06 0)
(7.55311e-06 5.41501e-06 0)
(8.16019e-06 5.96325e-06 0)
(8.75363e-06 6.50661e-06 0)
(9.33573e-06 7.04389e-06 0)
(9.90476e-06 7.5755e-06 0)
(1.04616e-05 8.10195e-06 0)
(1.10061e-05 8.62379e-06 0)
(1.1539e-05 9.14169e-06 0)
(1.20609e-05 9.65629e-06 0)
(1.25725e-05 1.01682e-05 0)
(1.30747e-05 1.06781e-05 0)
(1.35683e-05 1.11864e-05 0)
(1.40543e-05 1.16936e-05 0)
(1.45337e-05 1.22002e-05 0)
(1.50076e-05 1.27066e-05 0)
(1.5477e-05 1.32131e-05 0)
(1.59433e-05 1.37203e-05 0)
(1.64077e-05 1.42283e-05 0)
(1.6873e-05 1.47373e-05 0)
(6.52448e-06 4.5709e-06 0)
(7.12006e-06 5.12304e-06 0)
(7.71223e-06 5.66896e-06 0)
(8.29307e-06 6.2126e-06 0)
(8.86499e-06 6.75224e-06 0)
(9.42572e-06 7.28777e-06 0)
(9.9759e-06 7.81923e-06 0)
(1.05151e-05 8.34679e-06 0)
(1.10439e-05 8.87078e-06 0)
(1.15626e-05 9.39154e-06 0)
(1.20718e-05 9.90946e-06 0)
(1.25721e-05 1.04249e-05 0)
(1.30644e-05 1.09382e-05 0)
(1.35494e-05 1.14497e-05 0)
(1.40281e-05 1.19596e-05 0)
(1.45014e-05 1.24682e-05 0)
(1.49705e-05 1.29756e-05 0)
(1.54365e-05 1.34819e-05 0)
(1.59012e-05 1.39868e-05 0)
(1.63669e-05 1.44905e-05 0)
(6.15016e-06 4.29971e-06 0)
(6.72546e-06 4.84401e-06 0)
(7.30023e-06 5.38607e-06 0)
(7.86594e-06 5.92852e-06 0)
(8.42503e-06 6.46913e-06 0)
(8.97484e-06 7.00733e-06 0)
(9.51586e-06 7.54268e-06 0)
(1.00474e-05 8.07496e-06 0)
(1.05699e-05 8.60415e-06 0)
(1.10834e-05 9.13029e-06 0)
(1.15883e-05 9.65354e-06 0)
(1.20852e-05 1.0174e-05 0)
(1.25747e-05 1.06919e-05 0)
(1.30576e-05 1.12072e-05 0)
(1.35346e-05 1.17202e-05 0)
(1.40067e-05 1.22307e-05 0)
(1.44748e-05 1.27387e-05 0)
(1.49403e-05 1.32439e-05 0)
(1.54041e-05 1.37459e-05 0)
(1.58689e-05 1.42446e-05 0)
(5.80965e-06 4.04321e-06 0)
(6.36349e-06 4.57877e-06 0)
(6.91912e-06 5.11583e-06 0)
(7.46785e-06 5.65583e-06 0)
(8.01208e-06 6.19615e-06 0)
(8.54893e-06 6.7358e-06 0)
(9.07878e-06 7.27387e-06 0)
(9.60077e-06 7.8098e-06 0)
(1.01151e-05 8.34323e-06 0)
(1.06216e-05 8.87391e-06 0)
(1.11208e-05 9.40173e-06 0)
(1.16129e-05 9.92659e-06 0)
(1.20985e-05 1.04484e-05 0)
(1.25782e-05 1.09672e-05 0)
(1.30526e-05 1.14828e-05 0)
(1.35228e-05 1.1995e-05 0)
(1.39893e-05 1.25034e-05 0)
(1.44536e-05 1.30077e-05 0)
(1.49163e-05 1.35069e-05 0)
(1.53799e-05 1.40005e-05 0)
(5.49658e-06 3.80078e-06 0)
(6.02839e-06 4.32701e-06 0)
(6.56382e-06 4.85823e-06 0)
(7.09436e-06 5.39482e-06 0)
(7.62226e-06 5.93383e-06 0)
(8.14463e-06 6.47388e-06 0)
(8.66172e-06 7.01366e-06 0)
(9.17257e-06 7.55228e-06 0)
(9.67719e-06 8.08902e-06 0)
(1.01754e-05 8.62339e-06 0)
(1.06675e-05 9.15501e-06 0)
(1.11537e-05 9.68357e-06 0)
(1.16343e-05 1.02088e-05 0)
(1.21099e-05 1.07305e-05 0)
(1.25811e-05 1.12483e-05 0)
(1.30486e-05 1.17618e-05 0)
(1.3513e-05 1.22706e-05 0)
(1.39756e-05 1.27738e-05 0)
(1.44368e-05 1.32704e-05 0)
(1.4899e-05 1.37596e-05 0)
(5.20527e-06 3.57168e-06 0)
(5.71485e-06 4.08842e-06 0)
(6.22945e-06 4.61331e-06 0)
(6.74096e-06 5.1458e-06 0)
(7.25152e-06 5.68269e-06 0)
(7.75829e-06 6.22225e-06 0)
(8.26143e-06 6.76282e-06 0)
(8.75993e-06 7.30319e-06 0)
(9.25373e-06 7.84237e-06 0)
(9.74256e-06 8.37958e-06 0)
(1.02265e-05 8.91421e-06 0)
(1.07058e-05 9.44575e-06 0)
(1.11806e-05 9.97374e-06 0)
(1.16514e-05 1.04978e-05 0)
(1.21186e-05 1.10173e-05 0)
(1.25829e-05 1.15319e-05 0)
(1.30448e-05 1.20408e-05 0)
(1.35052e-05 1.25432e-05 0)
(1.39646e-05 1.30375e-05 0)
(1.44249e-05 1.35228e-05 0)
(4.93048e-06 3.35505e-06 0)
(5.41782e-06 3.8624e-06 0)
(5.91127e-06 4.38073e-06 0)
(6.40325e-06 4.90867e-06 0)
(6.89578e-06 5.44283e-06 0)
(7.38615e-06 5.98119e-06 0)
(7.87448e-06 6.52176e-06 0)
(8.35975e-06 7.06308e-06 0)
(8.84182e-06 7.60386e-06 0)
(9.32037e-06 8.14311e-06 0)
(9.79541e-06 8.67998e-06 0)
(1.0267e-05 9.21377e-06 0)
(1.07353e-05 9.74386e-06 0)
(1.12007e-05 1.02697e-05 0)
(1.16635e-05 1.07906e-05 0)
(1.21241e-05 1.13059e-05 0)
(1.25831e-05 1.18148e-05 0)
(1.30411e-05 1.23164e-05 0)
(1.34984e-05 1.28088e-05 0)
(1.39564e-05 1.3291e-05 0)
(4.66739e-06 3.15004e-06 0)
(5.13256e-06 3.64836e-06 0)
(5.6047e-06 4.16012e-06 0)
(6.07685e-06 4.68326e-06 0)
(6.5509e-06 5.21427e-06 0)
(7.02435e-06 5.75085e-06 0)
(7.49727e-06 6.29076e-06 0)
(7.96868e-06 6.83227e-06 0)
(8.43839e-06 7.3739e-06 0)
(8.90605e-06 7.91441e-06 0)
(9.37158e-06 8.45278e-06 0)
(9.83497e-06 8.98812e-06 0)
(1.02963e-05 9.51966e-06 0)
(1.07558e-05 1.00467e-05 0)
(1.12138e-05 1.05685e-05 0)
(1.16704e-05 1.10842e-05 0)
(1.21261e-05 1.15931e-05 0)
(1.25814e-05 1.20939e-05 0)
(1.30364e-05 1.25848e-05 0)
(1.3492e-05 1.30649e-05 0)
(4.41146e-06 2.95592e-06 0)
(4.85454e-06 3.44573e-06 0)
(5.3053e-06 3.95107e-06 0)
(5.75744e-06 4.46933e-06 0)
(6.21275e-06 4.9969e-06 0)
(6.66894e-06 5.53123e-06 0)
(7.12609e-06 6.0699e-06 0)
(7.58326e-06 6.61097e-06 0)
(8.04022e-06 7.15273e-06 0)
(8.49659e-06 7.69379e-06 0)
(8.95225e-06 8.23293e-06 0)
(9.40709e-06 8.76913e-06 0)
(9.86114e-06 9.30149e-06 0)
(1.03145e-05 9.82917e-06 0)
(1.07673e-05 1.03514e-05 0)
(1.12198e-05 1.08672e-05 0)
(1.16721e-05 1.13758e-05 0)
(1.21245e-05 1.1876e-05 0)
(1.25771e-05 1.2366e-05 0)
(1.30301e-05 1.28448e-05 0)
(4.15833e-06 2.77202e-06 0)
(4.57932e-06 3.25395e-06 0)
(5.00862e-06 3.75313e-06 0)
(5.44066e-06 4.26655e-06 0)
(5.87709e-06 4.79047e-06 0)
(6.31589e-06 5.32221e-06 0)
(6.7571e-06 5.85914e-06 0)
(7.19986e-06 6.39917e-06 0)
(7.64391e-06 6.94042e-06 0)
(8.08885e-06 7.48134e-06 0)
(8.53448e-06 8.02058e-06 0)
(8.98064e-06 8.55698e-06 0)
(9.42727e-06 9.08953e-06 0)
(9.87435e-06 9.61731e-06 0)
(1.03219e-05 1.01395e-05 0)
(1.07701e-05 1.06551e-05 0)
(1.12189e-05 1.11633e-05 0)
(1.16684e-05 1.1663e-05 0)
(1.21185e-05 1.21525e-05 0)
(1.2569e-05 1.26309e-05 0)
(3.9037e-06 2.59808e-06 0)
(4.30248e-06 3.07276e-06 0)
(4.71024e-06 3.56608e-06 0)
(5.12213e-06 4.0747e-06 0)
(5.53966e-06 4.59483e-06 0)
(5.96106e-06 5.12364e-06 0)
(6.38636e-06 5.65837e-06 0)
(6.81476e-06 6.1968e-06 0)
(7.24596e-06 6.73691e-06 0)
(7.67954e-06 7.27705e-06 0)
(8.11524e-06 7.81572e-06 0)
(8.5528e-06 8.35169e-06 0)
(8.99208e-06 8.88384e-06 0)
(9.43297e-06 9.41119e-06 0)
(9.87539e-06 9.93283e-06 0)
(1.03193e-05 1.04479e-05 0)
(1.07646e-05 1.09555e-05 0)
(1.12112e-05 1.14547e-05 0)
(1.16588e-05 1.19442e-05 0)
(1.21069e-05 1.24231e-05 0)
(3.64308e-06 2.43363e-06 0)
(4.01942e-06 2.90169e-06 0)
(4.40552e-06 3.38944e-06 0)
(4.79725e-06 3.89334e-06 0)
(5.19595e-06 4.40954e-06 0)
(5.60012e-06 4.93511e-06 0)
(6.00974e-06 5.46722e-06 0)
(6.42405e-06 6.00352e-06 0)
(6.84272e-06 6.54193e-06 0)
(7.26527e-06 7.08066e-06 0)
(7.69138e-06 7.61816e-06 0)
(8.12069e-06 8.15309e-06 0)
(8.55296e-06 8.68428e-06 0)
(8.98794e-06 9.21069e-06 0)
(9.42545e-06 9.73141e-06 0)
(9.86531e-06 1.02456e-05 0)
(1.03073e-05 1.07524e-05 0)
(1.07512e-05 1.12512e-05 0)
(1.11965e-05 1.17408e-05 0)
(1.16423e-05 1.22208e-05 0)
(3.37186e-06 2.27918e-06 0)
(3.72541e-06 2.74108e-06 0)
(4.08968e-06 3.22341e-06 0)
(4.4613e-06 3.72253e-06 0)
(4.84139e-06 4.23455e-06 0)
(5.22866e-06 4.7565e-06 0)
(5.62303e-06 5.28548e-06 0)
(6.02377e-06 5.81909e-06 0)
(6.43049e-06 6.35516e-06 0)
(6.84263e-06 6.89186e-06 0)
(7.25977e-06 7.42756e-06 0)
(7.68145e-06 7.96087e-06 0)
(8.10729e-06 8.49055e-06 0)
(8.53693e-06 9.01554e-06 0)
(8.97002e-06 9.53492e-06 0)
(9.40625e-06 1.00479e-05 0)
(9.84529e-06 1.05538e-05 0)
(1.02867e-05 1.1052e-05 0)
(1.07299e-05 1.15419e-05 0)
(1.11739e-05 1.20235e-05 0)
(3.08467e-06 2.13397e-06 0)
(3.415e-06 2.59008e-06 0)
(3.75732e-06 3.06708e-06 0)
(4.10899e-06 3.56132e-06 0)
(4.47085e-06 4.06891e-06 0)
(4.8418e-06 4.58685e-06 0)
(5.22164e-06 5.11222e-06 0)
(5.60964e-06 5.6426e-06 0)
(6.0053e-06 6.17578e-06 0)
(6.40798e-06 6.70987e-06 0)
(6.81712e-06 7.24321e-06 0)
(7.23214e-06 7.77437e-06 0)
(7.65249e-06 8.30207e-06 0)
(8.07766e-06 8.82524e-06 0)
(8.50715e-06 9.34294e-06 0)
(8.94046e-06 9.85441e-06 0)
(9.37712e-06 1.03591e-05 0)
(9.81653e-06 1.08566e-05 0)
(1.02581e-05 1.13468e-05 0)
(1.07006e-05 1.18302e-05 0)
(2.77616e-06 2.00021e-06 0)
(3.08282e-06 2.4504e-06 0)
(3.40315e-06 2.92171e-06 0)
(3.73518e-06 3.41056e-06 0)
(4.07942e-06 3.9131e-06 0)
(4.43488e-06 4.42635e-06 0)
(4.8012e-06 4.94739e-06 0)
(5.1776e-06 5.47379e-06 0)
(5.56343e-06 6.00333e-06 0)
(5.95793e-06 6.53411e-06 0)
(6.36039e-06 7.06444e-06 0)
(6.77005e-06 7.59286e-06 0)
(7.18622e-06 8.11808e-06 0)
(7.60817e-06 8.639e-06 0)
(8.03521e-06 9.1547e-06 0)
(8.46664e-06 9.66444e-06 0)
(8.90181e-06 1.01677e-05 0)
(9.33998e-06 1.06644e-05 0)
(9.7804e-06 1.11547e-05 0)
(1.02219e-05 1.16396e-05 0)
(2.43858e-06 1.87482e-06 0)
(2.72127e-06 2.31898e-06 0)
(3.01983e-06 2.78431e-06 0)
(3.33287e-06 3.26741e-06 0)
(3.66049e-06 3.76444e-06 0)
(4.00173e-06 4.27249e-06 0)
(4.356e-06 4.78866e-06 0)
(4.72241e-06 5.31054e-06 0)
(5.10013e-06 5.83591e-06 0)
(5.48823e-06 6.36287e-06 0)
(5.88581e-06 6.88972e-06 0)
(6.29196e-06 7.41499e-06 0)
(6.70574e-06 7.93738e-06 0)
(7.12625e-06 8.45579e-06 0)
(7.55256e-06 8.96928e-06 0)
(7.98374e-06 9.47714e-06 0)
(8.41887e-06 9.97892e-06 0)
(8.85698e-06 1.04746e-05 0)
(9.29716e-06 1.09647e-05 0)
(9.73825e-06 1.14506e-05 0)
(2.0674e-06 1.76502e-06 0)
(2.32594e-06 2.20172e-06 0)
(2.60325e-06 2.65961e-06 0)
(2.89822e-06 3.13548e-06 0)
(3.21053e-06 3.62562e-06 0)
(3.5391e-06 4.12713e-06 0)
(3.8831e-06 4.63717e-06 0)
(4.24141e-06 5.15334e-06 0)
(4.61301e-06 5.67346e-06 0)
(4.99676e-06 6.19562e-06 0)
(5.39157e-06 6.71813e-06 0)
(5.79629e-06 7.23951e-06 0)
(6.20981e-06 7.75849e-06 0)
(6.63098e-06 8.27394e-06 0)
(7.05864e-06 8.78496e-06 0)
(7.49159e-06 9.29082e-06 0)
(7.92861e-06 9.79112e-06 0)
(8.36833e-06 1.02858e-05 0)
(8.80963e-06 1.07755e-05 0)
(9.25102e-06 1.12617e-05 0)
(2.96537e-07 3.17872e-08 0)
(8.95877e-07 1.96774e-07 0)
(1.53287e-06 5.04122e-07 0)
(2.21575e-06 9.33805e-07 0)
(2.95752e-06 1.474e-06 0)
(3.76234e-06 2.10559e-06 0)
(4.6334e-06 2.80803e-06 0)
(5.56923e-06 3.55976e-06 0)
(6.56699e-06 4.33911e-06 0)
(7.62144e-06 5.12792e-06 0)
(2.79325e-07 2.83749e-08 0)
(8.44488e-07 1.7659e-07 0)
(1.44363e-06 4.55618e-07 0)
(2.08314e-06 8.49292e-07 0)
(2.77487e-06 1.34867e-06 0)
(3.52268e-06 1.9377e-06 0)
(4.32982e-06 2.59853e-06 0)
(5.19497e-06 3.31216e-06 0)
(6.11491e-06 4.05783e-06 0)
(7.08421e-06 4.821e-06 0)
(2.63853e-07 2.43569e-08 0)
(7.98382e-07 1.56191e-07 0)
(1.36403e-06 4.08775e-07 0)
(1.96512e-06 7.6888e-07 0)
(2.61218e-06 1.22977e-06 0)
(3.30851e-06 1.77782e-06 0)
(4.05756e-06 2.39752e-06 0)
(4.85883e-06 3.07247e-06 0)
(5.71104e-06 3.78385e-06 0)
(6.6084e-06 4.52113e-06 0)
(2.4969e-07 1.96976e-08 0)
(7.56368e-07 1.35699e-07 0)
(1.29236e-06 3.64372e-07 0)
(1.86008e-06 6.94591e-07 0)
(2.46892e-06 1.12124e-06 0)
(3.12133e-06 1.63259e-06 0)
(3.82053e-06 2.21478e-06 0)
(4.56562e-06 2.85316e-06 0)
(5.35665e-06 3.52995e-06 0)
(6.18662e-06 4.23595e-06 0)
(2.36455e-07 1.43535e-08 0)
(7.17168e-07 1.14428e-07 0)
(1.22595e-06 3.20446e-07 0)
(1.76345e-06 6.22842e-07 0)
(2.33809e-06 1.0177e-06 0)
(2.9515e-06 1.49479e-06 0)
(3.60686e-06 2.04174e-06 0)
(4.3029e-06 2.64553e-06 0)
(5.04101e-06 3.28988e-06 0)
(5.81201e-06 3.96555e-06 0)
(2.24028e-07 8.4082e-09 0)
(6.80424e-07 9.24945e-08 0)
(1.16414e-06 2.77172e-07 0)
(1.67425e-06 5.54014e-07 0)
(2.21831e-06 9.19966e-07 0)
(2.79708e-06 1.3659e-06 0)
(3.41361e-06 1.88052e-06 0)
(4.06603e-06 2.45185e-06 0)
(4.75699e-06 3.06506e-06 0)
(5.47582e-06 3.7104e-06 0)
(2.12166e-07 1.8377e-09 0)
(6.45378e-07 6.95982e-08 0)
(1.10548e-06 2.33671e-07 0)
(1.59016e-06 4.86476e-07 0)
(2.10622e-06 8.25591e-07 0)
(2.6537e-06 1.24273e-06 0)
(3.23552e-06 1.72756e-06 0)
(3.84928e-06 2.26888e-06 0)
(4.49846e-06 2.85329e-06 0)
(5.17137e-06 3.47008e-06 0)
(2.00772e-07 -5.27818e-09 0)
(6.11723e-07 4.58218e-08 0)
(1.04939e-06 1.89945e-07 0)
(1.51019e-06 4.2013e-07 0)
(2.00031e-06 7.34399e-07 0)
(2.51909e-06 1.12506e-06 0)
(3.06936e-06 1.58249e-06 0)
(3.64827e-06 2.09604e-06 0)
(4.25986e-06 2.65358e-06 0)
(4.89211e-06 3.24367e-06 0)
(1.89702e-07 -1.29392e-08 0)
(5.79031e-07 2.10474e-08 0)
(9.95072e-07 1.45602e-07 0)
(1.43308e-06 3.54227e-07 0)
(1.89875e-06 6.45249e-07 0)
(2.39082e-06 1.01139e-06 0)
(2.91201e-06 1.44364e-06 0)
(3.45919e-06 1.9317e-06 0)
(4.03665e-06 2.46453e-06 0)
(4.63252e-06 3.03009e-06 0)
(1.78874e-07 -2.10963e-08 0)
(5.47048e-07 -4.68712e-09 0)
(9.42043e-07 1.00588e-07 0)
(1.35805e-06 2.88585e-07 0)
(1.8003e-06 5.57804e-07 0)
(2.26706e-06 9.01234e-07 0)
(2.76094e-06 1.3103e-06 0)
(3.27872e-06 1.77494e-06 0)
(3.82469e-06 2.28504e-06 0)
(4.38757e-06 2.82822e-06 0)
(1.68198e-07 -2.97432e-08 0)
(5.15522e-07 -3.14365e-08 0)
(8.89834e-07 5.47118e-08 0)
(1.28431e-06 2.22843e-07 0)
(1.70378e-06 4.71511e-07 0)
(2.14615e-06 7.93845e-07 0)
(2.61391e-06 1.18157e-06 0)
(3.10394e-06 1.62481e-06 0)
(3.62037e-06 2.11411e-06 0)
(4.15279e-06 2.63702e-06 0)
(1.57619e-07 -3.88659e-08 0)
(4.84293e-07 -5.92087e-08 0)
(8.38123e-07 7.90826e-09 0)
(1.21129e-06 1.56881e-07 0)
(1.60824e-06 3.86166e-07 0)
(2.02665e-06 6.8891e-07 0)
(2.46894e-06 1.057e-06 0)
(2.9322e-06 1.48068e-06 0)
(3.42037e-06 1.95103e-06 0)
(3.92404e-06 2.45567e-06 0)
(1.47102e-07 -4.84861e-08 0)
(4.53291e-07 -8.80883e-08 0)
(7.86702e-07 -3.99708e-08 0)
(1.13853e-06 9.05041e-08 0)
(1.51284e-06 3.01519e-07 0)
(1.90724e-06 5.86103e-07 0)
(2.32414e-06 9.36175e-07 0)
(2.76099e-06 1.34205e-06 0)
(3.22151e-06 1.79518e-06 0)
(3.69741e-06 2.28342e-06 0)
(1.36646e-07 -5.86845e-08 0)
(4.22563e-07 -1.18178e-07 0)
(7.35504e-07 -8.89809e-08 0)
(1.06569e-06 2.37617e-08 0)
(1.41684e-06 2.17679e-07 0)
(1.78669e-06 4.85542e-07 0)
(2.17771e-06 8.19156e-07 0)
(2.58788e-06 1.20888e-06 0)
(3.02069e-06 1.64645e-06 0)
(3.46907e-06 2.12002e-06 0)
(1.26342e-07 -6.96109e-08 0)
(3.92479e-07 -1.49738e-07 0)
(6.84801e-07 -1.39355e-07 0)
(9.92706e-07 -4.34946e-08 0)
(1.31966e-06 1.34575e-07 0)
(1.66379e-06 3.87165e-07 0)
(2.02779e-06 7.0585e-07 0)
(2.4103e-06 1.081e-06 0)
(2.81465e-06 1.50456e-06 0)
(3.23501e-06 1.96506e-06 0)
(1.16392e-07 -8.17709e-08 0)
(3.63667e-07 -1.83153e-07 0)
(6.35069e-07 -1.9102e-07 0)
(9.19608e-07 -1.10691e-07 0)
(1.22071e-06 5.31041e-08 0)
(1.53729e-06 2.92028e-07 0)
(1.87244e-06 5.9733e-07 0)
(2.2256e-06 9.59405e-07 0)
(2.60001e-06 1.37038e-06 0)
(2.99113e-06 1.81922e-06 0)
(1.07528e-07 -9.57708e-08 0)
(3.38022e-07 -2.1918e-07 0)
(5.87874e-07 -2.44461e-07 0)
(8.47065e-07 -1.78134e-07 0)
(1.11961e-06 -2.68914e-08 0)
(1.40577e-06 1.99985e-07 0)
(1.70931e-06 4.93397e-07 0)
(2.03055e-06 8.43778e-07 0)
(2.37271e-06 1.24345e-06 0)
(2.73253e-06 1.68187e-06 0)
(1.01338e-07 -1.142e-07 0)
(3.17815e-07 -2.58992e-07 0)
(5.448e-07 -2.98645e-07 0)
(7.75448e-07 -2.4321e-07 0)
(1.01567e-06 -1.02067e-07 0)
(1.26755e-06 1.14645e-07 0)
(1.53582e-06 3.97614e-07 0)
(1.82175e-06 7.37486e-07 0)
(2.1286e-06 1.12684e-06 0)
(2.45431e-06 1.55573e-06 0)
(1.05402e-07 -1.38994e-07 0)
(3.11228e-07 -3.04046e-07 0)
(5.1104e-07 -3.54554e-07 0)
(7.06562e-07 -3.07346e-07 0)
(9.08052e-07 -1.74145e-07 0)
(1.11988e-06 3.39293e-08 0)
(1.34781e-06 3.07612e-07 0)
(1.59387e-06 6.37888e-07 0)
(1.86134e-06 1.0177e-06 0)
(2.14918e-06 1.43772e-06 0)
(1.36244e-07 -1.83901e-07 0)
(3.2371e-07 -3.55393e-07 0)
(4.89178e-07 -4.05158e-07 0)
(6.40181e-07 -3.59674e-07 0)
(7.95475e-07 -2.31582e-07 0)
(9.60619e-07 -3.07395e-08 0)
(1.14253e-06 2.34246e-07 0)
(1.34359e-06 5.55145e-07 0)
(1.56717e-06 9.25368e-07 0)
(1.81278e-06 1.33631e-06 0)
)
;

boundaryField
{
    left
    {
        type            fixedDisplacement;
        value           uniform (0 0 0);
    }
    right
    {
        type            solidTraction;
        tractionSeries  
{
        file            "$FOAM_CASE/constant/timeVsTraction";
        outOfBounds     clamp;
}
        pressure        uniform 0;
        secondOrder     false;
        setEffectiveTraction false;
        relaxationFactor 1;
        value           nonuniform List<vector> 
30
(
(2.45432e-05 1.7994e-05 4.4426e-22)
(2.39713e-05 1.77878e-05 4.83144e-23)
(2.33943e-05 1.75829e-05 -1.79663e-25)
(2.28106e-05 1.73757e-05 4.63462e-22)
(2.22204e-05 1.71638e-05 -2.08282e-22)
(2.16249e-05 1.6945e-05 -1.82701e-22)
(2.10263e-05 1.6718e-05 -9.52005e-23)
(2.0427e-05 1.64822e-05 -2.96464e-22)
(1.98298e-05 1.62376e-05 3.02649e-22)
(1.92371e-05 1.59847e-05 2.07742e-22)
(1.86766e-05 1.5736e-05 3.48949e-24)
(1.81451e-05 1.54915e-05 1.07478e-36)
(1.76212e-05 1.52433e-05 1.11638e-22)
(1.71059e-05 1.49928e-05 1.09677e-22)
(1.65997e-05 1.47416e-05 -2.1557e-22)
(1.61015e-05 1.44913e-05 7.07806e-37)
(1.5612e-05 1.4243e-05 1.40143e-36)
(1.51302e-05 1.39983e-05 -1.02513e-22)
(1.46552e-05 1.37584e-05 1.01173e-22)
(1.41856e-05 1.35242e-05 6.8279e-37)
(1.37199e-05 1.32965e-05 6.85045e-37)
(1.32567e-05 1.30756e-05 6.82654e-37)
(1.27942e-05 1.28617e-05 3.41385e-37)
(1.23309e-05 1.26547e-05 -1.22626e-38)
(1.18652e-05 1.24541e-05 -3.6605e-37)
(1.13958e-05 1.2259e-05 -1.05402e-36)