/*--------------------------------*- C++ -*----------------------------------*\
  =========                 |
  \\      /  F ield         | OpenFOAM: The Open Source CFD Toolbox
   \\    /   O peration     | Website:  https://openfoam.org
    \\  /    A nd           | Version:  9
     \\/     M anipulation  |
\*---------------------------------------------------------------------------*/
FoamFile
{
    format      ascii;
    class       volScalarField;
    location    "15";
    object      epsilonEq;
}
// * * * * * * * * * * * * * * * * * * * * * * * * * * * * * * * * * * * * * //

dimensions      [0 0 0 0 0 0 0];

internalField   nonuniform List<scalar> 
1000
(
1.0239e-05
9.7159e-06
9.56138e-06
9.64022e-06
9.64823e-06
9.62871e-06
9.56176e-06
9.45978e-06
9.34602e-06
9.20357e-06
1.19555e-05
1.08505e-05
1.03016e-05
1.01428e-05
9.99284e-06
9.86642e-06
9.72016e-06
9.56475e-06
9.38941e-06
9.23412e-06
1.35728e-05
1.19263e-05
1.09673e-05
1.05373e-05
1.0208e-05
9.95508e-06
9.71692e-06
9.49447e-06
9.26172e-06
9.07489e-06
1.50928e-05
1.29288e-05
1.15582e-05
1.08325e-05
1.03043e-05
9.91012e-06
9.57129e-06
9.2777e-06
8.98958e-06
8.76959e-06
1.66086e-05
1.38665e-05
1.20905e-05
1.10403e-05
1.02899e-05
9.73867e-06
9.29062e-06
8.92128e-06
8.58086e-06
8.32562e-06
1.80393e-05
1.47383e-05
1.25471e-05
1.11559e-05
1.01685e-05
9.4501e-06
8.88898e-06
8.44293e-06
8.05345e-06
7.76204e-06
1.91003e-05
1.54496e-05
1.2825e-05
1.11146e-05
9.90318e-06
9.03189e-06
8.37047e-06
7.8582e-06
7.4302e-06
7.10637e-06
2.00765e-05
1.59503e-05
1.28658e-05
1.08828e-05
9.48936e-06
8.5056e-06
7.77612e-06
7.22268e-06
6.77582e-06
6.43062e-06
2.09983e-05
1.59501e-05
1.24836e-05
1.02964e-05
8.85789e-06
7.85957e-06
7.13534e-06
6.58783e-06
6.15259e-06
5.80325e-06
2.20023e-05
1.50596e-05
1.15512e-05
9.49905e-06
8.23373e-06
7.34972e-06
6.70189e-06
6.19652e-06
5.78785e-06
5.4404e-06
2.81879e-08
8.26803e-08
3.7207e-07
7.69325e-07
1.20531e-06
1.6555e-06
2.09286e-06
2.50981e-06
2.89291e-06
3.24826e-06
9.74727e-08
5.14815e-07
1.09658e-06
1.66873e-06
2.17612e-06
2.62697e-06
3.02052e-06
3.37296e-06
3.67568e-06
3.96019e-06
4.244e-07
1.22347e-06
1.95677e-06
2.62047e-06
3.17374e-06
3.63385e-06
4.00815e-06
4.32242e-06
4.56858e-06
4.80154e-06
9.74493e-07
2.08888e-06
2.91529e-06
3.61526e-06
4.17261e-06
4.62009e-06
4.96793e-06
5.24657e-06
5.44627e-06
5.63845e-06
1.75604e-06
3.06364e-06
3.94385e-06
4.6495e-06
5.1812e-06
5.59331e-06
5.90008e-06
6.13499e-06
6.28713e-06
6.4379e-06
2.76552e-06
4.10079e-06
4.98165e-06
5.66758e-06
6.15471e-06
6.51738e-06
6.77359e-06
6.95846e-06
7.06205e-06
7.16925e-06
3.9827e-06
5.18267e-06
6.00047e-06
6.63903e-06
7.06667e-06
7.37048e-06
7.5699e-06
7.70062e-06
7.75536e-06
7.81651e-06
5.37689e-06
6.29455e-06
6.97604e-06
7.53352e-06
7.88621e-06
8.12346e-06
8.26319e-06
8.33799e-06
8.34806e-06
8.36048e-06
6.91189e-06
7.42549e-06
7.8971e-06
8.33625e-06
8.59619e-06
8.75899e-06
8.83493e-06
8.85364e-06
8.82112e-06
8.79136e-06
8.54373e-06
8.56944e-06
8.75868e-06
9.03769e-06
9.18273e-06
9.25895e-06
9.26604e-06
9.22293e-06
9.16183e-06
9.0649e-06
3.56836e-06
3.84358e-06
4.09882e-06
4.32964e-06
4.53832e-06
4.72608e-06
4.89465e-06
5.04527e-06
5.17948e-06
5.29829e-06
5.4028e-06
5.4937e-06
5.57162e-06
5.63693e-06
5.6898e-06
5.73051e-06
5.75891e-06
5.77591e-06
5.78129e-06
5.77795e-06
4.18038e-06
4.34087e-06
4.50287e-06
4.65341e-06
4.79463e-06
4.92588e-06
5.04718e-06
5.15847e-06
5.26012e-06
5.35222e-06
5.43517e-06
5.50916e-06
5.57446e-06
5.63123e-06
5.67949e-06
5.71929e-06
5.75002e-06
5.77136e-06
5.78042e-06
5.77533e-06
4.93186e-06
4.98334e-06
5.04929e-06
5.11289e-06
5.17757e-06
5.24202e-06
5.30575e-06
5.36768e-06
5.42755e-06
5.48456e-06
5.53855e-06
5.58908e-06
5.636e-06
5.67901e-06
5.7177e-06
5.75152e-06
5.77893e-06
5.79821e-06
5.80347e-06
5.79126e-06
5.69433e-06
5.65489e-06
5.63803e-06
5.62469e-06
5.61873e-06
5.61926e-06
5.62619e-06
5.63783e-06
5.65401e-06
5.67325e-06
5.69515e-06
5.71874e-06
5.74347e-06
5.7686e-06
5.79321e-06
5.81622e-06
5.83532e-06
5.84825e-06
5.84797e-06
5.83133e-06
6.42807e-06
6.31373e-06
6.22566e-06
6.14615e-06
6.07801e-06
6.02051e-06
5.97468e-06
5.93817e-06
5.9115e-06
5.89269e-06
5.88145e-06
5.87643e-06
5.8769e-06
5.88174e-06
5.88973e-06
5.89943e-06
5.90817e-06
5.91353e-06
5.90869e-06
5.89106e-06
7.10142e-06
6.92742e-06
6.78036e-06
6.64536e-06
6.52514e-06
6.41731e-06
6.32537e-06
6.24558e-06
6.17957e-06
6.12492e-06
6.08161e-06
6.04816e-06
6.02382e-06
6.00735e-06
5.99745e-06
5.99258e-06
5.99028e-06
5.98827e-06
5.98112e-06
5.96653e-06
7.69826e-06
7.47934e-06
7.28746e-06
7.10669e-06
6.94501e-06
6.79417e-06
6.6623e-06
6.54394e-06
6.44215e-06
6.3544e-06
6.28097e-06
6.22043e-06
6.17207e-06
6.13469e-06
6.10709e-06
6.08783e-06
6.075e-06
6.06662e-06
6.05944e-06
6.05114e-06
8.20206e-06
7.95166e-06
7.73245e-06
7.51394e-06
7.32189e-06
7.13761e-06
6.97406e-06
6.82424e-06
6.69187e-06
6.57491e-06
6.4739e-06
6.38788e-06
6.3164e-06
6.25855e-06
6.21348e-06
6.18007e-06
6.15727e-06
6.14352e-06
6.13821e-06
6.13881e-06
8.61128e-06
8.33268e-06
8.11368e-06
7.86876e-06
7.65343e-06
7.44192e-06
7.25031e-06
7.07343e-06
6.91448e-06
6.77237e-06
6.64746e-06
6.5392e-06
6.4473e-06
6.37117e-06
6.3104e-06
6.26425e-06
6.23275e-06
6.21483e-06
6.21277e-06
6.22367e-06
8.91648e-06
8.61821e-06
8.41347e-06
8.17061e-06
7.94584e-06
7.72256e-06
7.51134e-06
7.31283e-06
7.13004e-06
6.96391e-06
6.81534e-06
6.68455e-06
6.5717e-06
6.47663e-06
6.39947e-06
6.33995e-06
6.29921e-06
6.27681e-06
6.27806e-06
6.29991e-06
9.03561e-06
8.75597e-06
8.55345e-06
8.32477e-06
8.10026e-06
7.87709e-06
7.66189e-06
7.45672e-06
7.26499e-06
7.08821e-06
6.92796e-06
6.78499e-06
6.66005e-06
6.55348e-06
6.46604e-06
6.39804e-06
6.35169e-06
6.32706e-06
6.33185e-06
6.36294e-06
8.80419e-06
8.6602e-06
8.47453e-06
8.27581e-06
8.07298e-06
7.86822e-06
7.66776e-06
7.47384e-06
7.2902e-06
7.11873e-06
6.9615e-06
6.81971e-06
6.69462e-06
6.58707e-06
6.49839e-06
6.42943e-06
6.38319e-06
6.36028e-06
6.37018e-06
6.40935e-06
8.6177e-06
8.50828e-06
8.36599e-06
8.1957e-06
8.01904e-06
7.83398e-06
7.64974e-06
7.46817e-06
7.29394e-06
7.12915e-06
6.97643e-06
6.83737e-06
6.71368e-06
6.60665e-06
6.51806e-06
6.44929e-06
6.40396e-06
6.38283e-06
6.39645e-06
6.44111e-06
8.39536e-06
8.32944e-06
8.22261e-06
8.08001e-06
7.92834e-06
7.76336e-06
7.59641e-06
7.42896e-06
7.26635e-06
7.11084e-06
6.96541e-06
6.83194e-06
6.71245e-06
6.60857e-06
6.52234e-06
6.45566e-06
6.41199e-06
6.39325e-06
6.41068e-06
6.45834e-06
8.14189e-06
8.1103e-06
8.03698e-06
7.92349e-06
7.79851e-06
7.65612e-06
7.50895e-06
7.35822e-06
7.20983e-06
7.06619e-06
6.93062e-06
6.80525e-06
6.69231e-06
6.59375e-06
6.51154e-06
6.44846e-06
6.40633e-06
6.39243e-06
6.40114e-06
6.45994e-06
7.872e-06
7.87106e-06
7.8279e-06
7.74176e-06
7.64196e-06
7.52191e-06
7.3948e-06
7.26171e-06
7.12887e-06
6.99878e-06
6.87496e-06
6.75967e-06
6.65537e-06
6.56399e-06
6.48797e-06
6.42925e-06
6.39194e-06
6.37806e-06
6.39629e-06
6.44236e-06
7.5905e-06
7.61482e-06
7.59802e-06
7.53747e-06
7.46158e-06
7.36374e-06
7.25696e-06
7.14234e-06
7.02617e-06
6.91101e-06
6.80049e-06
6.69694e-06
6.60289e-06
6.5203e-06
6.45158e-06
6.39854e-06
6.36513e-06
6.35211e-06
6.36898e-06
6.41231e-06
7.30314e-06
7.34842e-06
7.35459e-06
7.31716e-06
7.2633e-06
7.18666e-06
7.09978e-06
7.00377e-06
6.90482e-06
6.80549e-06
6.7094e-06
6.61887e-06
6.53642e-06
6.46391e-06
6.40364e-06
6.35715e-06
6.32788e-06
6.31669e-06
6.3315e-06
6.36899e-06
7.01249e-06
7.07439e-06
7.10006e-06
7.08329e-06
7.04963e-06
6.99318e-06
6.92569e-06
6.84832e-06
6.76697e-06
6.68418e-06
6.60343e-06
6.527e-06
6.45728e-06
6.396e-06
6.3452e-06
6.30614e-06
6.28164e-06
6.27206e-06
6.28407e-06
6.31458e-06
6.71982e-06
6.79476e-06
6.8369e-06
6.83846e-06
6.82327e-06
6.78589e-06
6.7372e-06
6.67832e-06
6.6148e-06
6.54905e-06
6.48437e-06
6.42291e-06
6.36686e-06
6.3178e-06
6.27742e-06
6.24667e-06
6.22753e-06
6.22007e-06
6.22893e-06
6.25129e-06
6.42469e-06
6.50962e-06
6.56564e-06
6.58355e-06
6.58542e-06
6.56626e-06
6.53594e-06
6.49553e-06
6.4501e-06
6.40188e-06
6.35393e-06
6.3082e-06
6.26668e-06
6.23071e-06
6.20162e-06
6.18001e-06
6.16701e-06
6.16217e-06
6.16799e-06
6.18192e-06
6.1257e-06
6.21839e-06
6.2863e-06
6.31915e-06
6.33715e-06
6.33569e-06
6.32359e-06
6.30178e-06
6.27481e-06
6.24467e-06
6.21408e-06
6.18479e-06
6.15851e-06
6.13639e-06
6.11937e-06
6.10771e-06
6.10168e-06
6.10028e-06
6.10369e-06
6.10947e-06
5.81995e-06
5.91906e-06
5.99774e-06
6.04486e-06
6.07874e-06
6.09505e-06
6.10151e-06
6.09884e-06
6.09098e-06
6.07962e-06
6.06712e-06
6.05497e-06
6.04462e-06
6.03698e-06
6.03268e-06
6.03167e-06
6.03345e-06
6.03645e-06
6.03854e-06
6.03716e-06
5.50465e-06
5.60989e-06
5.69914e-06
5.7608e-06
5.81106e-06
5.84588e-06
5.87177e-06
5.88918e-06
5.90138e-06
5.90971e-06
5.9161e-06
5.92177e-06
5.9279e-06
5.93521e-06
5.94408e-06
5.95421e-06
5.96451e-06
5.97292e-06
5.97514e-06
5.96821e-06
5.17481e-06
5.28738e-06
5.38839e-06
5.46612e-06
5.53443e-06
5.58946e-06
5.63646e-06
5.67555e-06
5.70925e-06
5.7385e-06
5.76479e-06
5.78904e-06
5.81217e-06
5.83472e-06
5.8569e-06
5.87833e-06
5.89754e-06
5.91216e-06
5.91622e-06
5.90599e-06
4.82862e-06
4.95127e-06
5.06653e-06
5.16307e-06
5.25202e-06
5.32975e-06
5.40012e-06
5.46287e-06
5.51974e-06
5.57125e-06
5.61843e-06
5.66189e-06
5.70229e-06
5.74005e-06
5.77528e-06
5.80765e-06
5.83565e-06
5.85684e-06
5.86434e-06
5.85343e-06
4.45922e-06
4.59731e-06
4.7317e-06
4.85183e-06
4.96575e-06
5.07002e-06
5.16707e-06
5.25625e-06
5.33853e-06
5.41403e-06
5.48331e-06
5.5467e-06
5.60461e-06
5.65733e-06
5.70495e-06
5.74726e-06
5.78306e-06
5.81022e-06
5.82225e-06
5.81351e-06
4.07396e-06
4.23465e-06
4.39428e-06
4.54347e-06
4.68701e-06
4.82161e-06
4.94834e-06
5.0662e-06
5.17549e-06
5.276e-06
5.36792e-06
5.45131e-06
5.52638e-06
5.59328e-06
5.65207e-06
5.70271e-06
5.74445e-06
5.77589e-06
5.79211e-06
5.7875e-06
3.66512e-06
3.86046e-06
4.05534e-06
4.24194e-06
4.42182e-06
4.59193e-06
4.75229e-06
4.90169e-06
5.04002e-06
5.16685e-06
5.28216e-06
5.38587e-06
5.47797e-06
5.55844e-06
5.62716e-06
5.68403e-06
5.72857e-06
5.76044e-06
5.7774e-06
5.77709e-06
3.28053e-06
3.52034e-06
3.75722e-06
3.98506e-06
4.20362e-06
4.40988e-06
4.60353e-06
4.78326e-06
4.94893e-06
5.1001e-06
5.23678e-06
5.35883e-06
5.46616e-06
5.55854e-06
5.63555e-06
5.69679e-06
5.7414e-06
5.76971e-06
5.78096e-06
5.77921e-06
5.14702e-06
5.49574e-06
6.09189e-06
6.7484e-06
7.40072e-06
7.97387e-06
8.43716e-06
8.76875e-06
8.97367e-06
9.01507e-06
4.87495e-06
5.20009e-06
5.74989e-06
6.36999e-06
7.00796e-06
7.59275e-06
8.0928e-06
8.47615e-06
8.74185e-06
8.84533e-06
4.63124e-06
4.94137e-06
5.45267e-06
6.03317e-06
6.64079e-06
7.21016e-06
7.71471e-06
8.12755e-06
8.44954e-06
8.64747e-06
4.40831e-06
4.70832e-06
5.18777e-06
5.73321e-06
6.31254e-06
6.86523e-06
7.36525e-06
7.78699e-06
8.12464e-06
8.38013e-06
4.19913e-06
4.49224e-06
4.94467e-06
5.45713e-06
6.00637e-06
6.53827e-06
7.02908e-06
7.45844e-06
7.80694e-06
8.09542e-06
4.00274e-06
4.29147e-06
4.72165e-06
5.20492e-06
5.72509e-06
6.23351e-06
6.70737e-06
7.13312e-06
7.48181e-06
7.79173e-06
3.81553e-06
4.10124e-06
4.51261e-06
4.96987e-06
5.46276e-06
5.94812e-06
6.40397e-06
6.82252e-06
7.16619e-06
7.48306e-06
3.63687e-06
3.92015e-06
4.31528e-06
4.74913e-06
5.2161e-06
5.67783e-06
6.11339e-06
6.52027e-06
6.85631e-06
7.17352e-06
3.46556e-06
3.74635e-06
4.12691e-06
4.53947e-06
4.98225e-06
5.42097e-06
5.83604e-06
6.2285e-06
6.55459e-06
6.86631e-06
3.30165e-06
3.57906e-06
3.94572e-06
4.33811e-06
4.75757e-06
5.17329e-06
5.56749e-06
5.94359e-06
6.25866e-06
6.56189e-06
3.14549e-06
3.418e-06
3.77042e-06
4.14283e-06
4.53935e-06
4.93198e-06
5.30514e-06
5.6634e-06
5.9664e-06
6.25912e-06
2.99833e-06
3.26353e-06
3.60011e-06
3.95148e-06
4.32438e-06
4.69321e-06
5.04485e-06
5.38423e-06
5.67448e-06
5.95567e-06
2.86266e-06
3.11683e-06
3.43401e-06
3.76153e-06
4.10889e-06
4.45254e-06
4.78186e-06
5.10149e-06
5.37845e-06
5.64769e-06
2.7422e-06
2.97964e-06
3.27177e-06
3.57095e-06
3.88945e-06
4.20577e-06
4.51152e-06
4.8106e-06
5.07395e-06
5.33132e-06
2.64411e-06
2.85481e-06
3.11122e-06
3.37406e-06
3.65843e-06
3.94452e-06
4.22545e-06
4.50369e-06
4.75378e-06
5.0002e-06
2.57678e-06
2.74365e-06
2.95013e-06
3.16739e-06
3.41144e-06
3.66408e-06
3.9189e-06
4.17634e-06
4.41411e-06
4.65113e-06
2.55892e-06
2.64888e-06
2.77636e-06
2.93196e-06
3.12812e-06
3.3452e-06
3.5748e-06
3.81393e-06
4.04282e-06
4.27443e-06
2.59379e-06
2.55247e-06
2.57642e-06
2.66178e-06
2.80633e-06
2.9878e-06
3.19478e-06
3.41961e-06
3.64464e-06
3.87601e-06
2.72791e-06
2.43078e-06
2.28936e-06
2.28893e-06
2.38795e-06
2.54496e-06
2.74206e-06
2.96546e-06
3.19914e-06
3.44198e-06
2.7823e-06
2.12928e-06
1.89537e-06
1.82819e-06
1.90492e-06
2.0549e-06
2.25932e-06
2.4976e-06
2.75428e-06
3.02164e-06
)
;

boundaryField
{
    left
    {
        type            calculated;
        value           nonuniform List<scalar> 
30
(
5.08845e-06
4.81947e-06
4.57868e-06
4.35833e-06
4.15202e-06
3.95878e-06
3.77533e-06
3.6012e-06
3.43545e-06
3.27839e-06
3.13066e-06
2.99378e-06
2.87049e-06
2.76493e-06
2.68459e-06
2.64051e-06
2.65503e-06
2.75508e-06
3.03363e-06
3.46553e-06
2.35217e-05
1.47934e-05
1.11756e-05
9.26295e-06
8.08981e-06
7.25511e-06
6.63076e-06
6.13533e-06
5.73089e-06
5.38191e-06
)
;
    }
    right
    {
        type            calculated;
        value           nonuniform List<scalar> 
30
(
5.77697e-06
5.77534e-06
5.79072e-06
5.83046e-06
5.89e-06
5.9655e-06
6.05032e-06
6.13841e-06
6.22373e-06
6.30068e-06
6.36398e-06
6.41115e-06
6.44314e-06
6.46053e-06
6.4605e-06
6.44425e-06
6.41432e-06
6.37069e-06
6.3159e-06
6.25218e-06
6.18238e-06
6.10953e-06
6.03689e-06
5.96773e-06
5.90542e-06
5.85291e-06
5.81322e-06
5.78747e-06
5.77732e-06
5.77809e-06
)
;
    }
    down
    {
        type            calculated;
        value           nonuniform List<scalar> 
30
(
2.22613e-08
2.74733e-08
2.70594e-07
6.53517e-07
1.09443e-06
1.55523e-06
2.00538e-06
2.43457e-06
2.82847e-06
3.19379e-06
3.52275e-06
3.80938e-06
4.07267e-06
4.30942e-06
4.52297e-06
4.71433e-06
4.88587e-06
5.03876e-06
5.17481e-06
5.29505e-06
5.40069e-06
5.49245e-06
5.57101e-06
5.63675e-06
5.68986e-06
5.73063e-06
5.75893e-06
5.77583e-06
5.78123e-06
5.77935e-06
)
;
    }
    up
    {
        type            calculated;
        value           nonuniform List<scalar> 
30
(
2.74066e-06
2.10411e-06
1.88248e-06
1.814e-06
1.8886e-06
2.03632e-06
2.23933e-06
2.4772e-06
2.73364e-06
3.00211e-06
3.26183e-06
3.50355e-06
3.74275e-06
3.97249e-06
4.19303e-06
4.401e-06
4.59628e-06
4.77743e-06
4.94438e-06
5.09667e-06
5.23432e-06
5.3572e-06
5.46521e-06
5.55813e-06
5.63552e-06
5.69697e-06
5.74159e-06
5.7698e-06
5.78085e-06
5.78007e-06
)
;
    }
    hole
    {
        type            calculated;
        value           nonuniform List<scalar> 
20
(
1.03091e-05
1.21263e-05
1.3836e-05
1.54327e-05
1.70657e-05
1.86876e-05
1.98274e-05
2.08223e-05
2.20234e-05
2.36014e-05
8.30127e-09
8.01032e-09
2.03958e-07
6.92475e-07
1.4541e-06
2.48189e-06
3.74276e-06
5.19969e-06
6.81044e-06
8.52316e-06
)
;
    }
    frontAndBack
    {
        type            empty;
    }
}


// ************************************************************************* //
