/*--------------------------------*- C++ -*----------------------------------*\
  =========                 |
  \\      /  F ield         | OpenFOAM: The Open Source CFD Toolbox
   \\    /   O peration     | Website:  https://openfoam.org
    \\  /    A nd           | Version:  9
     \\/     M anipulation  |
\*---------------------------------------------------------------------------*/
FoamFile
{
    format      ascii;
    class       volSymmTensorField;
    location    "15";
    object      epsilon;
}
// * * * * * * * * * * * * * * * * * * * * * * * * * * * * * * * * * * * * * //

dimensions      [0 0 0 0 0 0 0];

internalField   nonuniform List<symmTensor> 
1000
(
(6.28797e-06 -8.22117e-06 6.20315e-19 1.28156e-06 6.84749e-19 1.86374e-33)
(8.70197e-06 -6.33646e-06 -1.30452e-20 -1.5779e-06 7.27736e-21 0)
(9.87853e-06 -4.85818e-06 1.52257e-20 -2.91567e-06 -2.91519e-21 0)
(1.05448e-05 -3.74417e-06 3.91723e-21 -3.87368e-06 -2.78442e-21 0)
(1.08651e-05 -2.84284e-06 -1.65421e-20 -4.39931e-06 1.2045e-21 0)
(1.09738e-05 -2.14041e-06 -1.79657e-21 -4.73761e-06 1.95713e-21 0)
(1.09629e-05 -1.56797e-06 -1.50091e-20 -4.92034e-06 -8.05334e-21 0)
(1.0864e-05 -1.11328e-06 1.03058e-20 -5.01349e-06 4.81537e-21 0)
(1.07354e-05 -7.3496e-07 -5.30139e-21 -5.04746e-06 -6.03894e-21 0)
(1.05474e-05 -4.20252e-07 0 -5.05212e-06 0 0)
(8.47569e-06 -9.18703e-06 5.78577e-19 4.27187e-07 7.5026e-19 1.01729e-34)
(1.04142e-05 -6.54725e-06 0 -2.2064e-06 0 0)
(1.12038e-05 -4.67249e-06 1.21766e-20 -3.29395e-06 5.80421e-21 0)
(1.15773e-05 -3.33303e-06 -2.0898e-20 -4.09166e-06 -1.11426e-20 0)
(1.16708e-05 -2.30301e-06 -8.88165e-21 -4.48985e-06 -5.35562e-21 0)
(1.15995e-05 -1.53643e-06 6.1737e-21 -4.73767e-06 6.29907e-21 0)
(1.14431e-05 -9.35541e-07 6.92256e-21 -4.84956e-06 4.63909e-21 0)
(1.12306e-05 -4.79458e-07 1.6284e-20 -4.89927e-06 9.5032e-21 0)
(1.09917e-05 -1.09325e-07 0 -4.88268e-06 0 0)
(1.07387e-05 1.86639e-07 0 -4.8903e-06 0 0)
(1.09319e-05 -9.76959e-06 5.51796e-19 -7.41567e-07 8.25819e-19 0)
(1.21896e-05 -6.52323e-06 0 -2.90163e-06 0 0)
(1.24732e-05 -4.34184e-06 1.16088e-20 -3.63215e-06 6.01086e-21 0)
(1.24857e-05 -2.82824e-06 -3.49459e-21 -4.19325e-06 1.2267e-21 0)
(1.23129e-05 -1.70971e-06 -1.71218e-22 -4.42558e-06 7.57444e-23 0)
(1.20374e-05 -9.07404e-07 -5.75646e-21 -4.55663e-06 -5.96185e-21 0)
(1.17231e-05 -3.01989e-07 7.87962e-21 -4.58333e-06 3.64588e-21 0)
(1.13875e-05 1.39556e-07 -5.84401e-21 -4.57807e-06 -4.31653e-21 0)
(1.10475e-05 4.83299e-07 -4.77437e-22 -4.51458e-06 8.10417e-22 0)
(1.07192e-05 7.62485e-07 -1.23697e-21 -4.50828e-06 -5.32896e-22 0)
(1.3598e-05 -9.88142e-06 5.11582e-19 -2.19699e-06 9.25595e-19 -5.919e-35)
(1.39533e-05 -6.27556e-06 6.63287e-21 -3.60295e-06 -6.80641e-22 0)
(1.36566e-05 -3.88806e-06 -5.30296e-21 -3.912e-06 -3.00068e-21 0)
(1.32595e-05 -2.26195e-06 -3.37493e-21 -4.17838e-06 6.51836e-22 0)
(1.27888e-05 -1.10318e-06 6.01186e-21 -4.21622e-06 5.81928e-21 0)
(1.2294e-05 -2.97751e-07 -7.24762e-21 -4.21403e-06 -4.79453e-21 0)
(1.18151e-05 2.86505e-07 -6.26087e-21 -4.15119e-06 -4.45778e-21 0)
(1.13587e-05 6.97422e-07 -1.39535e-20 -4.0903e-06 -1.02129e-20 0)
(1.09242e-05 1.00068e-06 -1.99485e-21 -3.98889e-06 -2.44039e-21 0)
(1.0531e-05 1.24738e-06 3.41443e-21 -3.96456e-06 3.02242e-21 0)
(1.63781e-05 -9.53615e-06 4.72865e-19 -3.92101e-06 1.03255e-18 -1.20684e-33)
(1.56637e-05 -5.78356e-06 3.47928e-25 -4.34468e-06 1.66525e-26 0)
(1.47493e-05 -3.30756e-06 -1.71819e-20 -4.15479e-06 -8.43373e-21 0)
(1.38944e-05 -1.65147e-06 1.56956e-21 -4.06538e-06 -5.85296e-23 0)
(1.31003e-05 -5.11294e-07 -2.19892e-21 -3.87754e-06 2.23974e-22 0)
(1.23759e-05 2.5367e-07 5.21116e-21 -3.72809e-06 4.82096e-21 0)
(1.17328e-05 7.84949e-07 -5.88314e-22 -3.57384e-06 1.70342e-22 0)
(1.11611e-05 1.14311e-06 5.50908e-21 -3.45982e-06 3.68473e-21 0)
(1.06449e-05 1.38974e-06 -1.1804e-21 -3.33153e-06 -2.5438e-21 0)
(1.01957e-05 1.59058e-06 -2.17707e-21 -3.29299e-06 -1.76005e-21 0)
(1.89907e-05 -8.84409e-06 3.56366e-19 -5.5726e-06 9.9638e-19 -1.30136e-33)
(1.73421e-05 -4.96181e-06 3.17948e-25 -5.08836e-06 6.67876e-26 0)
(1.57372e-05 -2.56796e-06 -1.72992e-25 -4.32536e-06 -2.75566e-26 0)
(1.43889e-05 -9.9058e-07 1.38791e-21 -3.84176e-06 1.69595e-22 0)
(1.32551e-05 4.81753e-08 -7.43989e-21 -3.41559e-06 -4.53319e-21 0)
(1.23005e-05 7.16447e-07 8.5191e-23 -3.11891e-06 -6.32391e-25 0)
(1.1502e-05 1.15762e-06 5.53435e-21 -2.88266e-06 3.75366e-21 0)
(1.08273e-05 1.43947e-06 1.17633e-20 -2.72558e-06 8.61498e-21 0)
(1.02444e-05 1.61578e-06 2.13078e-21 -2.5841e-06 1.56556e-21 0)
(9.75112e-06 1.75975e-06 -3.71864e-21 -2.53776e-06 -2.9327e-21 0)
(2.13638e-05 -7.41679e-06 2.35288e-19 -7.02431e-06 7.71314e-19 -2.44052e-33)
(1.88517e-05 -3.75003e-06 4.99055e-21 -5.68455e-06 1.96369e-21 0)
(1.65002e-05 -1.62991e-06 5.2647e-21 -4.31649e-06 2.41502e-21 0)
(1.46675e-05 -2.84455e-07 -1.13861e-21 -3.45304e-06 -3.33248e-22 0)
(1.32147e-05 5.47625e-07 5.37286e-21 -2.81571e-06 3.60575e-21 0)
(1.20608e-05 1.05387e-06 -4.94381e-21 -2.40256e-06 -3.41878e-21 0)
(1.11375e-05 1.366e-06 1.41152e-21 -2.11342e-06 9.07974e-23 0)
(1.03863e-05 1.5504e-06 -4.41455e-21 -1.93581e-06 -2.89891e-21 0)
(9.75989e-06 1.64803e-06 -3.0725e-22 -1.80048e-06 3.74303e-23 0)
(9.23783e-06 1.72971e-06 -2.23728e-21 -1.75661e-06 -1.46232e-21 0)
(2.36717e-05 -5.32687e-06 1.02303e-19 -8.20176e-06 3.85473e-19 -6.10298e-35)
(2.00683e-05 -2.23674e-06 -1.32872e-20 -5.94594e-06 -4.80171e-21 0)
(1.69717e-05 -5.31878e-07 1.03333e-22 -3.9866e-06 5.62674e-23 0)
(1.47044e-05 3.91436e-07 1.66691e-21 -2.83881e-06 8.13838e-22 0)
(1.2995e-05 9.19362e-07 1.22788e-20 -2.07109e-06 6.13741e-21 0)
(1.17014e-05 1.2085e-06 -7.27933e-22 -1.61273e-06 -2.19858e-22 0)
(1.07016e-05 1.37033e-06 1.81217e-26 -1.32199e-06 3.56871e-27 0)
(9.9106e-06 1.45231e-06 -4.31815e-21 -1.1589e-06 -2.28123e-21 0)
(9.26752e-06 1.47796e-06 1.05315e-22 -1.05247e-06 4.2666e-24 0)
(8.73397e-06 1.50366e-06 3.23589e-22 -1.02278e-06 1.59004e-22 0)
(2.56604e-05 -2.31868e-06 -9.60404e-21 -9.12713e-06 -1.87045e-19 -4.41586e-34)
(2.06486e-05 -3.38207e-07 -1.46567e-20 -5.55953e-06 -5.99056e-21 0)
(1.68958e-05 5.49585e-07 1.52569e-21 -3.19829e-06 1.31992e-21 0)
(1.43228e-05 8.50657e-07 1.4529e-21 -1.92201e-06 1.08646e-21 0)
(1.25272e-05 1.00627e-06 -6.03857e-22 -1.20671e-06 -3.66167e-22 0)
(1.12142e-05 1.06328e-06 4.77917e-21 -8.17812e-07 1.74727e-21 0)
(1.02228e-05 1.08861e-06 2.62988e-22 -6.0001e-07 7.87569e-23 0)
(9.44421e-06 1.09052e-06 7.71252e-21 -4.91955e-07 2.95254e-21 0)
(8.81566e-06 1.07153e-06 1.70274e-21 -4.33756e-07 6.58593e-22 0)
(8.28724e-06 1.06262e-06 9.53138e-22 -4.25692e-07 3.84535e-22 0)
(2.75935e-05 2.13533e-06 -1.35653e-20 -8.66423e-06 -5.55679e-19 -2.42131e-33)
(2.01326e-05 2.47544e-06 -1.19159e-21 -3.64173e-06 -1.85104e-21 0)
(1.62131e-05 1.56095e-06 5.08176e-21 -1.67898e-06 2.17105e-21 0)
(1.37382e-05 1.05243e-06 2.63571e-22 -7.56189e-07 3.51887e-22 0)
(1.20773e-05 8.11555e-07 9.0509e-27 -3.77477e-07 8.64931e-27 0)
(1.08589e-05 7.03879e-07 4.85157e-21 -1.93624e-07 8.68762e-22 0)
(9.93125e-06 6.5748e-07 7.61324e-23 -1.12788e-07 2.24357e-23 0)
(9.18873e-06 6.3631e-07 3.71703e-21 -8.04367e-08 6.99958e-22 0)
(8.58098e-06 6.16268e-07 -4.15532e-23 -6.94265e-08 -2.67247e-24 0)
(8.05591e-06 6.04052e-07 -6.25774e-23 -7.41868e-08 -1.2785e-23 0)
(-2.70196e-08 2.00289e-08 3.09138e-20 -7.44817e-09 2.84534e-20 1.76617e-34)
(3.16706e-08 -6.80308e-08 -2.77729e-22 -1.14453e-08 2.35808e-20 1.40915e-36)
(3.19027e-07 -2.15374e-07 -3.5479e-21 -1.50309e-07 1.25036e-20 1.76031e-35)
(7.71569e-07 -3.33317e-07 -1.95412e-24 -3.57112e-07 1.62019e-20 0)
(1.29265e-06 -4.06085e-07 -4.75267e-22 -5.86889e-07 1.03602e-20 -1.4025e-36)
(1.83722e-06 -4.47602e-07 -4.86562e-21 -8.23208e-07 1.52817e-20 2.91173e-35)
(2.36921e-06 -4.63962e-07 1.0959e-21 -1.05135e-06 2.08704e-20 1.38033e-36)
(2.87643e-06 -4.65339e-07 -3.229e-21 -1.26698e-06 1.73048e-20 2.60209e-35)
(3.3419e-06 -4.53065e-07 2.61409e-21 -1.46562e-06 1.72487e-20 -1.0483e-35)
(3.77333e-06 -4.4351e-07 5.00116e-21 -1.64485e-06 8.19753e-21 -1.51066e-35)
(5.45034e-08 -7.34984e-08 3.16206e-20 -2.69986e-08 8.02105e-21 5.09511e-35)
(3.39355e-07 -3.99631e-07 3.92738e-21 -5.9335e-09 4.30885e-21 0)
(8.58071e-07 -7.59398e-07 -3.67561e-21 -2.21615e-07 -3.69224e-21 0)
(1.43452e-06 -1.03437e-06 3.54634e-23 -5.12507e-07 -3.05689e-21 0)
(2.01276e-06 -1.20349e-06 0 -8.02307e-07 0 0)
(2.5611e-06 -1.29836e-06 -5.57794e-21 -1.07539e-06 -8.28004e-22 0)
(3.06643e-06 -1.33261e-06 9.39583e-22 -1.32129e-06 4.80175e-21 0)
(3.53101e-06 -1.33039e-06 7.01572e-23 -1.54163e-06 2.58348e-22 0)
(3.9405e-06 -1.29369e-06 -3.00436e-21 -1.73547e-06 -8.73262e-21 0)
(4.32074e-06 -1.26442e-06 2.20373e-21 -1.90031e-06 3.42259e-22 0)
(8.61622e-08 -3.63344e-07 3.74574e-20 1.03372e-07 7.33677e-21 -2.28966e-36)
(6.31047e-07 -9.98118e-07 4.01673e-21 3.16203e-08 4.25621e-21 0)
(1.36292e-06 -1.44359e-06 4.20149e-21 -3.03516e-07 8.8021e-22 0)
(2.08094e-06 -1.74221e-06 2.15894e-22 -7.19313e-07 -2.94811e-21 0)
(2.7418e-06 -1.9068e-06 0 -1.10247e-06 0 0)
(3.32339e-06 -1.98431e-06 -6.24222e-21 -1.43909e-06 -1.62941e-21 0)
(3.82884e-06 -1.99384e-06 -8.51478e-21 -1.72229e-06 -2.3845e-21 0)
(4.27336e-06 -1.96215e-06 5.63282e-21 -1.96101e-06 3.44432e-21 0)
(4.64292e-06 -1.89282e-06 3.41615e-23 -2.15582e-06 1.09996e-22 0)
(4.98775e-06 -1.83453e-06 -5.06654e-21 -2.31429e-06 -3.20343e-21 0)
(1.34054e-07 -8.17257e-07 6.71396e-20 4.12685e-07 1.47501e-20 -5.16172e-35)
(1.0303e-06 -1.71504e-06 9.89604e-22 7.07462e-08 -3.57388e-21 0)
(1.95963e-06 -2.18333e-06 4.61692e-21 -4.13625e-07 9.02787e-22 0)
(2.80635e-06 -2.44625e-06 0 -9.52381e-07 0 0)
(3.54013e-06 -2.5552e-06 -7.86984e-21 -1.42171e-06 2.93073e-21 0)
(4.15404e-06 -2.57563e-06 9.30373e-23 -1.81954e-06 7.25538e-21 0)
(4.66201e-06 -2.53195e-06 -3.90286e-22 -2.14087e-06 -3.89788e-21 0)
(5.09115e-06 -2.45094e-06 -1.12512e-21 -2.40148e-06 -6.01689e-21 0)
(5.42585e-06 -2.33818e-06 2.57078e-21 -2.6029e-06 8.34213e-22 0)
(5.74124e-06 -2.24286e-06 4.79887e-21 -2.7614e-06 1.79998e-21 0)
(2.57379e-07 -1.45821e-06 7.76079e-20 8.42466e-07 3.77157e-20 1.77416e-34)
(1.59197e-06 -2.49519e-06 -8.10305e-21 6.13642e-08 5.42835e-21 0)
(2.71915e-06 -2.91613e-06 -4.9155e-21 -6.25263e-07 -1.44624e-21 0)
(3.67571e-06 -3.09154e-06 -1.32673e-21 -1.29811e-06 5.31772e-21 0)
(4.45791e-06 -3.10336e-06 -5.20926e-23 -1.8458e-06 3.28048e-22 0)
(5.08369e-06 -3.03522e-06 7.58138e-21 -2.29249e-06 -2.03393e-21 0)
(5.57895e-06 -2.91565e-06 3.30239e-21 -2.6399e-06 8.6678e-22 0)
(5.98166e-06 -2.76907e-06 0 -2.91232e-06 0 0)
(6.27488e-06 -2.60424e-06 -3.52466e-21 -3.11246e-06 -4.63933e-21 0)
(6.55565e-06 -2.46407e-06 1.40677e-21 -3.2649e-06 3.41362e-22 0)
(5.25141e-07 -2.30011e-06 1.46416e-19 1.32548e-06 6.19935e-20 -3.30234e-34)
(2.33493e-06 -3.28578e-06 3.30503e-21 1.69028e-09 -6.4419e-21 0)
(3.64895e-06 -3.57512e-06 -4.05938e-21 -9.15491e-07 -4.3785e-21 0)
(4.6879e-06 -3.6183e-06 8.92558e-22 -1.7199e-06 -2.47604e-21 0)
(5.48812e-06 -3.50708e-06 8.58789e-21 -2.32967e-06 2.87349e-21 0)
(6.09927e-06 -3.33475e-06 -8.28703e-21 -2.80776e-06 9.22532e-22 0)
(6.56121e-06 -3.12971e-06 -9.54166e-24 -3.1662e-06 2.19912e-22 0)
(6.92087e-06 -2.91187e-06 -6.45407e-21 -3.43772e-06 -4.44537e-21 0)
(7.16212e-06 -2.69344e-06 1.3502e-23 -3.62848e-06 8.63171e-23 0)
(7.39832e-06 -2.50613e-06 -7.0495e-21 -3.76759e-06 -3.22171e-21 0)
(1.01419e-06 -3.33413e-06 2.67153e-19 1.75955e-06 1.42843e-19 -3.99258e-34)
(3.26502e-06 -4.05539e-06 1.82946e-22 -1.28591e-07 -2.77061e-22 0)
(4.73177e-06 -4.12117e-06 -1.34123e-25 -1.27669e-06 2.28892e-25 0)
(5.81599e-06 -3.98777e-06 -8.77143e-21 -2.20047e-06 -6.1471e-21 0)
(6.60062e-06 -3.73308e-06 -1.4912e-21 -2.85408e-06 3.98246e-21 0)
(7.16832e-06 -3.44811e-06 -8.04028e-21 -3.34562e-06 -3.27154e-21 0)
(7.57432e-06 -3.15524e-06 1.44549e-20 -3.6987e-06 6.44248e-21 0)
(7.87213e-06 -2.86726e-06 -1.96906e-24 -3.95585e-06 1.72706e-22 0)
(8.05007e-06 -2.59883e-06 2.84728e-21 -4.12745e-06 -1.22908e-23 0)
(8.22906e-06 -2.3659e-06 -3.85648e-21 -4.24546e-06 -1.83567e-21 0)
(1.79579e-06 -4.5207e-06 4.16465e-19 2.04711e-06 2.60552e-19 -8.67724e-34)
(4.37894e-06 -4.77397e-06 4.71185e-21 -3.3919e-07 -5.62756e-21 0)
(5.93261e-06 -4.52907e-06 -1.82045e-21 -1.67721e-06 2.4241e-21 0)
(7.01274e-06 -4.17962e-06 1.1137e-21 -2.69079e-06 -1.73334e-21 0)
(7.74477e-06 -3.76737e-06 9.94159e-26 -3.36414e-06 -1.94722e-25 0)
(8.24019e-06 -3.36821e-06 9.33548e-21 -3.84979e-06 7.89369e-22 0)
(8.56933e-06 -2.99186e-06 7.04935e-22 -4.18305e-06 -3.0379e-21 0)
(8.78808e-06 -2.64147e-06 -2.38093e-22 -4.41333e-06 2.49997e-21 0)
(8.89471e-06 -2.33163e-06 3.03056e-23 -4.56131e-06 1.24849e-21 0)
(9.0036e-06 -2.05902e-06 2.94547e-21 -4.64984e-06 2.75308e-21 0)
(2.92408e-06 -5.79283e-06 5.38432e-19 2.10122e-06 4.25151e-19 1.23274e-33)
(5.66672e-06 -5.41253e-06 -1.51998e-21 -6.43747e-07 1.0318e-20 0)
(7.21418e-06 -4.78765e-06 -1.76063e-25 -2.09566e-06 1.84389e-25 0)
(8.22932e-06 -4.1924e-06 1.20732e-20 -3.15442e-06 2.83351e-21 0)
(8.86841e-06 -3.61461e-06 9.22095e-21 -3.81685e-06 4.60177e-21 0)
(9.26264e-06 -3.10521e-06 8.32106e-21 -4.27629e-06 4.15357e-21 0)
(9.495e-06 -2.65347e-06 -9.15337e-22 -4.57383e-06 2.61055e-21 0)
(9.6189e-06 -2.25353e-06 -1.00225e-20 -4.76882e-06 -5.59805e-21 0)
(9.64841e-06 -1.91265e-06 6.16002e-21 -4.88577e-06 1.45794e-21 0)
(9.67879e-06 -1.6078e-06 2.76059e-21 -4.95264e-06 1.63991e-21 0)
(4.42708e-06 -7.0571e-06 6.41434e-19 1.85019e-06 5.94282e-19 1.84958e-34)
(7.11367e-06 -5.94476e-06 -3.05708e-21 -1.05356e-06 2.25241e-21 0)
(8.53851e-06 -4.89744e-06 -5.92574e-21 -2.5111e-06 -2.76078e-21 0)
(9.41734e-06 -4.04058e-06 2.56936e-20 -3.55487e-06 6.01585e-21 0)
(9.91879e-06 -3.2966e-06 1.57754e-22 -4.16946e-06 -1.78613e-22 0)
(1.01823e-05 -2.68422e-06 -8.18473e-21 -4.57909e-06 -4.64449e-21 0)
(1.02988e-05 -2.16814e-06 -8.78077e-21 -4.82716e-06 -1.38313e-21 0)
(1.03138e-05 -1.73293e-06 -3.30541e-21 -4.97233e-06 -1.97598e-21 0)
(1.02694e-05 -1.37974e-06 3.76794e-22 -5.06614e-06 -2.73284e-21 0)
(1.01954e-05 -1.0733e-06 1.64558e-21 -5.07445e-06 3.45653e-21 0)
(4.16182e-06 -4.11484e-07 3.88547e-21 -1.81155e-06 4.76199e-21 -5.21011e-38)
(4.50033e-06 -3.6718e-07 2.81799e-21 -1.95048e-06 -5.05566e-21 8.42558e-36)
(4.81126e-06 -3.28685e-07 -2.96218e-21 -2.07941e-06 -1.72023e-20 9.50049e-36)
(5.09084e-06 -2.93741e-07 -2.02277e-21 -2.19605e-06 -1.84992e-20 5.98352e-37)
(5.34304e-06 -2.61347e-07 -5.16285e-21 -2.30098e-06 -2.24389e-20 -4.52821e-35)
(5.56903e-06 -2.32347e-07 -8.24434e-22 -2.39556e-06 -2.49683e-20 0)
(5.77161e-06 -2.05755e-07 -8.90413e-22 -2.48019e-06 -2.85752e-20 0)
(5.95217e-06 -1.81774e-07 7.26929e-22 -2.5559e-06 -2.97539e-20 -8.955e-37)
(6.11284e-06 -1.59789e-07 5.24389e-22 -2.62329e-06 -3.41055e-20 2.55374e-35)
(6.25484e-06 -1.39651e-07 2.53689e-21 -2.683e-06 -3.30626e-20 -1.77923e-36)
(6.37959e-06 -1.20918e-07 3.53665e-21 -2.73555e-06 -3.77134e-20 8.80958e-35)
(6.48797e-06 -1.03324e-07 -2.38787e-21 -2.78133e-06 -4.19135e-20 -3.09766e-35)
(6.58073e-06 -8.65192e-08 3.68717e-21 -2.82065e-06 -4.12688e-20 9.71883e-35)
(6.65837e-06 -7.02576e-08 -6.33864e-21 -2.85372e-06 -5.08041e-20 2.01559e-36)
(6.72109e-06 -5.43321e-08 -3.68211e-22 -2.88064e-06 -4.39321e-20 -3.52523e-35)
(6.76925e-06 -3.87203e-08 -6.22457e-22 -2.90152e-06 -4.63754e-20 8.5071e-45)
(6.80267e-06 -2.36481e-08 -2.42637e-21 -2.91629e-06 -4.91866e-20 3.88951e-37)
(6.82262e-06 -9.97065e-09 1.46244e-21 -2.92518e-06 -4.51137e-20 -2.81312e-37)
(6.829e-06 5.09438e-10 6.00052e-22 -2.9279e-06 -5.021e-20 1.11185e-34)
(6.82678e-06 2.97154e-09 -1.08929e-19 -2.92394e-06 -5.55914e-20 2.57801e-34)
(4.63352e-06 -1.17741e-06 5.38974e-21 -2.04891e-06 6.62741e-21 0)
(4.88442e-06 -1.05975e-06 3.49546e-21 -2.15503e-06 9.57577e-22 0)
(5.12436e-06 -9.56143e-07 2.63169e-22 -2.25276e-06 -1.51463e-21 0)
(5.33956e-06 -8.59486e-07 7.93809e-21 -2.34247e-06 7.15731e-21 0)
(5.53773e-06 -7.68923e-07 -1.52611e-21 -2.42251e-06 -3.60285e-22 0)
(5.71661e-06 -6.87097e-07 -6.47259e-21 -2.496e-06 -6.56186e-21 0)
(5.87951e-06 -6.11361e-07 3.30229e-21 -2.56195e-06 1.22125e-21 0)
(6.02616e-06 -5.42587e-07 0 -2.62189e-06 0 0)
(6.15852e-06 -4.79135e-07 1.57375e-21 -2.6758e-06 5.5699e-22 0)
(6.27693e-06 -4.2076e-07 3.23565e-21 -2.72439e-06 1.24618e-21 0)
(6.38259e-06 -3.66342e-07 9.70328e-21 -2.76788e-06 5.01107e-21 0)
(6.476e-06 -3.15251e-07 4.37596e-23 -2.80662e-06 5.00658e-23 0)
(6.55784e-06 -2.66645e-07 1.26141e-21 -2.84076e-06 -9.79042e-22 0)
(6.62856e-06 -2.1994e-07 1.8507e-21 -2.87043e-06 2.11874e-21 0)
(6.68844e-06 -1.74677e-07 1.89862e-21 -2.89553e-06 2.17924e-21 0)
(6.73783e-06 -1.30839e-07 -1.88081e-21 -2.91581e-06 -2.16976e-21 0)
(6.77644e-06 -8.89519e-08 -1.89146e-21 -2.93059e-06 -2.19432e-21 0)
(6.80471e-06 -5.08387e-08 -3.79851e-21 -2.93866e-06 -4.43251e-21 0)
(6.82043e-06 -1.92601e-08 -2.87444e-23 -2.93722e-06 -3.14821e-23 0)
(6.82432e-06 -2.49978e-09 -1.00885e-19 -2.9218e-06 1.86958e-21 -2.21531e-34)
(5.22856e-06 -1.70411e-06 1.47456e-21 -2.43666e-06 2.01773e-21 0)
(5.3864e-06 -1.54375e-06 2.01215e-21 -2.49972e-06 7.1784e-22 0)
(5.54993e-06 -1.39994e-06 -4.67416e-21 -2.55268e-06 -5.88942e-21 0)
(5.69323e-06 -1.26642e-06 -4.19713e-22 -2.60294e-06 1.07544e-21 0)
(5.83058e-06 -1.13924e-06 8.52869e-21 -2.64582e-06 7.10249e-21 0)
(5.95506e-06 -1.0238e-06 -6.77448e-21 -2.68689e-06 -6.47045e-21 0)
(6.0717e-06 -9.15806e-07 -1.80324e-21 -2.72388e-06 -2.08981e-21 0)
(6.17808e-06 -8.17149e-07 3.44647e-21 -2.7588e-06 3.92269e-21 0)
(6.2764e-06 -7.25561e-07 1.75364e-23 -2.79114e-06 -2.54682e-21 0)
(6.36596e-06 -6.41012e-07 -3.64685e-21 -2.82153e-06 -4.10369e-21 0)
(6.4478e-06 -5.62107e-07 3.49454e-21 -2.84994e-06 3.91819e-21 0)
(6.5219e-06 -4.88165e-07 5.39988e-21 -2.87654e-06 6.05793e-21 0)
(6.58878e-06 -4.1817e-07 4.13182e-23 -2.90129e-06 4.55714e-23 0)
(6.64859e-06 -3.51415e-07 -1.84892e-21 -2.92405e-06 -2.08623e-21 0)
(6.7014e-06 -2.87277e-07 1.83031e-21 -2.94438e-06 2.07771e-21 0)
(6.74726e-06 -2.25519e-07 2.69818e-28 -2.96145e-06 3.00701e-28 0)
(6.78519e-06 -1.6629e-07 -1.88573e-21 -2.97364e-06 -2.16758e-21 0)
(6.81472e-06 -1.10525e-07 2.54009e-22 -2.97827e-06 1.56574e-21 0)
(6.83105e-06 -5.99443e-08 -6.20767e-21 -2.9698e-06 -7.97847e-22 0)
(6.83379e-06 -1.68376e-08 -9.9785e-20 -2.94201e-06 -1.41758e-21 -1.64744e-37)
(5.91129e-06 -2.07589e-06 0 -2.85998e-06 0 0)
(5.97267e-06 -1.89219e-06 2.15122e-21 -2.88344e-06 7.83527e-22 0)
(6.05875e-06 -1.72281e-06 1.6834e-21 -2.89399e-06 1.9251e-21 0)
(6.12693e-06 -1.56831e-06 1.84751e-21 -2.90732e-06 2.14051e-21 0)
(6.20033e-06 -1.41794e-06 0 -2.91382e-06 0 0)
(6.26618e-06 -1.28146e-06 2.5068e-22 -2.92257e-06 -1.0807e-21 0)
(6.33247e-06 -1.15218e-06 -5.53144e-21 -2.92996e-06 -3.397e-21 0)
(6.39417e-06 -1.03353e-06 -3.5289e-21 -2.9387e-06 -3.83768e-21 0)
(6.4542e-06 -9.22618e-07 -1.98494e-21 -2.94797e-06 -9.15973e-22 0)
(6.51067e-06 -8.19846e-07 -1.36183e-23 -2.95835e-06 2.45457e-21 0)
(6.56457e-06 -7.23695e-07 -1.74739e-21 -2.96967e-06 5.39565e-22 0)
(6.61527e-06 -6.33552e-07 3.65294e-21 -2.98192e-06 1.56622e-21 0)
(6.66302e-06 -5.48338e-07 3.46928e-21 -2.99486e-06 1.71589e-22 0)
(6.70759e-06 -4.67263e-07 8.30673e-23 -3.00811e-06 1.3124e-21 0)
(6.74867e-06 -3.89537e-07 1.48207e-22 -3.02091e-06 1.39129e-21 0)
(6.7859e-06 -3.14565e-07 -1.86444e-21 -3.03205e-06 -2.09952e-21 0)
(6.81765e-06 -2.41961e-07 -3.98201e-28 -3.03934e-06 -4.4865e-28 0)
(6.84302e-06 -1.71252e-07 3.97438e-21 -3.03963e-06 5.83688e-21 0)
(6.85592e-06 -1.03047e-07 -2.00655e-22 -3.0267e-06 -1.53515e-21 0)
(6.85654e-06 -3.24164e-08 -1.08386e-19 -2.99416e-06 -9.73972e-21 3.17271e-34)
(6.65197e-06 -2.26862e-06 1.62985e-22 -3.33312e-06 2.68806e-21 0)
(6.61329e-06 -2.08412e-06 -2.33752e-21 -3.31603e-06 -1.02126e-21 0)
(6.6215e-06 -1.90422e-06 -5.8772e-21 -3.28061e-06 -4.79107e-21 0)
(6.61254e-06 -1.74581e-06 3.86977e-21 -3.25545e-06 2.63463e-21 0)
(6.62091e-06 -1.58667e-06 1.00709e-20 -3.22331e-06 6.61609e-21 0)
(6.6259e-06 -1.44286e-06 -1.84944e-21 -3.19722e-06 -1.93471e-21 0)
(6.63964e-06 -1.30455e-06 0 -3.17238e-06 0 0)
(6.65396e-06 -1.17692e-06 1.80114e-21 -3.15202e-06 1.87598e-21 0)
(6.67285e-06 -1.05664e-06 -5.80026e-21 -3.13531e-06 -2.47747e-21 0)
(6.69319e-06 -9.44578e-07 -3.76165e-21 -3.12277e-06 -2.77325e-21 0)
(6.71598e-06 -8.39309e-07 2.13011e-22 -3.11419e-06 -2.1413e-21 0)
(6.73999e-06 -7.4036e-07 -1.89375e-21 -3.10942e-06 -3.20729e-21 0)
(6.76523e-06 -6.46706e-07 -1.96825e-22 -3.1081e-06 3.36907e-21 0)
(6.79105e-06 -5.57484e-07 3.70291e-21 -3.10965e-06 5.22633e-21 0)
(6.81684e-06 -4.71736e-07 1.80506e-21 -3.11313e-06 7.69121e-22 0)
(6.84188e-06 -3.88396e-07 -6.65177e-23 -3.11711e-06 -1.30336e-21 0)
(6.86418e-06 -3.06506e-07 3.49917e-21 -3.11924e-06 1.43838e-21 0)
(6.88266e-06 -2.24027e-07 1.72108e-21 -3.11636e-06 6.90336e-22 0)
(6.89111e-06 -1.4089e-07 7.0606e-21 -3.1026e-06 5.57715e-21 0)
(6.89011e-06 -4.6129e-08 -9.50344e-20 -3.07214e-06 3.73451e-21 -3.11173e-34)
(7.4184e-06 -2.29221e-06 1.37719e-21 -3.80282e-06 1.89367e-21 0)
(7.27876e-06 -2.13069e-06 3.31307e-23 -3.75119e-06 7.27258e-23 0)
(7.21151e-06 -1.9547e-06 -4.24948e-21 -3.67249e-06 -2.94569e-21 0)
(7.12553e-06 -1.80798e-06 -1.02047e-20 -3.61188e-06 -7.63928e-21 0)
(7.07005e-06 -1.65303e-06 3.987e-21 -3.544e-06 2.7168e-21 0)
(7.01424e-06 -1.51354e-06 3.75147e-21 -3.48481e-06 3.72724e-21 0)
(6.97528e-06 -1.37692e-06 -1.83806e-21 -3.42934e-06 -1.829e-21 0)
(6.94157e-06 -1.24979e-06 -2.96393e-22 -3.3806e-06 8.20205e-22 0)
(6.91814e-06 -1.12888e-06 8.06806e-21 -3.33816e-06 4.80573e-21 0)
(6.90081e-06 -1.01533e-06 -5.39017e-21 -3.30233e-06 -5.5041e-21 0)
(6.89051e-06 -9.08039e-07 -1.91733e-21 -3.27304e-06 -1.98237e-21 0)
(6.88561e-06 -8.0665e-07 5.20921e-21 -3.25009e-06 7.72856e-21 0)
(6.88583e-06 -7.10303e-07 -7.62201e-21 -3.23315e-06 -2.2677e-21 0)
(6.89026e-06 -6.18109e-07 -5.42693e-21 -3.22162e-06 -5.80273e-21 0)
(6.89808e-06 -5.29021e-07 1.49073e-23 -3.21459e-06 -1.17224e-21 0)
(6.90834e-06 -4.41567e-07 -7.31586e-21 -3.21074e-06 -5.59858e-21 0)
(6.91911e-06 -3.54343e-07 -5.32445e-23 -3.20795e-06 -5.00814e-23 0)
(6.9292e-06 -2.63972e-07 7.18892e-21 -3.20354e-06 6.8747e-21 0)
(6.93348e-06 -1.69998e-07 1.11498e-22 -3.19279e-06 1.41908e-21 0)
(6.93217e-06 -5.68198e-08 -9.49609e-20 -3.17077e-06 -1.17365e-21 2.22536e-36)
(8.1734e-06 -2.14661e-06 -1.44309e-21 -4.24487e-06 -1.85278e-21 0)
(7.93723e-06 -2.03381e-06 1.99506e-21 -4.16816e-06 1.8221e-21 0)
(7.80182e-06 -1.87675e-06 2.4641e-21 -4.05353e-06 1.28688e-21 0)
(7.64249e-06 -1.75653e-06 -1.94644e-21 -3.96172e-06 -1.82623e-21 0)
(7.52693e-06 -1.61961e-06 -4.61396e-21 -3.86309e-06 -2.30386e-21 0)
(7.41279e-06 -1.49559e-06 2.25251e-21 -3.77286e-06 1.11975e-21 0)
(7.32236e-06 -1.37114e-06 6.37396e-21 -3.6884e-06 4.10101e-21 0)
(7.24151e-06 -1.25312e-06 -1.02547e-20 -3.61192e-06 -6.88525e-21 0)
(7.17582e-06 -1.13934e-06 -6.32556e-21 -3.54401e-06 -4.1666e-21 0)
(7.12064e-06 -1.03107e-06 9.92812e-21 -3.48486e-06 6.72309e-21 0)
(7.07661e-06 -9.27875e-07 -4.05029e-21 -3.43466e-06 -1.93602e-21 0)
(7.04187e-06 -8.29593e-07 5.3624e-21 -3.39321e-06 5.49662e-21 0)
(7.01587e-06 -7.35653e-07 5.77724e-21 -3.36027e-06 3.76363e-21 0)
(6.99752e-06 -6.45213e-07 -3.3684e-21 -3.33531e-06 -4.69534e-21 0)
(6.9859e-06 -5.57215e-07 -2.2044e-21 -3.3176e-06 1.142e-21 0)
(6.97996e-06 -4.69899e-07 1.04233e-22 -3.30608e-06 9.61918e-23 0)
(6.97813e-06 -3.81558e-07 -8.91362e-21 -3.29917e-06 -7.41886e-21 0)
(6.97914e-06 -2.87831e-07 1.76928e-21 -3.29489e-06 1.98896e-21 0)
(6.97975e-06 -1.88091e-07 3.50915e-21 -3.29017e-06 2.7456e-21 0)
(6.97909e-06 -6.37018e-08 -9.58923e-20 -3.28125e-06 -1.87721e-21 8.99081e-37)
(8.87759e-06 -1.84255e-06 1.72172e-23 -4.62059e-06 5.90242e-23 0)
(8.55611e-06 -1.80356e-06 -2.06268e-21 -4.53111e-06 -1.81513e-21 0)
(8.36404e-06 -1.68171e-06 4.44209e-22 -4.39568e-06 -4.81011e-22 0)
(8.13937e-06 -1.59794e-06 0 -4.27815e-06 0 0)
(7.96977e-06 -1.49142e-06 0 -4.15831e-06 0 0)
(7.80406e-06 -1.39155e-06 -6.17813e-21 -4.04409e-06 -4.8382e-21 0)
(7.66615e-06 -1.28886e-06 5.49543e-21 -3.93697e-06 5.12714e-21 0)
(7.54182e-06 -1.18833e-06 1.15873e-20 -3.83747e-06 1.01091e-20 0)
(7.4358e-06 -1.08956e-06 -8.76375e-21 -3.7472e-06 -8.42162e-21 0)
(7.34399e-06 -9.93532e-07 -7.67837e-21 -3.66655e-06 -6.54054e-21 0)
(7.26658e-06 -9.00574e-07 3.54025e-21 -3.59616e-06 3.52294e-21 0)
(7.20186e-06 -8.10784e-07 -3.47908e-22 -3.53622e-06 6.98367e-22 0)
(7.14912e-06 -7.23988e-07 6.0632e-21 -3.48681e-06 2.99489e-21 0)
(7.10723e-06 -6.39559e-07 9.44164e-21 -3.44777e-06 6.53045e-21 0)
(7.07533e-06 -5.56581e-07 1.28833e-22 -3.41877e-06 1.17764e-22 0)
(7.05236e-06 -4.73234e-07 4.30245e-21 -3.39922e-06 -1.17593e-21 0)
(7.03738e-06 -3.87714e-07 0 -3.38835e-06 0 0)
(7.02903e-06 -2.95117e-07 -3.61825e-21 -3.3851e-06 -1.59672e-21 0)
(7.02655e-06 -1.94799e-07 1.74085e-21 -3.38829e-06 7.36048e-22 0)
(7.02744e-06 -6.6591e-08 -9.17431e-20 -3.39564e-06 -4.24884e-22 2.35293e-36)
(9.50102e-06 -1.40944e-06 -1.34492e-23 -4.90273e-06 -5.16147e-23 0)
(9.10638e-06 -1.4578e-06 2.5621e-21 -4.80926e-06 1.53067e-21 0)
(8.87465e-06 -1.39627e-06 -2.54823e-21 -4.68426e-06 -1.5515e-21 0)
(8.59948e-06 -1.35612e-06 -2.50804e-21 -4.5509e-06 -1.51107e-21 0)
(8.38111e-06 -1.29273e-06 6.88459e-21 -4.41746e-06 4.69588e-21 0)
(8.17138e-06 -1.22298e-06 4.90546e-21 -4.28356e-06 2.92775e-21 0)
(7.99008e-06 -1.14704e-06 -6.51452e-21 -4.1565e-06 -4.35979e-21 0)
(7.82685e-06 -1.06776e-06 8.68764e-22 -4.03707e-06 -9.16819e-22 0)
(7.68408e-06 -9.87347e-07 1.47829e-21 -3.9274e-06 1.37168e-21 0)
(7.55875e-06 -9.06997e-07 -8.06075e-22 -3.82833e-06 1.08116e-21 0)
(7.45037e-06 -8.27744e-07 -6.61594e-21 -3.74061e-06 -3.62632e-21 0)
(7.35744e-06 -7.50027e-07 5.91661e-23 -3.66471e-06 5.71068e-23 0)
(7.27914e-06 -6.7398e-07 -3.02239e-21 -3.60096e-06 -4.11833e-21 0)
(7.2144e-06 -5.99205e-07 -1.02181e-22 -3.54953e-06 -9.3507e-23 0)
(7.16255e-06 -5.24947e-07 3.86493e-21 -3.51056e-06 1.88081e-21 0)
(7.12262e-06 -4.49467e-07 -7.70487e-23 -3.48405e-06 -6.73555e-23 0)
(7.09451e-06 -3.70991e-07 4.70659e-21 -3.47016e-06 6.3186e-21 0)
(7.07675e-06 -2.84509e-07 -1.77953e-21 -3.46885e-06 -7.95613e-22 0)
(7.07146e-06 -1.89355e-07 -8.33142e-21 -3.48104e-06 -8.24926e-21 0)
(7.07413e-06 -6.52503e-08 -1.0108e-19 -3.50612e-06 -6.89064e-21 1.75221e-34)
(9.99801e-06 -8.53293e-07 -3.26893e-22 -5.08705e-06 -1.64721e-22 0)
(9.58878e-06 -9.59958e-07 -2.7477e-21 -4.97252e-06 -1.61898e-21 0)
(9.32377e-06 -9.84659e-07 2.22944e-21 -4.88596e-06 1.7506e-21 0)
(9.02908e-06 -9.94376e-07 -5.833e-21 -4.76434e-06 -5.31415e-21 0)
(8.77112e-06 -9.89059e-07 -6.00268e-21 -4.63791e-06 -4.99162e-21 0)
(8.52731e-06 -9.66291e-07 3.54971e-21 -4.50263e-06 3.6689e-21 0)
(8.30693e-06 -9.31371e-07 3.08444e-21 -4.36647e-06 3.68225e-21 0)
(8.10696e-06 -8.86314e-07 5.38002e-21 -4.2336e-06 4.8514e-21 0)
(7.92842e-06 -8.3425e-07 -6.31476e-21 -4.10744e-06 -4.71507e-21 0)
(7.76985e-06 -7.77509e-07 1.5272e-23 -3.99064e-06 1.29421e-22 0)
(7.63062e-06 -7.17971e-07 -7.58907e-23 -3.88493e-06 -3.85879e-22 0)
(7.50948e-06 -6.56977e-07 -4.93634e-21 -3.79167e-06 -4.8284e-21 0)
(7.40557e-06 -5.95325e-07 0 -3.71181e-06 0 0)
(7.31786e-06 -5.33208e-07 -4.47843e-21 -3.64614e-06 -1.45363e-21 0)
(7.24586e-06 -4.70318e-07 -2.07846e-23 -3.59539e-06 -8.91483e-23 0)
(7.18864e-06 -4.05305e-07 -5.78008e-21 -3.56028e-06 -2.8123e-21 0)
(7.147e-06 -3.36665e-07 1.58169e-21 -3.542e-06 1.66985e-21 0)
(7.11941e-06 -2.5976e-07 3.64556e-21 -3.54165e-06 1.66684e-21 0)
(7.11107e-06 -1.73999e-07 4.5364e-23 -3.56241e-06 -3.70966e-24 0)
(7.11574e-06 -6.03165e-08 -9.87185e-20 -3.60548e-06 -3.05948e-21 7.32739e-37)
(1.02422e-05 -3.94211e-07 2.82454e-21 -5.1039e-06 2.48548e-21 0)
(9.86904e-06 -4.50974e-07 -2.61514e-21 -5.00742e-06 -1.6434e-21 0)
(9.58225e-06 -5.56367e-07 -1.51402e-21 -4.94645e-06 -1.25686e-21 0)
(9.28956e-06 -6.06083e-07 2.51273e-21 -4.84758e-06 1.53544e-21 0)
(9.01853e-06 -6.41032e-07 -4.9688e-21 -4.73189e-06 -2.2567e-21 0)
(8.76137e-06 -6.56602e-07 -3.35056e-21 -4.60511e-06 -1.5817e-21 0)
(8.52424e-06 -6.56904e-07 -4.17395e-21 -4.4725e-06 -3.02869e-21 0)
(8.30562e-06 -6.44615e-07 5.04838e-22 -4.33966e-06 -3.49541e-22 0)
(8.10732e-06 -6.22149e-07 8.43906e-21 -4.21058e-06 5.37798e-21 0)
(7.9285e-06 -5.92043e-07 -2.89949e-22 -4.08861e-06 -3.12031e-22 0)
(7.76922e-06 -5.56262e-07 4.51123e-21 -3.97627e-06 2.55401e-21 0)
(7.62865e-06 -5.1646e-07 -2.22299e-22 -3.87553e-06 -2.52086e-22 0)
(7.50635e-06 -4.7377e-07 1.64691e-35 -3.788e-06 1.67368e-35 0)
(7.40155e-06 -4.28781e-07 -1.98351e-21 -3.71505e-06 -9.87686e-22 0)
(7.31419e-06 -3.81584e-07 1.93901e-21 -3.6581e-06 9.43571e-22 0)
(7.24356e-06 -3.3136e-07 -8.69017e-23 -3.61855e-06 -1.25705e-22 0)
(7.1913e-06 -2.77044e-07 3.1023e-22 -3.59861e-06 -8.17709e-22 0)
(7.15587e-06 -2.15037e-07 1.74729e-23 -3.60034e-06 5.83474e-23 0)
(7.14484e-06 -1.44923e-07 -1.79863e-23 -3.62884e-06 2.32537e-23 0)
(7.15049e-06 -5.05012e-08 -9.49568e-20 -3.68706e-06 -5.14908e-22 -8.45136e-37)
(1.00404e-05 5.69477e-08 2.62433e-21 -4.91903e-06 2.07507e-21 0)
(9.79124e-06 -8.59967e-09 0 -4.94544e-06 0 0)
(9.53155e-06 -1.375e-07 -2.04622e-21 -4.89833e-06 -1.80333e-21 0)
(9.27198e-06 -2.2192e-07 2.67548e-35 -4.82315e-06 2.16607e-35 0)
(9.02448e-06 -2.88369e-07 6.13352e-36 -4.72404e-06 4.4483e-36 0)
(8.78553e-06 -3.35418e-07 2.90858e-35 -4.61104e-06 2.16264e-35 0)
(8.5613e-06 -3.65779e-07 4.46049e-35 -4.48943e-06 3.60442e-35 0)
(8.35096e-06 -3.82186e-07 -1.79277e-21 -4.36495e-06 -1.68095e-21 0)
(8.15707e-06 -3.86807e-07 0 -4.24184e-06 0 0)
(7.97951e-06 -3.82047e-07 1.71303e-21 -4.12378e-06 1.66097e-21 0)
(7.81907e-06 -3.69809e-07 -2.44797e-36 -4.01365e-06 -4.12242e-36 0)
(7.67553e-06 -3.5178e-07 -1.64777e-21 -3.91385e-06 -1.65442e-21 0)
(7.54907e-06 -3.29189e-07 1.62062e-21 -3.82638e-06 1.65537e-21 0)
(7.43942e-06 -3.02859e-07 2.32929e-35 -3.75307e-06 1.69643e-35 0)
(7.34706e-06 -2.73107e-07 -1.57725e-21 -3.69581e-06 -1.6648e-21 0)
(7.2717e-06 -2.39676e-07 -1.39875e-35 -3.65655e-06 -1.29373e-35 0)
(7.2157e-06 -2.01823e-07 1.54905e-21 -3.63815e-06 1.68455e-21 0)
(7.17776e-06 -1.57293e-07 1.54091e-21 -3.64335e-06 1.69927e-21 0)
(7.16728e-06 -1.06142e-07 -1.66429e-35 -3.67873e-06 -1.45175e-35 0)