/*--------------------------------*- C++ -*----------------------------------*\
  =========                 |
  \\      /  F ield         | OpenFOAM: The Open Source CFD Toolbox
   \\    /   O peration     | Website:  https://openfoam.org
    \\  /    A nd           | Version:  9
     \\/     M anipulation  |
\*---------------------------------------------------------------------------*/
FoamFile
{
    format      ascii;
    class       pointVectorField;
    location    "15";
    object      pointD;
}
// * * * * * * * * * * * * * * * * * * * * * * * * * * * * * * * * * * * * * //

dimensions      [0 1 0 0 0 0 0];

internalField   nonuniform List<vector> 
2142
(
(1.1131e-05 3.26986e-06 -9.15414e-20)
(1.0318e-05 3.78255e-06 0)
(9.74931e-06 4.14838e-06 0)
(9.33484e-06 4.44623e-06 0)
(9.03634e-06 4.69008e-06 0)
(8.82443e-06 4.90021e-06 0)
(8.678e-06 5.08497e-06 0)
(8.58225e-06 5.252e-06 0)
(8.52567e-06 5.40581e-06 0)
(8.49989e-06 5.54949e-06 0)
(8.50441e-06 5.70549e-06 0)
(1.01782e-05 2.99801e-06 -9.59884e-20)
(9.31187e-06 3.40518e-06 0)
(8.71442e-06 3.68922e-06 0)
(8.28151e-06 3.92319e-06 0)
(7.97059e-06 4.11405e-06 0)
(7.74955e-06 4.27932e-06 0)
(7.59543e-06 4.42474e-06 0)
(7.49254e-06 4.55677e-06 0)
(7.42839e-06 4.67839e-06 0)
(7.39431e-06 4.7933e-06 0)
(7.24621e-06 4.79872e-06 0)
(9.18619e-06 2.72773e-06 -9.93936e-20)
(8.28882e-06 3.01907e-06 0)
(7.67966e-06 3.21523e-06 0)
(7.24009e-06 3.38246e-06 0)
(6.9256e-06 3.51966e-06 0)
(6.70221e-06 3.64049e-06 0)
(6.5457e-06 3.7477e-06 0)
(6.43969e-06 3.84601e-06 0)
(6.37128e-06 3.93678e-06 0)
(6.33115e-06 4.02353e-06 0)
(6.1984e-06 4.01425e-06 0)
(8.15249e-06 2.46556e-06 -1.04572e-19)
(7.25664e-06 2.63099e-06 0)
(6.65315e-06 2.73735e-06 0)
(6.21948e-06 2.83713e-06 0)
(5.91099e-06 2.92186e-06 0)
(5.69261e-06 3.00021e-06 0)
(5.53956e-06 3.07183e-06 0)
(5.43513e-06 3.13931e-06 0)
(5.36644e-06 3.20235e-06 0)
(5.32402e-06 3.26359e-06 0)
(5.20933e-06 3.24438e-06 0)
(7.08254e-06 2.21948e-06 -1.12016e-19)
(6.22201e-06 2.25043e-06 0)
(5.64057e-06 2.26784e-06 0)
(5.22601e-06 2.30144e-06 0)
(4.9336e-06 2.3365e-06 0)
(4.72806e-06 2.3758e-06 0)
(4.58462e-06 2.41564e-06 0)
(4.48664e-06 2.45615e-06 0)
(4.42164e-06 2.49535e-06 0)
(4.3803e-06 2.53467e-06 0)
(4.28455e-06 2.50995e-06 0)
(5.99896e-06 1.98282e-06 -1.12138e-19)
(5.18678e-06 1.88405e-06 0)
(4.6448e-06 1.8165e-06 0)
(4.2631e-06 1.78847e-06 0)
(3.99767e-06 1.77918e-06 0)
(3.81329e-06 1.78491e-06 0)
(3.68573e-06 1.79842e-06 0)
(3.59892e-06 1.8171e-06 0)
(3.54122e-06 1.83737e-06 0)
(3.50381e-06 1.85925e-06 0)
(3.42696e-06 1.83333e-06 0)
(4.89754e-06 1.74127e-06 -9.46016e-20)
(4.14821e-06 1.53054e-06 0)
(3.66507e-06 1.38822e-06 0)
(3.33166e-06 1.30878e-06 0)
(3.10505e-06 1.26448e-06 0)
(2.95034e-06 1.24494e-06 0)
(2.84472e-06 1.23942e-06 0)
(2.77337e-06 1.24269e-06 0)
(2.72603e-06 1.2498e-06 0)
(2.69484e-06 1.25945e-06 0)
(2.63613e-06 1.23635e-06 0)
(3.76786e-06 1.49013e-06 -5.99545e-20)
(3.11058e-06 1.18667e-06 0)
(2.70371e-06 9.86929e-07 0)
(2.43514e-06 8.73164e-07 0)
(2.25845e-06 8.07804e-07 0)
(2.1408e-06 7.74318e-07 0)
(2.06184e-06 7.58788e-07 0)
(2.009e-06 7.53986e-07 0)
(1.97399e-06 7.54122e-07 0)
(1.95051e-06 7.56982e-07 0)
(1.90866e-06 7.39965e-07 0)
(2.60938e-06 1.22634e-06 -9.92404e-21)
(2.07026e-06 8.47278e-07 0)
(1.7626e-06 6.17995e-07 0)
(1.57562e-06 4.94145e-07 0)
(1.45797e-06 4.26743e-07 0)
(1.38249e-06 3.92795e-07 0)
(1.33274e-06 3.76846e-07 0)
(1.29973e-06 3.70949e-07 0)
(1.27773e-06 3.69547e-07 0)
(1.26254e-06 3.70248e-07 0)
(1.23588e-06 3.60986e-07 0)
(1.51587e-06 9.1375e-07 3.79853e-20)
(1.0329e-06 4.97503e-07 0)
(8.54882e-07 2.95682e-07 0)
(7.6301e-07 1.98007e-07 0)
(7.08411e-07 1.51732e-07 0)
(6.74456e-07 1.30415e-07 0)
(6.52185e-07 1.21672e-07 0)
(6.3732e-07 1.19138e-07 0)
(6.27192e-07 1.19141e-07 0)
(6.19847e-07 1.20062e-07 0)
(6.06723e-07 1.17416e-07 0)
(5.06331e-07 3.68624e-07 2.8376e-20)
(0 0 0)
(0 0 0)
(0 0 0)
(0 0 0)
(0 0 0)
(0 0 0)
(0 0 0)
(0 0 0)
(0 0 0)
(0 0 0)
(1.1131e-05 3.26986e-06 -9.15414e-20)
(1.0318e-05 3.78255e-06 0)
(9.74931e-06 4.14838e-06 0)
(9.33484e-06 4.44623e-06 0)
(9.03634e-06 4.69008e-06 0)
(8.82443e-06 4.90021e-06 0)
(8.678e-06 5.08497e-06 0)
(8.58225e-06 5.252e-06 0)
(8.52567e-06 5.40581e-06 0)
(8.49989e-06 5.54949e-06 0)
(8.50441e-06 5.70549e-06 0)
(1.01782e-05 2.99801e-06 -9.59884e-20)
(9.31187e-06 3.40518e-06 0)
(8.71442e-06 3.68922e-06 0)
(8.28151e-06 3.92319e-06 0)
(7.97059e-06 4.11405e-06 0)
(7.74955e-06 4.27932e-06 0)
(7.59543e-06 4.42474e-06 0)
(7.49254e-06 4.55677e-06 0)
(7.42839e-06 4.67839e-06 0)
(7.39431e-06 4.7933e-06 0)
(7.24621e-06 4.79872e-06 0)
(9.18619e-06 2.72773e-06 -9.93936e-20)
(8.28882e-06 3.01907e-06 0)
(7.67966e-06 3.21523e-06 0)
(7.24009e-06 3.38246e-06 0)
(6.9256e-06 3.51966e-06 0)
(6.70221e-06 3.64049e-06 0)
(6.5457e-06 3.7477e-06 0)
(6.43969e-06 3.84601e-06 0)
(6.37128e-06 3.93678e-06 0)
(6.33115e-06 4.02353e-06 0)
(6.1984e-06 4.01425e-06 0)
(8.15249e-06 2.46556e-06 -1.04572e-19)
(7.25664e-06 2.63099e-06 0)
(6.65315e-06 2.73735e-06 0)
(6.21948e-06 2.83713e-06 0)
(5.91099e-06 2.92186e-06 0)
(5.69261e-06 3.00021e-06 0)
(5.53956e-06 3.07183e-06 0)
(5.43513e-06 3.13931e-06 0)
(5.36644e-06 3.20235e-06 0)
(5.32402e-06 3.26359e-06 0)
(5.20933e-06 3.24438e-06 0)
(7.08254e-06 2.21948e-06 -1.12016e-19)
(6.22201e-06 2.25043e-06 0)
(5.64057e-06 2.26784e-06 0)
(5.22601e-06 2.30144e-06 0)
(4.9336e-06 2.3365e-06 0)
(4.72806e-06 2.3758e-06 0)
(4.58462e-06 2.41564e-06 0)
(4.48664e-06 2.45615e-06 0)
(4.42164e-06 2.49535e-06 0)
(4.3803e-06 2.53467e-06 0)
(4.28455e-06 2.50995e-06 0)
(5.99896e-06 1.98282e-06 -1.12138e-19)
(5.18678e-06 1.88405e-06 0)
(4.6448e-06 1.8165e-06 0)
(4.2631e-06 1.78847e-06 0)
(3.99767e-06 1.77918e-06 0)
(3.81329e-06 1.78491e-06 0)
(3.68573e-06 1.79842e-06 0)
(3.59892e-06 1.8171e-06 0)
(3.54122e-06 1.83737e-06 0)
(3.50381e-06 1.85925e-06 0)
(3.42696e-06 1.83333e-06 0)
(4.89754e-06 1.74127e-06 -9.46016e-20)
(4.14821e-06 1.53054e-06 0)
(3.66507e-06 1.38822e-06 0)
(3.33166e-06 1.30878e-06 0)
(3.10505e-06 1.26448e-06 0)
(2.95034e-06 1.24494e-06 0)
(2.84472e-06 1.23942e-06 0)
(2.77337e-06 1.24269e-06 0)
(2.72603e-06 1.2498e-06 0)
(2.69484e-06 1.25945e-06 0)
(2.63613e-06 1.23635e-06 0)
(3.76786e-06 1.49013e-06 -5.99545e-20)
(3.11058e-06 1.18667e-06 0)
(2.70371e-06 9.86929e-07 0)
(2.43514e-06 8.73164e-07 0)
(2.25845e-06 8.07804e-07 0)
(2.1408e-06 7.74318e-07 0)
(2.06184e-06 7.58788e-07 0)
(2.009e-06 7.53986e-07 0)
(1.97399e-06 7.54122e-07 0)
(1.95051e-06 7.56982e-07 0)
(1.90866e-06 7.39965e-07 0)
(2.60938e-06 1.22634e-06 -9.92404e-21)
(2.07026e-06 8.47278e-07 0)
(1.7626e-06 6.17995e-07 0)
(1.57562e-06 4.94145e-07 0)
(1.45797e-06 4.26743e-07 0)
(1.38249e-06 3.92795e-07 0)
(1.33274e-06 3.76846e-07 0)
(1.29973e-06 3.70949e-07 0)
(1.27773e-06 3.69547e-07 0)
(1.26254e-06 3.70248e-07 0)
(1.23588e-06 3.60986e-07 0)
(1.51587e-06 9.1375e-07 3.79853e-20)
(1.0329e-06 4.97503e-07 0)
(8.54882e-07 2.95682e-07 0)
(7.6301e-07 1.98007e-07 0)
(7.08411e-07 1.51732e-07 0)
(6.74456e-07 1.30415e-07 0)
(6.52185e-07 1.21672e-07 0)
(6.3732e-07 1.19138e-07 0)
(6.27192e-07 1.19141e-07 0)
(6.19847e-07 1.20062e-07 0)
(6.06723e-07 1.17416e-07 0)
(5.06331e-07 3.68624e-07 2.8376e-20)
(0 0 0)
(0 0 0)
(0 0 0)
(0 0 0)
(0 0 0)
(0 0 0)
(0 0 0)
(0 0 0)
(0 0 0)
(0 0 0)
(1.80508e-05 5.35818e-06 -2.73013e-21)
(1.81794e-05 5.87584e-06 -1.39411e-21)
(1.81636e-05 6.54142e-06 -1.52491e-21)
(1.81531e-05 7.15892e-06 -1.65232e-21)
(1.81639e-05 7.72732e-06 -1.77301e-21)
(1.82022e-05 8.25239e-06 -1.88774e-21)
(1.82701e-05 8.74094e-06 -1.99755e-21)
(1.83674e-05 9.19986e-06 -2.10354e-21)
(1.8493e-05 9.63489e-06 -2.13483e-21)
(1.8644e-05 1.00515e-05 -1.58894e-21)
(1.8819e-05 1.04518e-05 -5.38252e-22)
(1.76497e-05 5.15753e-06 -4.19156e-21)
(1.75946e-05 5.85248e-06 0)
(1.75486e-05 6.51383e-06 0)
(1.75241e-05 7.1222e-06 0)
(1.75272e-05 7.67784e-06 0)
(1.75599e-05 8.18758e-06 0)
(1.7622e-05 8.65892e-06 0)
(1.77119e-05 9.09937e-06 0)
(1.7828e-05 9.51508e-06 0)
(1.79676e-05 9.91191e-06 0)
(1.81392e-05 1.02946e-05 0)
(1.71037e-05 5.07248e-06 -4.32868e-21)
(1.6989e-05 5.78272e-06 0)
(1.68958e-05 6.43793e-06 0)
(1.68362e-05 7.03354e-06 0)
(1.68123e-05 7.5729e-06 0)
(1.68234e-05 8.06451e-06 0)
(1.6867e-05 8.51654e-06 0)
(1.69399e-05 8.93695e-06 0)
(1.70392e-05 9.33212e-06 0)
(1.71615e-05 9.70828e-06 0)
(1.73285e-05 1.00742e-05 0)
(1.65251e-05 4.93496e-06 -5.11571e-21)
(1.63383e-05 5.66839e-06 0)
(1.61889e-05 6.31514e-06 0)
(1.60845e-05 6.89329e-06 0)
(1.60248e-05 7.41116e-06 0)
(1.60064e-05 7.87999e-06 0)
(1.60247e-05 8.30887e-06 0)
(1.60747e-05 8.70616e-06 0)
(1.61528e-05 9.0784e-06 0)
(1.62541e-05 9.43196e-06 0)
(1.64162e-05 9.7816e-06 0)
(1.59035e-05 4.75763e-06 -7.91473e-21)
(1.56325e-05 5.51117e-06 0)
(1.54206e-05 6.14575e-06 0)
(1.52665e-05 6.70213e-06 0)
(1.51666e-05 7.19393e-06 0)
(1.51147e-05 7.63568e-06 0)
(1.51041e-05 8.03755e-06 0)
(1.51284e-05 8.40836e-06 0)
(1.51828e-05 8.75481e-06 0)
(1.52613e-05 9.08326e-06 0)
(1.54191e-05 9.4166e-06 0)
(1.52332e-05 4.54904e-06 -1.40568e-20)
(1.48682e-05 5.31179e-06 0)
(1.459e-05 5.92778e-06 0)
(1.43843e-05 6.45713e-06 0)
(1.42432e-05 6.91816e-06 0)
(1.41572e-05 7.32867e-06 0)
(1.41172e-05 7.69987e-06 0)
(1.41153e-05 8.04103e-06 0)
(1.41456e-05 8.35894e-06 0)
(1.42013e-05 8.65985e-06 0)
(1.4356e-05 8.9771e-06 0)
(1.45118e-05 4.3169e-06 -2.44251e-20)
(1.40472e-05 5.07211e-06 0)
(1.37014e-05 5.66067e-06 0)
(1.34448e-05 6.15707e-06 0)
(1.32637e-05 6.58285e-06 0)
(1.31448e-05 6.95853e-06 0)
(1.30766e-05 7.29601e-06 0)
(1.30497e-05 7.60487e-06 0)
(1.30572e-05 7.89195e-06 0)
(1.30912e-05 8.16321e-06 0)
(1.32444e-05 8.46472e-06 0)
(1.37391e-05 4.06755e-06 -3.9165e-20)
(1.31744e-05 4.79478e-06 0)
(1.27627e-05 5.34511e-06 0)
(1.24577e-05 5.80191e-06 0)
(1.22396e-05 6.18804e-06 0)
(1.20905e-05 6.52571e-06 0)
(1.19968e-05 6.82701e-06 0)
(1.19473e-05 7.10154e-06 0)
(1.19341e-05 7.35602e-06 0)
(1.19486e-05 7.596e-06 0)
(1.21021e-05 7.88233e-06 0)
(1.29163e-05 3.80677e-06 -5.76026e-20)
(1.22567e-05 4.48374e-06 0)
(1.17838e-05 4.98412e-06 0)
(1.14351e-05 5.39443e-06 0)
(1.11842e-05 5.73672e-06 0)
(1.1009e-05 6.03372e-06 0)
(1.08933e-05 6.29702e-06 0)
(1.08244e-05 6.5359e-06 0)
(1.07934e-05 6.75668e-06 0)
(1.07911e-05 6.96432e-06 0)
(1.09464e-05 7.23581e-06 0)
(1.20454e-05 3.53977e-06 -7.82657e-20)
(1.13019e-05 4.14424e-06 0)
(1.07757e-05 4.5828e-06 0)
(1.03899e-05 4.93988e-06 0)
(1.01118e-05 5.23453e-06 0)
(9.91536e-06 5.48878e-06 0)
(9.78178e-06 5.71296e-06 0)
(9.69729e-06 5.91566e-06 0)
(9.65164e-06 6.10245e-06 0)
(9.63594e-06 6.27703e-06 0)
(9.79397e-06 6.53359e-06 0)
(1.80508e-05 5.35818e-06 -2.73013e-21)
(1.81794e-05 5.87584e-06 -1.39411e-21)
(1.81636e-05 6.54142e-06 -1.52491e-21)
(1.81531e-05 7.15892e-06 -1.65232e-21)
(1.81639e-05 7.72732e-06 -1.77301e-21)
(1.82022e-05 8.25239e-06 -1.88774e-21)
(1.82701e-05 8.74094e-06 -1.99755e-21)
(1.83674e-05 9.19986e-06 -2.10354e-21)
(1.8493e-05 9.63489e-06 -2.13483e-21)
(1.8644e-05 1.00515e-05 -1.58894e-21)
(1.8819e-05 1.04518e-05 -5.38252e-22)
(1.76497e-05 5.15753e-06 -4.19156e-21)
(1.75946e-05 5.85248e-06 0)
(1.75486e-05 6.51383e-06 0)
(1.75241e-05 7.1222e-06 0)
(1.75272e-05 7.67784e-06 0)
(1.75599e-05 8.18758e-06 0)
(1.7622e-05 8.65892e-06 0)
(1.77119e-05 9.09937e-06 0)
(1.7828e-05 9.51508e-06 0)
(1.79676e-05 9.91191e-06 0)
(1.81392e-05 1.02946e-05 0)
(1.71037e-05 5.07248e-06 -4.32868e-21)
(1.6989e-05 5.78272e-06 0)
(1.68958e-05 6.43793e-06 0)
(1.68362e-05 7.03354e-06 0)
(1.68123e-05 7.5729e-06 0)
(1.68234e-05 8.06451e-06 0)
(1.6867e-05 8.51654e-06 0)
(1.69399e-05 8.93695e-06 0)
(1.70392e-05 9.33212e-06 0)
(1.71615e-05 9.70828e-06 0)
(1.73285e-05 1.00742e-05 0)
(1.65251e-05 4.93496e-06 -5.11571e-21)
(1.63383e-05 5.66839e-06 0)
(1.61889e-05 6.31514e-06 0)
(1.60845e-05 6.89329e-06 0)
(1.60248e-05 7.41116e-06 0)
(1.60064e-05 7.87999e-06 0)
(1.60247e-05 8.30887e-06 0)
(1.60747e-05 8.70616e-06 0)
(1.61528e-05 9.0784e-06 0)
(1.62541e-05 9.43196e-06 0)
(1.64162e-05 9.7816e-06 0)
(1.59035e-05 4.75763e-06 -7.91473e-21)
(1.56325e-05 5.51117e-06 0)
(1.54206e-05 6.14575e-06 0)
(1.52665e-05 6.70213e-06 0)
(1.51666e-05 7.19393e-06 0)
(1.51147e-05 7.63568e-06 0)
(1.51041e-05 8.03755e-06 0)
(1.51284e-05 8.40836e-06 0)
(1.51828e-05 8.75481e-06 0)
(1.52613e-05 9.08326e-06 0)
(1.54191e-05 9.4166e-06 0)
(1.52332e-05 4.54904e-06 -1.40568e-20)
(1.48682e-05 5.31179e-06 0)
(1.459e-05 5.92778e-06 0)
(1.43843e-05 6.45713e-06 0)
(1.42432e-05 6.91816e-06 0)
(1.41572e-05 7.32867e-06 0)
(1.41172e-05 7.69987e-06 0)
(1.41153e-05 8.04103e-06 0)
(1.41456e-05 8.35894e-06 0)
(1.42013e-05 8.65985e-06 0)
(1.4356e-05 8.9771e-06 0)
(1.45118e-05 4.3169e-06 -2.44251e-20)
(1.40472e-05 5.07211e-06 0)
(1.37014e-05 5.66067e-06 0)
(1.34448e-05 6.15707e-06 0)
(1.32637e-05 6.58285e-06 0)
(1.31448e-05 6.95853e-06 0)
(1.30766e-05 7.29601e-06 0)
(1.30497e-05 7.60487e-06 0)
(1.30572e-05 7.89195e-06 0)
(1.30912e-05 8.16321e-06 0)
(1.32444e-05 8.46472e-06 0)
(1.37391e-05 4.06755e-06 -3.9165e-20)
(1.31744e-05 4.79478e-06 0)
(1.27627e-05 5.34511e-06 0)
(1.24577e-05 5.80191e-06 0)
(1.22396e-05 6.18804e-06 0)
(1.20905e-05 6.52571e-06 0)
(1.19968e-05 6.82701e-06 0)
(1.19473e-05 7.10154e-06 0)
(1.19341e-05 7.35602e-06 0)
(1.19486e-05 7.596e-06 0)
(1.21021e-05 7.88233e-06 0)
(1.29163e-05 3.80677e-06 -5.76026e-20)
(1.22567e-05 4.48374e-06 0)
(1.17838e-05 4.98412e-06 0)
(1.14351e-05 5.39443e-06 0)
(1.11842e-05 5.73672e-06 0)
(1.1009e-05 6.03372e-06 0)
(1.08933e-05 6.29702e-06 0)
(1.08244e-05 6.5359e-06 0)
(1.07934e-05 6.75668e-06 0)
(1.07911e-05 6.96432e-06 0)
(1.09464e-05 7.23581e-06 0)
(1.20454e-05 3.53977e-06 -7.82657e-20)
(1.13019e-05 4.14424e-06 0)
(1.07757e-05 4.5828e-06 0)
(1.03899e-05 4.93988e-06 0)
(1.01118e-05 5.23453e-06 0)
(9.91536e-06 5.48878e-06 0)
(9.78178e-06 5.71296e-06 0)
(9.69729e-06 5.91566e-06 0)
(9.65164e-06 6.10245e-06 0)
(9.63594e-06 6.27703e-06 0)
(9.79397e-06 6.53359e-06 0)
(1.9018e-05 1.08408e-05 4.54933e-22)
(1.92375e-05 1.12237e-05 1.3477e-21)
(1.9474e-05 1.16009e-05 2.15138e-21)
(1.9726e-05 1.19741e-05 2.86745e-21)
(1.99919e-05 1.2345e-05 3.50392e-21)
(2.027e-05 1.27147e-05 4.06711e-21)
(2.0559e-05 1.30843e-05 4.56366e-21)
(2.08578e-05 1.34547e-05 4.99916e-21)
(2.11652e-05 1.38266e-05 5.37881e-21)
(2.14802e-05 1.42006e-05 5.70681e-21)
(2.18019e-05 1.45773e-05 5.98691e-21)
(2.21293e-05 1.49571e-05 6.22195e-21)
(2.24615e-05 1.53404e-05 6.41415e-21)
(2.27979e-05 1.57275e-05 6.56497e-21)
(2.31375e-05 1.61185e-05 6.67571e-21)
(2.34794e-05 1.65134e-05 6.7472e-21)
(2.38227e-05 1.69122e-05 6.78121e-21)
(2.41665e-05 1.73142e-05 6.78025e-21)
(2.45097e-05 1.77186e-05 6.74872e-21)
(2.46231e-05 1.79704e-05 -1.62432e-21)
(1.83514e-05 1.06719e-05 0)
(1.85895e-05 1.10467e-05 0)
(1.88415e-05 1.14165e-05 0)
(1.9106e-05 1.17834e-05 0)
(1.93818e-05 1.21486e-05 0)
(1.96679e-05 1.25136e-05 0)
(1.99632e-05 1.28791e-05 0)
(2.02667e-05 1.32461e-05 0)
(2.05777e-05 1.36153e-05 0)
(2.08952e-05 1.39872e-05 0)
(2.12186e-05 1.43623e-05 0)
(2.15471e-05 1.47411e-05 0)
(2.188e-05 1.51239e-05 0)
(2.22167e-05 1.5511e-05 0)
(2.25565e-05 1.59025e-05 0)
(2.28988e-05 1.62984e-05 0)
(2.32429e-05 1.66985e-05 0)
(2.35882e-05 1.71024e-05 0)
(2.39341e-05 1.75092e-05 0)
(2.42786e-05 1.79167e-05 -1.00461e-20)
(1.75611e-05 1.04438e-05 0)
(1.7828e-05 1.08159e-05 0)
(1.8105e-05 1.11833e-05 0)
(1.8391e-05 1.15481e-05 0)
(1.86854e-05 1.19118e-05 0)
(1.89873e-05 1.22756e-05 0)
(1.92964e-05 1.26405e-05 0)
(1.96118e-05 1.30072e-05 0)
(1.9933e-05 1.33766e-05 0)
(2.02594e-05 1.37491e-05 0)
(2.05906e-05 1.41253e-05 0)
(2.09261e-05 1.45055e-05 0)
(2.12653e-05 1.48902e-05 0)
(2.16078e-05 1.52796e-05 0)
(2.19532e-05 1.56738e-05 0)
(2.2301e-05 1.60729e-05 0)
(2.26508e-05 1.64768e-05 0)
(2.3002e-05 1.68851e-05 0)
(2.3354e-05 1.72972e-05 0)
(2.37033e-05 1.7711e-05 -1.01292e-20)
(1.66743e-05 1.01481e-05 0)
(1.69772e-05 1.05236e-05 0)
(1.72861e-05 1.08944e-05 0)
(1.76002e-05 1.12624e-05 0)
(1.79195e-05 1.16293e-05 0)
(1.82434e-05 1.19963e-05 0)
(1.85719e-05 1.23645e-05 0)
(1.89046e-05 1.27346e-05 0)
(1.92412e-05 1.31075e-05 0)
(1.95815e-05 1.34838e-05 0)
(1.99252e-05 1.38639e-05 0)
(2.02721e-05 1.42483e-05 0)
(2.06219e-05 1.46373e-05 0)
(2.09743e-05 1.50314e-05 0)
(2.13291e-05 1.54306e-05 0)
(2.1686e-05 1.58352e-05 0)
(2.20447e-05 1.62453e-05 0)
(2.24047e-05 1.66606e-05 0)
(2.27656e-05 1.7081e-05 0)
(2.31222e-05 1.75049e-05 -1.02543e-20)
(1.57069e-05 9.78426e-06 0)
(1.60514e-05 1.0169e-05 0)
(1.63979e-05 1.05487e-05 0)
(1.67456e-05 1.09249e-05 0)
(1.70949e-05 1.12997e-05 0)
(1.74459e-05 1.16742e-05 0)
(1.77986e-05 1.20496e-05 0)
(1.81531e-05 1.24268e-05 0)
(1.85095e-05 1.28066e-05 0)
(1.88677e-05 1.31897e-05 0)
(1.92277e-05 1.35767e-05 0)
(1.95897e-05 1.39679e-05 0)
(1.99534e-05 1.4364e-05 0)
(2.03189e-05 1.47652e-05 0)
(2.06861e-05 1.51718e-05 0)
(2.10548e-05 1.55843e-05 0)
(2.1425e-05 1.60027e-05 0)
(2.17962e-05 1.64275e-05 0)
(2.2168e-05 1.68587e-05 0)
(2.25344e-05 1.72952e-05 -1.04179e-20)
(1.46767e-05 9.35038e-06 0)
(1.50673e-05 9.75043e-06 0)
(1.54555e-05 1.01446e-05 0)
(1.58408e-05 1.05343e-05 0)
(1.62242e-05 1.09218e-05 0)
(1.66059e-05 1.13082e-05 0)
(1.69865e-05 1.1695e-05 0)
(1.73664e-05 1.2083e-05 0)
(1.77458e-05 1.24732e-05 0)
(1.81251e-05 1.28664e-05 0)
(1.85045e-05 1.32632e-05 0)
(1.88842e-05 1.36641e-05 0)
(1.92645e-05 1.40698e-05 0)
(1.96456e-05 1.44806e-05 0)
(2.00274e-05 1.4897e-05 0)
(2.04101e-05 1.53195e-05 0)
(2.07936e-05 1.57486e-05 0)
(2.11778e-05 1.61848e-05 0)
(2.15623e-05 1.66287e-05 0)
(2.19407e-05 1.70798e-05 -1.06208e-20)
(1.36004e-05 8.84798e-06 0)
(1.40397e-05 9.26903e-06 0)
(1.44727e-05 9.6833e-06 0)
(1.48984e-05 1.00915e-05 0)
(1.53188e-05 1.04963e-05 0)
(1.57341e-05 1.0899e-05 0)
(1.61454e-05 1.1301e-05 0)
(1.65531e-05 1.17036e-05 0)
(1.69581e-05 1.21076e-05 0)
(1.73609e-05 1.25141e-05 0)
(1.77619e-05 1.29237e-05 0)
(1.81616e-05 1.33371e-05 0)
(1.85604e-05 1.3755e-05 0)
(1.89588e-05 1.41779e-05 0)
(1.93569e-05 1.46063e-05 0)
(1.9755e-05 1.5041e-05 0)
(2.01533e-05 1.54826e-05 0)
(2.05519e-05 1.5932e-05 0)
(2.09505e-05 1.63901e-05 0)
(2.13427e-05 1.6857e-05 -1.08646e-20)
(1.24945e-05 8.27988e-06 0)
(1.29837e-05 8.72727e-06 0)
(1.3463e-05 9.16672e-06 0)
(1.39308e-05 9.59817e-06 0)
(1.43899e-05 1.00249e-05 0)
(1.48406e-05 1.04479e-05 0)
(1.52844e-05 1.08692e-05 0)
(1.5722e-05 1.12898e-05 0)
(1.61544e-05 1.17111e-05 0)
(1.65823e-05 1.2134e-05 0)
(1.70065e-05 1.25593e-05 0)
(1.74277e-05 1.2988e-05 0)
(1.78465e-05 1.34206e-05 0)
(1.82634e-05 1.38579e-05 0)
(1.86789e-05 1.43005e-05 0)
(1.90936e-05 1.47493e-05 0)
(1.95076e-05 1.52051e-05 0)
(1.99214e-05 1.5669e-05 0)
(2.03351e-05 1.61424e-05 0)
(2.07429e-05 1.66256e-05 -1.11515e-20)
(1.1375e-05 7.65139e-06 0)
(1.19138e-05 8.1299e-06 0)
(1.24395e-05 8.59891e-06 0)
(1.29499e-05 9.05796e-06 0)
(1.34485e-05 9.51033e-06 0)
(1.39355e-05 9.95755e-06 0)
(1.44128e-05 1.04015e-05 0)
(1.48813e-05 1.08436e-05 0)
(1.53421e-05 1.12853e-05 0)
(1.57963e-05 1.17276e-05 0)
(1.62448e-05 1.21715e-05 0)
(1.66884e-05 1.2618e-05 0)
(1.7128e-05 1.30678e-05 0)
(1.75643e-05 1.35217e-05 0)
(1.7998e-05 1.39806e-05 0)
(1.84298e-05 1.44452e-05 0)
(1.88602e-05 1.49167e-05 0)
(1.92898e-05 1.53964e-05 0)
(1.97191e-05 1.58856e-05 0)
(2.01437e-05 1.63855e-05 -1.14836e-20)
(1.02567e-05 6.97006e-06 0)
(1.08424e-05 7.48317e-06 0)
(1.14128e-05 7.98484e-06 0)
(1.19655e-05 8.47529e-06 0)
(1.25034e-05 8.95694e-06 0)
(1.30272e-05 9.43176e-06 0)
(1.35385e-05 9.90164e-06 0)
(1.40384e-05 1.03683e-05 0)
(1.45284e-05 1.08331e-05 0)
(1.50094e-05 1.12975e-05 0)
(1.54827e-05 1.17625e-05 0)
(1.59493e-05 1.22292e-05 0)
(1.64102e-05 1.26985e-05 0)
(1.68663e-05 1.31711e-05 0)
(1.73185e-05 1.36481e-05 0)
(1.77677e-05 1.41302e-05 0)
(1.82146e-05 1.46187e-05 0)
(1.86602e-05 1.51149e-05 0)
(1.91053e-05 1.56203e-05 0)
(1.95477e-05 1.61368e-05 -1.18631e-20)
(9.26366e-06 6.35007e-06 0)
(9.88444e-06 6.89296e-06 0)
(1.04882e-05 7.4213e-06 0)
(1.10736e-05 7.93833e-06 0)
(1.16426e-05 8.44545e-06 0)
(1.21959e-05 8.94472e-06 0)
(1.27348e-05 9.4379e-06 0)
(1.32605e-05 9.92669e-06 0)
(1.37744e-05 1.04126e-05 0)
(1.42776e-05 1.0897e-05 0)
(1.47713e-05 1.13811e-05 0)
(1.52568e-05 1.18659e-05 0)
(1.5735e-05 1.23523e-05 0)
(1.62072e-05 1.28413e-05 0)
(1.66743e-05 1.33337e-05 0)
(1.71373e-05 1.38304e-05 0)
(1.75974e-05 1.43325e-05 0)
(1.80554e-05 1.48413e-05 0)
(1.85129e-05 1.53582e-05 0)
(1.89698e-05 1.5886e-05 -1.21677e-20)
(1.9018e-05 1.08408e-05 4.54933e-22)
(1.92375e-05 1.12237e-05 1.3477e-21)
(1.9474e-05 1.16009e-05 2.15138e-21)
(1.9726e-05 1.19741e-05 2.86745e-21)
(1.99919e-05 1.2345e-05 3.50392e-21)
(2.027e-05 1.27147e-05 4.06711e-21)
(2.0559e-05 1.30843e-05 4.56366e-21)
(2.08578e-05 1.34547e-05 4.99916e-21)
(2.11652e-05 1.38266e-05 5.37881e-21)
(2.14802e-05 1.42006e-05 5.70681e-21)
(2.18019e-05 1.45773e-05 5.98691e-21)
(2.21293e-05 1.49571e-05 6.22195e-21)
(2.24615e-05 1.53404e-05 6.41415e-21)
(2.27979e-05 1.57275e-05 6.56497e-21)
(2.31375e-05 1.61185e-05 6.67571e-21)
(2.34794e-05 1.65134e-05 6.7472e-21)
(2.38227e-05 1.69122e-05 6.78121e-21)
(2.41665e-05 1.73142e-05 6.78025e-21)
(2.45097e-05 1.77186e-05 6.74872e-21)
(2.46231e-05 1.79704e-05 -1.62432e-21)
(1.83514e-05 1.06719e-05 0)
(1.85895e-05 1.10467e-05 0)
(1.88415e-05 1.14165e-05 0)
(1.9106e-05 1.17834e-05 0)
(1.93818e-05 1.21486e-05 0)
(1.96679e-05 1.25136e-05 0)
(1.99632e-05 1.28791e-05 0)
(2.02667e-05 1.32461e-05 0)
(2.05777e-05 1.36153e-05 0)
(2.08952e-05 1.39872e-05 0)
(2.12186e-05 1.43623e-05 0)
(2.15471e-05 1.47411e-05 0)
(2.188e-05 1.51239e-05 0)
(2.22167e-05 1.5511e-05 0)
(2.25565e-05 1.59025e-05 0)
(2.28988e-05 1.62984e-05 0)
(2.32429e-05 1.66985e-05 0)
(2.35882e-05 1.71024e-05 0)
(2.39341e-05 1.75092e-05 0)
(2.42786e-05 1.79167e-05 -1.00461e-20)
(1.75611e-05 1.04438e-05 0)
(1.7828e-05 1.08159e-05 0)
(1.8105e-05 1.11833e-05 0)
(1.8391e-05 1.15481e-05 0)
(1.86854e-05 1.19118e-05 0)
(1.89873e-05 1.22756e-05 0)
(1.92964e-05 1.26405e-05 0)
(1.96118e-05 1.30072e-05 0)
(1.9933e-05 1.33766e-05 0)
(2.02594e-05 1.37491e-05 0)
(2.05906e-05 1.41253e-05 0)
(2.09261e-05 1.45055e-05 0)
(2.12653e-05 1.48902e-05 0)
(2.16078e-05 1.52796e-05 0)
(2.19532e-05 1.56738e-05 0)
(2.2301e-05 1.60729e-05 0)
(2.26508e-05 1.64768e-05 0)
(2.3002e-05 1.68851e-05 0)
(2.3354e-05 1.72972e-05 0)
(2.37033e-05 1.7711e-05 -1.01292e-20)
(1.66743e-05 1.01481e-05 0)
(1.69772e-05 1.05236e-05 0)
(1.72861e-05 1.08944e-05 0)
(1.76002e-05 1.12624e-05 0)
(1.79195e-05 1.16293e-05 0)
(1.82434e-05 1.19963e-05 0)
(1.85719e-05 1.23645e-05 0)
(1.89046e-05 1.27346e-05 0)
(1.92412e-05 1.31075e-05 0)
(1.95815e-05 1.34838e-05 0)
(1.99252e-05 1.38639e-05 0)
(2.02721e-05 1.42483e-05 0)
(2.06219e-05 1.46373e-05 0)
(2.09743e-05 1.50314e-05 0)
(2.13291e-05 1.54306e-05 0)
(2.1686e-05 1.58352e-05 0)
(2.20447e-05 1.62453e-05 0)
(2.24047e-05 1.66606e-05 0)
(2.27656e-05 1.7081e-05 0)
(2.31222e-05 1.75049e-05 -1.02543e-20)
(1.57069e-05 9.78426e-06 0)
(1.60514e-05 1.0169e-05 0)
(1.63979e-05 1.05487e-05 0)
(1.67456e-05 1.09249e-05 0)
(1.70949e-05 1.12997e-05 0)
(1.74459e-05 1.16742e-05 0)
(1.77986e-05 1.20496e-05 0)
(1.81531e-05 1.24268e-05 0)
(1.85095e-05 1.28066e-05 0)
(1.88677e-05 1.31897e-05 0)
(1.92277e-05 1.35767e-05 0)
(1.95897e-05 1.39679e-05 0)
(1.99534e-05 1.4364e-05 0)
(2.03189e-05 1.47652e-05 0)
(2.06861e-05 1.51718e-05 0)
(2.10548e-05 1.55843e-05 0)
(2.1425e-05 1.60027e-05 0)
(2.17962e-05 1.64275e-05 0)
(2.2168e-05 1.68587e-05 0)
(2.25344e-05 1.72952e-05 -1.04179e-20)
(1.46767e-05 9.35038e-06 0)
(1.50673e-05 9.75043e-06 0)
(1.54555e-05 1.01446e-05 0)
(1.58408e-05 1.05343e-05 0)
(1.62242e-05 1.09218e-05 0)
(1.66059e-05 1.13082e-05 0)
(1.69865e-05 1.1695e-05 0)
(1.73664e-05 1.2083e-05 0)
(1.77458e-05 1.24732e-05 0)
(1.81251e-05 1.28664e-05 0)
(1.85045e-05 1.32632e-05 0)
(1.88842e-05 1.36641e-05 0)
(1.92645e-05 1.40698e-05 0)
(1.96456e-05 1.44806e-05 0)
(2.00274e-05 1.4897e-05 0)
(2.04101e-05 1.53195e-05 0)
(2.07936e-05 1.57486e-05 0)
(2.11778e-05 1.61848e-05 0)
(2.15623e-05 1.66287e-05 0)
(2.19407e-05 1.70798e-05 -1.06208e-20)
(1.36004e-05 8.84798e-06 0)
(1.40397e-05 9.26903e-06 0)
(1.44727e-05 9.6833e-06 0)
(1.48984e-05 1.00915e-05 0)
(1.53188e-05 1.04963e-05 0)
(1.57341e-05 1.0899e-05 0)
(1.61454e-05 1.1301e-05 0)
(1.65531e-05 1.17036e-05 0)
(1.69581e-05 1.21076e-05 0)
(1.73609e-05 1.25141e-05 0)
(1.77619e-05 1.29237e-05 0)
(1.81616e-05 1.33371e-05 0)
(1.85604e-05 1.3755e-05 0)
(1.89588e-05 1.41779e-05 0)
(1.93569e-05 1.46063e-05 0)
(1.9755e-05 1.5041e-05 0)
(2.01533e-05 1.54826e-05 0)
(2.05519e-05 1.5932e-05 0)
(2.09505e-05 1.63901e-05 0)
(2.13427e-05 1.6857e-05 -1.08646e-20)
(1.24945e-05 8.27988e-06 0)
(1.29837e-05 8.72727e-06 0)
(1.3463e-05 9.16672e-06 0)
(1.39308e-05 9.59817e-06 0)
(1.43899e-05 1.00249e-05 0)
(1.48406e-05 1.04479e-05 0)
(1.52844e-05 1.08692e-05 0)
(1.5722e-05 1.12898e-05 0)
(1.61544e-05 1.17111e-05 0)
(1.65823e-05 1.2134e-05 0)
(1.70065e-05 1.25593e-05 0)
(1.74277e-05 1.2988e-05 0)
(1.78465e-05 1.34206e-05 0)
(1.82634e-05 1.38579e-05 0)
(1.86789e-05 1.43005e-05 0)
(1.90936e-05 1.47493e-05 0)
(1.95076e-05 1.52051e-05 0)
(1.99214e-05 1.5669e-05 0)
(2.03351e-05 1.61424e-05 0)
(2.07429e-05 1.66256e-05 -1.11515e-20)
(1.1375e-05 7.65139e-06 0)
(1.19138e-05 8.1299e-06 0)
(1.24395e-05 8.59891e-06 0)
(1.29499e-05 9.05796e-06 0)
(1.34485e-05 9.51033e-06 0)
(1.39355e-05 9.95755e-06 0)
(1.44128e-05 1.04015e-05 0)
(1.48813e-05 1.08436e-05 0)
(1.53421e-05 1.12853e-05 0)
(1.57963e-05 1.17276e-05 0)
(1.62448e-05 1.21715e-05 0)
(1.66884e-05 1.2618e-05 0)
(1.7128e-05 1.30678e-05 0)
(1.75643e-05 1.35217e-05 0)
(1.7998e-05 1.39806e-05 0)
(1.84298e-05 1.44452e-05 0)
(1.88602e-05 1.49167e-05 0)
(1.92898e-05 1.53964e-05 0)
(1.97191e-05 1.58856e-05 0)
(2.01437e-05 1.63855e-05 -1.14836e-20)
(1.02567e-05 6.97006e-06 0)
(1.08424e-05 7.48317e-06 0)
(1.14128e-05 7.98484e-06 0)
(1.19655e-05 8.47529e-06 0)
(1.25034e-05 8.95694e-06 0)
(1.30272e-05 9.43176e-06 0)
(1.35385e-05 9.90164e-06 0)
(1.40384e-05 1.03683e-05 0)
(1.45284e-05 1.08331e-05 0)
(1.50094e-05 1.12975e-05 0)
(1.54827e-05 1.17625e-05 0)
(1.59493e-05 1.22292e-05 0)
(1.64102e-05 1.26985e-05 0)
(1.68663e-05 1.31711e-05 0)
(1.73185e-05 1.36481e-05 0)
(1.77677e-05 1.41302e-05 0)
(1.82146e-05 1.46187e-05 0)
(1.86602e-05 1.51149e-05 0)
(1.91053e-05 1.56203e-05 0)
(1.95477e-05 1.61368e-05 -1.18631e-20)
(9.26366e-06 6.35007e-06 0)
(9.88444e-06 6.89296e-06 0)
(1.04882e-05 7.4213e-06 0)
(1.10736e-05 7.93833e-06 0)
(1.16426e-05 8.44545e-06 0)
(1.21959e-05 8.94472e-06 0)
(1.27348e-05 9.4379e-06 0)
(1.32605e-05 9.92669e-06 0)
(1.37744e-05 1.04126e-05 0)
(1.42776e-05 1.0897e-05 0)
(1.47713e-05 1.13811e-05 0)
(1.52568e-05 1.18659e-05 0)
(1.5735e-05 1.23523e-05 0)
(1.62072e-05 1.28413e-05 0)
(1.66743e-05 1.33337e-05 0)
(1.71373e-05 1.38304e-05 0)
(1.75974e-05 1.43325e-05 0)
(1.80554e-05 1.48413e-05 0)
(1.85129e-05 1.53582e-05 0)
(1.89698e-05 1.5886e-05 -1.21677e-20)
(7.79258e-06 5.31456e-06 0)
(8.54035e-06 5.92462e-06 0)
(9.17321e-06 6.48013e-06 0)
(9.78881e-06 7.02052e-06 0)
(1.03869e-05 7.55058e-06 0)
(1.09686e-05 8.07119e-06 0)
(1.15345e-05 8.58409e-06 0)
(1.20858e-05 9.0908e-06 0)
(1.26233e-05 9.59275e-06 0)
(1.31484e-05 1.00913e-05 0)
(1.36621e-05 1.05877e-05 0)
(1.41655e-05 1.10829e-05 0)
(1.46598e-05 1.15781e-05 0)
(1.51462e-05 1.20739e-05 0)
(1.56257e-05 1.25713e-05 0)
(1.60994e-05 1.30711e-05 0)
(1.65685e-05 1.3574e-05 0)
(1.70341e-05 1.4081e-05 0)
(1.74973e-05 1.45933e-05 0)
(1.79599e-05 1.51119e-05 0)
(1.84229e-05 1.56395e-05 -1.22459e-20)
(7.26232e-06 5.00303e-06 0)
(7.98546e-06 5.60534e-06 0)
(8.61394e-06 6.16196e-06 0)
(9.22735e-06 6.7063e-06 0)
(9.82498e-06 7.24199e-06 0)
(1.04075e-05 7.76946e-06 0)
(1.09752e-05 8.28995e-06 0)
(1.15289e-05 8.8046e-06 0)
(1.20692e-05 9.31456e-06 0)
(1.25973e-05 9.82091e-06 0)
(1.3114e-05 1.03247e-05 0)
(1.36204e-05 1.08267e-05 0)
(1.41175e-05 1.13279e-05 0)
(1.46063e-05 1.18289e-05 0)
(1.50881e-05 1.23306e-05 0)
(1.55637e-05 1.28334e-05 0)
(1.60344e-05 1.33382e-05 0)
(1.65014e-05 1.38457e-05 0)
(1.69659e-05 1.43566e-05 0)
(1.74297e-05 1.48719e-05 0)
(1.78942e-05 1.53933e-05 -1.22055e-20)
(6.79161e-06 4.703e-06 0)
(7.48798e-06 5.29715e-06 0)
(8.10545e-06 5.85251e-06 0)
(8.71109e-06 6.39861e-06 0)
(9.30306e-06 6.93812e-06 0)
(9.88181e-06 7.47093e-06 0)
(1.04471e-05 7.99778e-06 0)
(1.09995e-05 8.51941e-06 0)
(1.15394e-05 9.03661e-06 0)
(1.20676e-05 9.55019e-06 0)
(1.25848e-05 1.00609e-05 0)
(1.3092e-05 1.05695e-05 0)
(1.359e-05 1.10765e-05 0)
(1.40798e-05 1.15827e-05 0)
(1.45625e-05 1.20884e-05 0)
(1.5039e-05 1.25943e-05 0)
(1.55105e-05 1.31009e-05 0)
(1.59783e-05 1.36086e-05 0)
(1.64435e-05 1.41179e-05 0)
(1.69082e-05 1.46294e-05 0)
(1.73735e-05 1.5144e-05 -1.21813e-20)
(6.37184e-06 4.4169e-06 0)
(7.03978e-06 5.0009e-06 0)
(7.64236e-06 5.5529e-06 0)
(8.2361e-06 6.09894e-06 0)
(8.81846e-06 6.6407e-06 0)
(9.38967e-06 7.17748e-06 0)
(9.94909e-06 7.70953e-06 0)
(1.0497e-05 8.23716e-06 0)
(1.10335e-05 8.7608e-06 0)
(1.15593e-05 9.28093e-06 0)
(1.20748e-05 9.79807e-06 0)
(1.25807e-05 1.03127e-05 0)
(1.30779e-05 1.08253e-05 0)
(1.35673e-05 1.13363e-05 0)
(1.40497e-05 1.1846e-05 0)
(1.45261e-05 1.23548e-05 0)
(1.49976e-05 1.28629e-05 0)
(1.54654e-05 1.33707e-05 0)
(1.59308e-05 1.38783e-05 0)
(1.63959e-05 1.43857e-05 0)
(1.68616e-05 1.48932e-05 -1.21743e-20)
(5.99575e-06 4.14563e-06 0)
(6.63464e-06 4.71845e-06 0)
(7.21943e-06 5.26543e-06 0)
(7.79813e-06 5.80974e-06 0)
(8.36779e-06 6.35215e-06 0)
(8.92844e-06 6.89146e-06 0)
(9.47909e-06 7.42742e-06 0)
(1.00198e-05 7.95991e-06 0)
(1.05505e-05 8.48901e-06 0)
(1.10715e-05 9.01488e-06 0)
(1.15832e-05 9.53776e-06 0)
(1.20862e-05 1.00579e-05 0)
(1.2581e-05 1.05756e-05 0)
(1.30686e-05 1.1091e-05 0)
(1.35496e-05 1.16043e-05 0)
(1.40249e-05 1.21157e-05 0)
(1.44957e-05 1.26253e-05 0)
(1.49629e-05 1.3133e-05 0)
(1.5428e-05 1.36386e-05 0)
(1.58928e-05 1.41419e-05 0)
(1.63582e-05 1.46424e-05 -1.21853e-20)
(5.65585e-06 3.88924e-06 0)
(6.26587e-06 4.45001e-06 0)
(6.83104e-06 4.99066e-06 0)
(7.39256e-06 5.5319e-06 0)
(7.94724e-06 6.07361e-06 0)
(8.49497e-06 6.61415e-06 0)
(9.03455e-06 7.15283e-06 0)
(9.56585e-06 7.6891e-06 0)
(1.00886e-05 8.22268e-06 0)
(1.06029e-05 8.75342e-06 0)
(1.11091e-05 9.28127e-06 0)
(1.16075e-05 9.80627e-06 0)
(1.20986e-05 1.03284e-05 0)
(1.25831e-05 1.08478e-05 0)