/*--------------------------------*- C++ -*----------------------------------*\
  =========                 |
  \\      /  F ield         | OpenFOAM: The Open Source CFD Toolbox
   \\    /   O peration     | Website:  https://openfoam.org
    \\  /    A nd           | Version:  9
     \\/     M anipulation  |
\*---------------------------------------------------------------------------*/
FoamFile
{
    format      ascii;
    class       volScalarField;
    location    "15";
    object      sigmaEq;
}
// * * * * * * * * * * * * * * * * * * * * * * * * * * * * * * * * * * * * * //

dimensions      [1 -1 -2 0 0 0 0];

internalField   nonuniform List<scalar> 
1000
(
2.58785e+06
2.46437e+06
2.42817e+06
2.43177e+06
2.42381e+06
2.40807e+06
2.38375e+06
2.35179e+06
2.31872e+06
2.27787e+06
3.02063e+06
2.77139e+06
2.64303e+06
2.58703e+06
2.53862e+06
2.49392e+06
2.44767e+06
2.39978e+06
2.34975e+06
2.30217e+06
3.44551e+06
3.06668e+06
2.84225e+06
2.72009e+06
2.62656e+06
2.54865e+06
2.47768e+06
2.41077e+06
2.34482e+06
2.28639e+06
3.85664e+06
3.34609e+06
3.02492e+06
2.8324e+06
2.68966e+06
2.57552e+06
2.47777e+06
2.39098e+06
2.3093e+06
2.24019e+06
4.2472e+06
3.60652e+06
3.19262e+06
2.92519e+06
2.72921e+06
2.57606e+06
2.45e+06
2.34252e+06
2.24581e+06
2.1657e+06
4.61356e+06
3.8513e+06
3.343e+06
2.99827e+06
2.74653e+06
2.55289e+06
2.39806e+06
2.27002e+06
2.15907e+06
2.06805e+06
4.89898e+06
4.06113e+06
3.454e+06
3.03733e+06
2.73316e+06
2.50289e+06
2.32263e+06
2.17683e+06
2.05422e+06
1.9535e+06
5.1785e+06
4.22963e+06
3.51965e+06
3.03915e+06
2.69114e+06
2.43256e+06
2.23377e+06
2.07575e+06
1.94586e+06
1.8383e+06
5.40772e+06
4.29587e+06
3.49606e+06
2.96626e+06
2.6018e+06
2.33512e+06
2.13309e+06
1.97304e+06
1.84264e+06
1.73256e+06
5.76764e+06
4.21616e+06
3.38073e+06
2.86422e+06
2.51884e+06
2.2654e+06
2.0717e+06
1.9161e+06
1.78824e+06
1.67751e+06
10242
19126.8
87847.3
184942
292756
404584
513507
617481
713512
803992
22419
126371
266594
403992
527322
637721
734940
824039
901143
974230
101101
296200
473547
631693
764591
876526
969666
1.04876e+06
1.11139e+06
1.1716e+06
237531
505135
704757
870997
1.00558e+06
1.115e+06
1.20089e+06
1.27054e+06
1.32107e+06
1.37088e+06
434071
742761
953748
1.12161e+06
1.25096e+06
1.35116e+06
1.4264e+06
1.48477e+06
1.52303e+06
1.56239e+06
689963
999661
1.20899e+06
1.37327e+06
1.49107e+06
1.57846e+06
1.64067e+06
1.68617e+06
1.71184e+06
1.74018e+06
999332
1.27169e+06
1.46697e+06
1.61765e+06
1.71978e+06
1.79166e+06
1.83908e+06
1.8705e+06
1.88338e+06
1.89993e+06
1.35396e+06
1.55614e+06
1.72009e+06
1.84843e+06
1.93064e+06
1.98467e+06
2.01621e+06
2.03283e+06
2.03362e+06
2.03754e+06
1.74415e+06
1.85309e+06
1.96559e+06
2.06217e+06
2.11976e+06
2.15352e+06
2.1679e+06
2.16919e+06
2.15827e+06
2.15022e+06
2.15802e+06
2.15709e+06
2.20184e+06
2.25656e+06
2.28397e+06
2.2942e+06
2.28981e+06
2.27432e+06
2.25442e+06
2.22924e+06
885271
955617
1.02071e+06
1.0795e+06
1.13265e+06
1.18042e+06
1.2233e+06
1.2616e+06
1.29571e+06
1.32589e+06
1.35243e+06
1.37551e+06
1.39527e+06
1.41182e+06
1.42521e+06
1.4355e+06
1.44266e+06
1.44693e+06
1.44829e+06
1.44766e+06
1.03079e+06
1.07329e+06
1.11599e+06
1.15536e+06
1.1923e+06
1.22642e+06
1.25792e+06
1.2867e+06
1.31295e+06
1.33667e+06
1.35799e+06
1.37696e+06
1.39367e+06
1.40818e+06
1.4205e+06
1.43068e+06
1.43861e+06
1.4443e+06
1.44716e+06
1.44707e+06
1.20609e+06
1.22207e+06
1.242e+06
1.26062e+06
1.27955e+06
1.2979e+06
1.31592e+06
1.33313e+06
1.34961e+06
1.36511e+06
1.37966e+06
1.39315e+06
1.40556e+06
1.41686e+06
1.42698e+06
1.43584e+06
1.44313e+06
1.44862e+06
1.45104e+06
1.44997e+06
1.38672e+06
1.37988e+06
1.37975e+06
1.37949e+06
1.38145e+06
1.38441e+06
1.38887e+06
1.3941e+06
1.40021e+06
1.40677e+06
1.41374e+06
1.42086e+06
1.42805e+06
1.43515e+06
1.44197e+06
1.44833e+06
1.45374e+06
1.45784e+06
1.45909e+06
1.45716e+06
1.56169e+06
1.5355e+06
1.51801e+06
1.50123e+06
1.48811e+06
1.47694e+06
1.46872e+06
1.4624e+06
1.4583e+06
1.45581e+06
1.45492e+06
1.45527e+06
1.45671e+06
1.459e+06
1.46188e+06
1.46506e+06
1.46798e+06
1.47022e+06
1.47027e+06
1.46789e+06
1.72467e+06
1.68227e+06
1.65016e+06
1.61914e+06
1.5931e+06
1.56943e+06
1.54991e+06
1.53304e+06
1.51941e+06
1.50829e+06
1.4997e+06
1.49324e+06
1.48875e+06
1.48593e+06
1.4845e+06
1.48413e+06
1.48429e+06
1.48456e+06
1.48372e+06
1.48153e+06
1.87143e+06
1.81588e+06
1.77233e+06
1.72923e+06
1.69261e+06
1.6581e+06
1.62864e+06
1.60226e+06
1.57989e+06
1.56072e+06
1.54483e+06
1.53182e+06
1.52152e+06
1.51362e+06
1.50785e+06
1.50389e+06
1.50132e+06
1.49973e+06
1.49839e+06
1.49694e+06
1.99822e+06
1.9324e+06
1.88119e+06
1.82792e+06
1.78306e+06
1.73986e+06
1.70219e+06
1.66786e+06
1.63784e+06
1.61145e+06
1.58881e+06
1.5696e+06
1.55368e+06
1.54079e+06
1.53073e+06
1.5232e+06
1.51798e+06
1.5147e+06
1.51324e+06
1.51303e+06
2.1046e+06
2.0293e+06
1.97592e+06
1.91524e+06
1.86363e+06
1.81327e+06
1.7683e+06
1.72708e+06
1.69034e+06
1.65766e+06
1.62906e+06
1.60434e+06
1.58335e+06
1.56592e+06
1.5519e+06
1.54108e+06
1.53345e+06
1.52871e+06
1.52742e+06
1.52875e+06
2.18667e+06
2.10711e+06
2.05365e+06
1.99201e+06
1.93624e+06
1.88181e+06
1.83114e+06
1.78405e+06
1.74113e+06
1.70239e+06
1.66793e+06
1.63769e+06
1.6116e+06
1.58956e+06
1.57151e+06
1.55732e+06
1.54722e+06
1.54099e+06
1.53991e+06
1.54295e+06
2.22363e+06
2.14889e+06
2.09368e+06
2.0342e+06
1.97741e+06
1.92203e+06
1.86958e+06
1.82018e+06
1.77452e+06
1.73273e+06
1.69506e+06
1.66157e+06
1.6323e+06
1.60724e+06
1.58649e+06
1.57e+06
1.55825e+06
1.55108e+06
1.55032e+06
1.55482e+06
2.17169e+06
2.12688e+06
2.07602e+06
2.02361e+06
1.97195e+06
1.92087e+06
1.87178e+06
1.82488e+06
1.78095e+06
1.74022e+06
1.70307e+06
1.66965e+06
1.64015e+06
1.61467e+06
1.59342e+06
1.57649e+06
1.56451e+06
1.55746e+06
1.55756e+06
1.56354e+06
2.13121e+06
2.09388e+06
2.05326e+06
2.00718e+06
1.96139e+06
1.9146e+06
1.86902e+06
1.82473e+06
1.78273e+06
1.74333e+06
1.70701e+06
1.67403e+06
1.64468e+06
1.61914e+06
1.59773e+06
1.58067e+06
1.56871e+06
1.56186e+06
1.56262e+06
1.56956e+06
2.07984e+06
2.05249e+06
2.02051e+06
1.98095e+06
1.94106e+06
1.89894e+06
1.85735e+06
1.81628e+06
1.77689e+06
1.73954e+06
1.70481e+06
1.67301e+06
1.64452e+06
1.6196e+06
1.59864e+06
1.58195e+06
1.57027e+06
1.56386e+06
1.56534e+06
1.57282e+06
2.02016e+06
2.00116e+06
1.97747e+06
1.94484e+06
1.91131e+06
1.87449e+06
1.83752e+06
1.80031e+06
1.7642e+06
1.72955e+06
1.69706e+06
1.66709e+06
1.64006e+06
1.61632e+06
1.59624e+06
1.58034e+06
1.56893e+06
1.56366e+06
1.56299e+06
1.57329e+06
1.95543e+06
1.94409e+06
1.92796e+06
1.90202e+06
1.87463e+06
1.8432e+06
1.81103e+06
1.77801e+06
1.74558e+06
1.71412e+06
1.68438e+06
1.65676e+06
1.63175e+06
1.60969e+06
1.59106e+06
1.57619e+06
1.56599e+06
1.56069e+06
1.5625e+06
1.5698e+06
1.88712e+06
1.88243e+06
1.87301e+06
1.85347e+06
1.83199e+06
1.80598e+06
1.77875e+06
1.75018e+06
1.72175e+06
1.69386e+06
1.66729e+06
1.64247e+06
1.6199e+06
1.59994e+06
1.58308e+06
1.56963e+06
1.56044e+06
1.55553e+06
1.55719e+06
1.56406e+06
1.81667e+06
1.81773e+06
1.81428e+06
1.80064e+06
1.7847e+06
1.76397e+06
1.74166e+06
1.71766e+06
1.69342e+06
1.66937e+06
1.6463e+06
1.62463e+06
1.60487e+06
1.58737e+06
1.5726e+06
1.56081e+06
1.55278e+06
1.5485e+06
1.54995e+06
1.55587e+06
1.74484e+06
1.75075e+06
1.75249e+06
1.74425e+06
1.7335e+06
1.71788e+06
1.70042e+06
1.68104e+06
1.66115e+06
1.64116e+06
1.62184e+06
1.60362e+06
1.58698e+06
1.57225e+06
1.55985e+06
1.54999e+06
1.54329e+06
1.5397e+06
1.54085e+06
1.54562e+06
1.67202e+06
1.682e+06
1.68827e+06
1.68496e+06
1.67904e+06
1.66833e+06
1.65564e+06
1.64092e+06
1.62547e+06
1.60971e+06
1.59435e+06
1.57982e+06
1.56656e+06
1.55487e+06
1.5451e+06
1.5374e+06
1.53223e+06
1.52948e+06
1.53032e+06
1.53378e+06
1.59823e+06
1.61163e+06
1.62186e+06
1.62306e+06
1.6217e+06
1.61575e+06
1.60778e+06
1.59775e+06
1.58684e+06
1.57546e+06
1.56427e+06
1.55363e+06
1.54398e+06
1.53555e+06
1.52864e+06
1.52333e+06
1.51989e+06
1.51813e+06
1.51873e+06
1.52088e+06
1.5232e+06
1.53955e+06
1.55332e+06
1.55875e+06
1.56177e+06
1.56051e+06
1.55727e+06
1.55199e+06
1.54576e+06
1.53892e+06
1.53206e+06
1.52551e+06
1.51965e+06
1.51469e+06
1.51083e+06
1.50811e+06
1.50659e+06
1.50604e+06
1.50656e+06
1.50751e+06
1.44639e+06
1.46541e+06
1.48249e+06
1.49204e+06
1.49942e+06
1.5029e+06
1.50449e+06
1.50413e+06
1.50275e+06
1.50063e+06
1.49829e+06
1.49602e+06
1.49412e+06
1.49278e+06
1.49212e+06
1.49214e+06
1.49274e+06
1.49359e+06
1.49428e+06
1.49426e+06
1.36714e+06
1.38882e+06
1.4092e+06
1.42298e+06
1.43487e+06
1.44328e+06
1.44995e+06
1.45476e+06
1.45847e+06
1.4613e+06
1.46369e+06
1.46585e+06
1.46805e+06
1.47043e+06
1.47308e+06
1.47594e+06
1.47879e+06
1.48124e+06
1.4824e+06
1.48172e+06
1.28456e+06
1.30918e+06
1.33316e+06
1.35153e+06
1.36833e+06
1.38211e+06
1.39425e+06
1.40459e+06
1.41373e+06
1.42181e+06
1.42915e+06
1.43593e+06
1.44234e+06
1.4485e+06
1.45446e+06
1.46016e+06
1.46531e+06
1.46948e+06
1.47141e+06
1.47048e+06
1.19796e+06
1.22624e+06
1.25444e+06
1.27809e+06
1.30044e+06
1.32018e+06
1.33833e+06
1.35469e+06
1.36967e+06
1.38332e+06
1.39586e+06
1.4074e+06
1.41808e+06
1.428e+06
1.43719e+06
1.44561e+06
1.45298e+06
1.45884e+06
1.46179e+06
1.46103e+06
1.10642e+06
1.13957e+06
1.1731e+06
1.20311e+06
1.23198e+06
1.25854e+06
1.28345e+06
1.30644e+06
1.32774e+06
1.34732e+06
1.36531e+06
1.38175e+06
1.39674e+06
1.41033e+06
1.42257e+06
1.43344e+06
1.44271e+06
1.45003e+06
1.45407e+06
1.45388e+06
1.01057e+06
1.05036e+06
1.09071e+06
1.12842e+06
1.16496e+06
1.19927e+06
1.23169e+06
1.26188e+06
1.28992e+06
1.31571e+06
1.3393e+06
1.36069e+06
1.37991e+06
1.39701e+06
1.41201e+06
1.42491e+06
1.4356e+06
1.44385e+06
1.44872e+06
1.44923e+06
910675
959716
1.00905e+06
1.05624e+06
1.10185e+06
1.14498e+06
1.18569e+06
1.22362e+06
1.25876e+06
1.29098e+06
1.32027e+06
1.34661e+06
1.37e+06
1.39041e+06
1.40784e+06
1.42226e+06
1.43359e+06
1.4418e+06
1.44648e+06
1.44736e+06
813579
874423
934580
992408
1.04791e+06
1.10027e+06
1.14944e+06
1.19507e+06
1.23714e+06
1.27552e+06
1.31022e+06
1.3412e+06
1.36844e+06
1.39188e+06
1.41142e+06
1.42694e+06
1.43823e+06
1.44538e+06
1.4482e+06
1.4479e+06
1.58396e+06
1.63748e+06
1.73926e+06
1.8532e+06
1.96982e+06
2.07215e+06
2.15322e+06
2.20731e+06
2.23503e+06
2.22949e+06
1.49797e+06
1.54843e+06
1.64403e+06
1.75417e+06
1.87179e+06
1.98087e+06
2.07422e+06
2.14374e+06
2.18777e+06
2.19565e+06
1.42045e+06
1.46847e+06
1.55778e+06
1.66149e+06
1.77446e+06
1.88198e+06
1.9781e+06
2.05626e+06
2.11553e+06
2.14909e+06
1.34942e+06
1.39598e+06
1.48059e+06
1.5792e+06
1.68852e+06
1.7948e+06
1.89211e+06
1.97426e+06
2.03827e+06
2.08642e+06
1.28278e+06
1.32812e+06
1.40835e+06
1.50152e+06
1.60599e+06
1.70939e+06
1.8063e+06
1.89202e+06
1.96023e+06
2.01839e+06
1.22013e+06
1.26473e+06
1.34155e+06
1.43008e+06
1.52996e+06
1.6299e+06
1.72456e+06
1.81096e+06
1.88033e+06
1.94504e+06
1.16024e+06
1.20425e+06
1.27806e+06
1.36229e+06
1.45766e+06
1.55397e+06
1.646e+06
1.73225e+06
1.80176e+06
1.86965e+06
1.10281e+06
1.14635e+06
1.21763e+06
1.29804e+06
1.38911e+06
1.48156e+06
1.57034e+06
1.6552e+06
1.72407e+06
1.79328e+06
1.04749e+06
1.0903e+06
1.15928e+06
1.23619e+06
1.32319e+06
1.41182e+06
1.49723e+06
1.58005e+06
1.64778e+06
1.71681e+06
994624
1.03584e+06
1.10264e+06
1.17621e+06
1.25928e+06
1.34401e+06
1.42591e+06
1.50613e+06
1.57243e+06
1.64042e+06
943289
982671
1.04719e+06
1.11743e+06
1.19661e+06
1.27738e+06
1.3557e+06
1.43296e+06
1.49759e+06
1.56398e+06
893581
930755
992671
1.05933e+06
1.13443e+06
1.21105e+06
1.28568e+06
1.3597e+06
1.4225e+06
1.48699e+06
845842
880788
938785
1.00129e+06
1.0719e+06
1.14405e+06
1.21481e+06
1.28538e+06
1.34625e+06
1.4087e+06
800748
832564
885313
942688
1.00808e+06
1.07531e+06
1.14193e+06
1.20889e+06
1.26776e+06
1.32821e+06
759668
786484
831814
882403
941453
1.00313e+06
1.06536e+06
1.12865e+06
1.18563e+06
1.24429e+06
724557
742804
777613
819251
870571
926005
983594
1.04329e+06
1.09865e+06
1.15594e+06
699338
702249
721060
749689
791663
840429
893598
950266
1.00481e+06
1.06165e+06
686586
661203
657781
671862
702922
744778
794207
848872
903858
961553
696807
614225
575902
572950
595461
632818
680511
735468
793652
854789
700639
527091
467685
450425
469339
506526
557312
616591
680385
748010
)
;

boundaryField
{
    left
    {
        type            calculated;
        value           nonuniform List<scalar> 
30
(
1.57064e+06
1.48488e+06
1.40755e+06
1.3366e+06
1.27007e+06
1.20759e+06
1.14799e+06
1.091e+06
1.03645e+06
984502
934383
886253
840509
797922
759965
729228
710777
713345
763260
879269
6.09621e+06
4.11524e+06
3.26967e+06
2.79822e+06
2.48074e+06
2.24204e+06
2.05543e+06
1.90282e+06
1.77613e+06
1.6648e+06
)
;
    }
    right
    {
        type            calculated;
        value           nonuniform List<scalar> 
30
(
1.44736e+06
1.44707e+06
1.44981e+06
1.45689e+06
1.46757e+06
1.48123e+06
1.4967e+06
1.51293e+06
1.52878e+06
1.54319e+06
1.55513e+06
1.56406e+06
1.57015e+06
1.57346e+06
1.57345e+06
1.57036e+06
1.56467e+06
1.55639e+06
1.54605e+06
1.53409e+06
1.52108e+06
1.50759e+06
1.49424e+06
1.48163e+06
1.47035e+06
1.46091e+06
1.45381e+06
1.44923e+06
1.44743e+06
1.44756e+06
)
;
    }
    down
    {
        type            calculated;
        value           nonuniform List<scalar> 
30
(
7774.88
5645.15
65460.6
160550
270066
384527
496343
602954
701025
793440
876670
949202
1.01583e+06
1.07575e+06
1.1298e+06
1.17823e+06
1.22165e+06
1.26034e+06
1.29478e+06
1.32522e+06
1.35196e+06
1.37519e+06
1.39507e+06
1.41171e+06
1.42516e+06
1.43548e+06
1.44264e+06
1.44692e+06
1.44829e+06
1.44781e+06
)
;
    }
    up
    {
        type            calculated;
        value           nonuniform List<scalar> 
30
(
678987
520868
465814
448805
467335
504027
554456
613543
677242
744948
810652
871813
932339
990478
1.04629e+06
1.09893e+06
1.14835e+06
1.1942e+06
1.23646e+06
1.275e+06
1.30985e+06
1.34095e+06
1.36829e+06
1.39181e+06
1.4114e+06
1.42696e+06
1.43825e+06
1.44539e+06
1.44819e+06
1.44799e+06
)
;
    }
    hole
    {
        type            calculated;
        value           nonuniform List<scalar> 
20
(
2.45532e+06
2.79617e+06
3.21853e+06
3.73008e+06
4.22806e+06
4.52199e+06
4.82901e+06
5.19555e+06
5.01701e+06
4.93552e+06
3737.59
3670.21
50773.4
173557
364860
622664
938352
1.30235e+06
1.70385e+06
2.12977e+06
)
;
    }
    frontAndBack
    {
        type            empty;
    }
}


// ************************************************************************* //
