/*--------------------------------*- C++ -*----------------------------------*\
  =========                 |
  \\      /  F ield         | OpenFOAM: The Open Source CFD Toolbox
   \\    /   O peration     | Website:  https://openfoam.org
    \\  /    A nd           | Version:  9
     \\/     M anipulation  |
\*---------------------------------------------------------------------------*/
FoamFile
{
    format      ascii;
    class       volSymmTensorField;
    location    "15";
    object      sigma;
}
// * * * * * * * * * * * * * * * * * * * * * * * * * * * * * * * * * * * * * //

dimensions      [1 -1 -2 0 0 0 0];

internalField   nonuniform List<symmTensor> 
1000
(
(1.83652e+06 -1.26587e+06 -6.00381e-10 1.07246e+06 -8.83869e-10 249566)
(2.15727e+06 -975590 -3.88992e-10 580514 -6.08082e-10 205632)
(2.32036e+06 -747942 -2.30973e-10 355896 -4.17902e-10 187742)
(2.38972e+06 -576389 -1.19931e-10 174629 -2.77724e-10 170022)
(2.41575e+06 -437598 -3.31237e-11 69968.2 -1.71711e-10 159649)
(2.40632e+06 -329435 3.03584e-11 -8670.22 -9.19417e-11 150461)
(2.3826e+06 -241292 8.0207e-11 -59181 -2.98611e-11 143939)
(2.34547e+06 -171282 1.17289e-10 -95720.5 1.7489e-11 138310)
(2.30713e+06 -113032 1.47268e-10 -119740 5.55176e-11 134085)
(2.25614e+06 -64575.9 1.69379e-10 -142737 8.58871e-11 129224)
(2.31952e+06 -1.407e+06 -6.01122e-10 1.08757e+06 -9.36238e-10 272821)
(2.54557e+06 -1.00804e+06 -3.52646e-10 609172 -6.00015e-10 228318)
(2.63359e+06 -719358 -1.66753e-10 407313 -3.78476e-10 210497)
(2.64275e+06 -513098 -4.24769e-11 235430 -2.21534e-10 191478)
(2.62251e+06 -354496 5.02621e-11 138911 -1.07281e-10 180130)
(2.5751e+06 -236458 1.14549e-10 63853.8 -2.46101e-11 169649)
(2.52042e+06 -143937 1.62751e-10 15619.8 3.74836e-11 161937)
(2.4577e+06 -73712.4 1.96255e-10 -22360.8 8.29787e-11 154844)
(2.3955e+06 -16723.9 2.22059e-10 -45511.3 1.18057e-10 149522)
(2.32667e+06 28847.7 2.39567e-10 -76833 1.45974e-10 142645)
(2.84593e+06 -1.4971e+06 -5.83604e-10 1.05696e+06 -9.4785e-10 293934)
(2.94329e+06 -1.00434e+06 -2.92804e-10 627157 -5.66026e-10 250593)
(2.93649e+06 -668455 -9.00073e-11 463101 -3.25678e-10 233619)
(2.87588e+06 -435391 4.16058e-11 313287 -1.5947e-10 214362)
(2.80314e+06 -263168 1.35713e-10 230699 -4.22626e-11 202396)
(2.71427e+06 -139633 1.97716e-10 163514 3.96268e-11 190944)
(2.62688e+06 -46416.5 2.41806e-10 119969 9.88732e-11 182217)
(2.53739e+06 21569.2 2.70101e-10 82580.6 1.40557e-10 173832)
(2.45335e+06 74494.3 2.90278e-10 60370.2 1.70996e-10 167484)
(2.36585e+06 117483 3.03354e-10 24085 1.96201e-10 158990)
(3.40202e+06 -1.52143e+06 -5.37716e-10 980067 -9.09746e-10 312200)
(3.3373e+06 -966197 -2.1218e-10 642181 -5.09253e-10 272783)
(3.22303e+06 -598599 -3.64735e-12 524682 -2.62407e-10 256944)
(3.08622e+06 -348221 1.28788e-10 406981 -9.49088e-11 238303)
(2.95576e+06 -169808 2.19022e-10 342389 1.9432e-11 225881)
(2.82324e+06 -45795.5 2.75388e-10 285769 9.67259e-11 213629)
(2.70188e+06 44161.2 3.1274e-10 247330 1.50356e-10 203823)
(2.58626e+06 107431 3.3439e-10 210955 1.86598e-10 194197)
(2.48114e+06 154122 3.4765e-10 188031 2.11218e-10 186615)
(2.37822e+06 192110 3.55327e-10 149087 2.32122e-10 176934)
(3.95163e+06 -1.46822e+06 -4.30261e-10 836794 -8.11576e-10 321769)
(3.71241e+06 -890441 -1.11402e-10 640145 -4.27246e-10 292335)
(3.48951e+06 -509231 9.19509e-11 585784 -1.87882e-10 279478)
(3.27056e+06 -254251 2.1679e-10 511096 -2.92547e-11 262396)
(3.07908e+06 -78706.1 2.9721e-10 469952 7.5322e-11 249936)
(2.90171e+06 39071.7 3.43677e-10 426476 1.43187e-10 237066)
(2.74666e+06 120870 3.71302e-10 393679 1.87927e-10 226196)
(2.6061e+06 176017 3.8436e-10 358285 2.16579e-10 215337)
(2.48206e+06 213990 3.89422e-10 333145 2.34094e-10 206397)
(2.3657e+06 244917 3.90702e-10 291552 2.49501e-10 195600)
(4.4647e+06 -1.36163e+06 -2.9485e-10 693715 -6.81232e-10 330288)
(4.07886e+06 -763914 1.95654e-11 633919 -3.11935e-10 311624)
(3.73617e+06 -395373 2.00158e-10 654246 -9.96981e-11 302324)
(3.42987e+06 -152523 3.06441e-10 628796 3.78403e-11 287116)
(3.1744e+06 7400.15 3.68745e-10 612625 1.238e-10 274489)
(2.95202e+06 110288 3.99903e-10 582214 1.76509e-10 260860)
(2.76454e+06 178212 4.14383e-10 553540 2.08862e-10 248710)
(2.60119e+06 221609 4.16862e-10 517831 2.2786e-10 236506)
(2.46069e+06 248756 4.12709e-10 488522 2.3731e-10 226048)
(2.3333e+06 270928 4.06876e-10 443910 2.4635e-10 214183)
(4.93675e+06 -1.14185e+06 -9.41574e-11 576919 -4.82592e-10 341770)
(4.41712e+06 -577344 1.84434e-10 647996 -1.61673e-10 332991)
(3.94314e+06 -250965 3.22348e-10 745122 2.72943e-12 326534)
(3.55017e+06 -43835.5 3.95425e-10 766067 1.03975e-10 312531)
(3.23306e+06 84261.8 4.29723e-10 769904 1.61381e-10 298980)
(2.97038e+06 162202 4.39854e-10 747828 1.93234e-10 284071)
(2.75534e+06 210258 4.38032e-10 718960 2.10151e-10 270240)
(2.57372e+06 238652 4.28464e-10 679923 2.18073e-10 256477)
(2.42074e+06 253686 4.14789e-10 643903 2.1924e-10 244351)
(2.2853e+06 266268 4.01718e-10 595288 2.21722e-10 231428)
(5.42329e+06 -820061 1.74044e-10 526678 -2.23007e-10 364078)
(4.71531e+06 -344367 3.74129e-10 718532 9.34702e-12 360359)
(4.10877e+06 -81941.4 4.5553e-10 888895 1.11819e-10 355912)
(3.63139e+06 60188.8 4.76911e-10 936190 1.5993e-10 340205)
(3.26009e+06 141456 4.74505e-10 945471 1.81179e-10 323996)
(2.96492e+06 185969 4.59079e-10 919396 1.88657e-10 306471)
(2.72939e+06 210887 4.3968e-10 882087 1.89526e-10 290190)
(2.5353e+06 223514 4.18266e-10 834497 1.86963e-10 274469)
(2.37447e+06 227469 3.96281e-10 788744 1.81268e-10 260528)
(2.23426e+06 231434 3.77014e-10 734963 1.7825e-10 246572)
(5.79172e+06 -347031 3.50722e-10 451392 1.72708e-10 384268)
(4.91721e+06 -52104.2 5.89964e-10 890258 1.99717e-10 396923)
(4.17997e+06 84516.7 5.75427e-10 1.093e+06 2.04261e-10 388388)
(3.63477e+06 130845 5.27517e-10 1.13949e+06 1.83421e-10 367837)
(3.23401e+06 154796 4.84523e-10 1.12459e+06 1.67094e-10 346201)
(2.92544e+06 163576 4.44327e-10 1.07749e+06 1.52256e-10 324767)
(2.6837e+06 167482 4.10405e-10 1.02146e+06 1.40877e-10 305441)
(2.48655e+06 167785 3.80482e-10 960443 1.31462e-10 287646)
(2.32404e+06 164869 3.5364e-10 903350 1.22394e-10 272048)
(2.18269e+06 163508 3.30739e-10 844323 1.16367e-10 257277)
(6.3188e+06 352385 5.9933e-10 713836 6.95535e-10 461576)
(5.00126e+06 380983 8.85184e-10 1.34843e+06 4.40094e-10 466872)
(4.17216e+06 240153 6.81149e-10 1.4241e+06 2.68199e-10 433297)
(3.61212e+06 161856 5.51081e-10 1.38646e+06 1.73466e-10 399297)
(3.20853e+06 124780 4.67453e-10 1.29627e+06 1.25269e-10 366858)
(2.90167e+06 108215 4.10392e-10 1.20476e+06 9.8956e-11 339371)
(2.66123e+06 101084 3.68894e-10 1.11914e+06 8.38125e-11 316102)
(2.46505e+06 97836.9 3.36406e-10 1.04187e+06 7.40105e-11 296189)
(2.30268e+06 94761.8 3.09171e-10 974448 6.60434e-11 279251)
(2.16075e+06 92891.2 2.85776e-10 912346 5.99853e-11 264044)
(-8425.75 2923.82 -3.80421e-11 -4777.02 -1.71384e-11 1721.31)
(6871.29 -10631.6 -4.51468e-11 915.186 -2.6341e-11 3525.5)
(68156.5 -33294.9 -5.74203e-11 -3405.43 -4.13965e-11 8909.27)
(166103 -51421.1 -6.50304e-11 -6980.76 -5.33322e-11 17894.1)
(279880 -62589.1 -6.72393e-11 -8832.74 -6.05791e-11 28575.7)
(399247 -68944.6 -6.59909e-11 -9730.41 -6.45904e-11 39899.3)
(516180 -71428.3 -6.22777e-11 -9870.37 -6.60128e-11 51074.6)
(627895 -71607 -5.72586e-11 -9490.26 -6.59033e-11 61805.8)
(730318 -69695.4 -4.83755e-11 -9300.98 -6.18893e-11 70249.7)
(825784 -68222.2 -3.37311e-11 -7702.79 -5.30309e-11 75250.8)
(11222.6 -11471.1 -4.5712e-11 -648.498 -2.68686e-11 3817.4)
(90190.3 -61677.4 -6.84592e-11 37927.9 -6.12263e-11 13969.9)
(204804 -117031 -9.8252e-11 39567.7 -9.82971e-11 24688.1)
(326333 -159321 -1.21403e-10 27573.1 -1.26304e-10 35121.6)
(448528 -185314 -1.34071e-10 16097 -1.43341e-10 45772.7)
(564639 -199880 -1.39585e-10 5691.78 -1.52715e-10 56002.5)
(672334 -205117 -1.39195e-10 -2331.49 -1.55867e-10 65672.9)
(771980 -204766 -1.26324e-10 -8014.4 -1.47779e-10 70599.5)
(859865 -199113 -1.10365e-10 -12898.2 -1.36049e-10 74436.6)
(943218 -194605 -9.56328e-11 -13346.6 -1.25973e-10 78608.4)
(34636 -56107.7 -6.73997e-11 38194.6 -5.75975e-11 8706.67)
(172757 -153815 -1.1698e-10 81708.4 -1.23915e-10 24569.9)
(330946 -222346 -1.54296e-10 75702.6 -1.69628e-10 38788.1)
(476176 -268260 -1.81213e-10 46322.5 -1.99706e-10 50142.7)
(609851 -293545 -1.95196e-10 19173.5 -2.15955e-10 60704.8)
(727565 -305445 -1.9516e-10 -4463.12 -2.18478e-10 67425.1)
(830943 -306906 -1.818e-10 -22355.8 -2.08637e-10 70242.8)
(923072 -302022 -1.65958e-10 -35299.2 -1.96127e-10 73231.8)
(1.00011e+06 -291344 -1.48579e-10 -45066 -1.8143e-10 75961.5)
(1.07468e+06 -282367 -1.32399e-10 -47892.3 -1.68867e-10 79447.7)
(82979.4 -126022 -9.6725e-11 127240 -1.06222e-10 19631.5)
(284408 -264184 -1.73913e-10 138332 -1.99058e-10 38806.8)
(478542 -336209 -2.14372e-10 114828 -2.46727e-10 55111.6)
(644266 -376610 -2.39523e-10 67110.3 -2.72711e-10 67071.4)
(787615 -393344 -2.40284e-10 25263.2 -2.74925e-10 73060.7)
(906951 -396478 -2.26238e-10 -11007.3 -2.62718e-10 74259.8)
(1.00663e+06 -389745 -2.08621e-10 -38894.1 -2.46621e-10 75706.6)
(1.09212e+06 -377266 -1.89243e-10 -59520.6 -2.28764e-10 77470.1)
(1.15903e+06 -359900 -1.69335e-10 -75105.1 -2.09831e-10 79030.4)
(1.2257e+06 -345223 -1.5085e-10 -81343.8 -1.93776e-10 81757)
(165437 -224744 -1.36823e-10 257531 -1.74936e-10 36764.7)
(434168 -384279 -2.34479e-10 200617 -2.80775e-10 57058.2)
(658273 -448987 -2.73553e-10 145345 -3.22869e-10 73865.7)
(838099 -475928 -2.82888e-10 74263.3 -3.30894e-10 80802.4)
(985442 -477732 -2.64642e-10 17035.8 -3.1302e-10 80691.5)
(1.10238e+06 -467228 -2.42822e-10 -31035.7 -2.9064e-10 80426)
(1.19567e+06 -448808 -2.19115e-10 -67425.8 -2.66377e-10 80610.7)
(1.27271e+06 -426233 -1.94862e-10 -94291.9 -2.41842e-10 81281.8)
(1.32863e+06 -400850 -1.71682e-10 -114329 -2.18025e-10 81825.6)
(1.3867e+06 -379266 -1.50209e-10 -122937 -1.97859e-10 83911.2)
(292826 -354408 -1.90049e-10 418873 -2.64964e-10 60351.3)
(626942 -505973 -2.93034e-10 270272 -3.63613e-10 79980.8)
(874817 -550400 -3.20863e-10 174375 -3.88573e-10 94624.8)
(1.06162e+06 -557022 -3.01163e-10 77593.9 -3.65977e-10 91268.9)
(1.20671e+06 -539879 -2.71909e-10 5714.02 -3.34079e-10 89404.4)
(1.31614e+06 -513332 -2.41503e-10 -52516.5 -3.00557e-10 87666.5)
(1.39923e+06 -481752 -2.11286e-10 -95732.6 -2.67671e-10 86637.7)
(1.46483e+06 -448206 -1.81999e-10 -127334 -2.36305e-10 86274.5)
(1.50787e+06 -414570 -1.55641e-10 -150851 -2.07722e-10 85837.4)
(1.5555e+06 -385730 -1.31199e-10 -161019 -1.83461e-10 87300.3)
(474059 -513636 -2.57851e-10 592548 -3.7502e-10 89828.9)
(861976 -624425 -3.4723e-10 342488 -4.44225e-10 107170)
(1.12434e+06 -634470 -3.36513e-10 202237 -4.26258e-10 109543)
(1.30965e+06 -613899 -3.00948e-10 78503 -3.82704e-10 102986)
(1.44556e+06 -574665 -2.59694e-10 -6998.59 -3.35409e-10 99199.6)
(1.54179e+06 -530775 -2.20663e-10 -73879.9 -2.90542e-10 95920)
(1.61049e+06 -485673 -1.84256e-10 -122116 -2.49356e-10 93708.3)
(1.66113e+06 -441327 -1.50498e-10 -156994 -2.11739e-10 92322.7)
(1.68937e+06 -399992 -1.21542e-10 -182668 -1.7907e-10 90973.1)
(1.72406e+06 -364128 -9.46176e-11 -193761 -1.51155e-10 91767.3)
(717091 -696330 -3.38628e-10 760434 -5.00643e-10 124622)
(1.13725e+06 -735021 -3.90693e-10 414325 -5.1612e-10 136388)
(1.40118e+06 -697269 -3.34935e-10 233173 -4.47933e-10 126527)
(1.57513e+06 -643431 -2.81071e-10 84753.3 -3.80502e-10 116656)
(1.69468e+06 -579937 -2.27429e-10 -12149.6 -3.17239e-10 110909)
(1.7722e+06 -518464 -1.80358e-10 -85798.2 -2.61553e-10 106059)
(1.82254e+06 -460510 -1.38701e-10 -137579 -2.13017e-10 102649)
(1.85503e+06 -406556 -1.0163e-10 -174355 -1.70365e-10 100244)
(1.86682e+06 -358847 -7.11265e-11 -201908 -1.34656e-10 97917.6)
(1.88606e+06 -316873 -4.26226e-11 -213157 -1.03991e-10 98005.3)
(1.02651e+06 -892165 -4.28109e-10 905312 -6.34553e-10 163931)
(1.44845e+06 -833338 -4.05172e-10 481202 -5.62516e-10 159269)
(1.69776e+06 -737081 -3.161e-10 268636 -4.5327e-10 145410)
(1.84913e+06 -645396 -2.42549e-10 100524 -3.60461e-10 132378)
(1.94501e+06 -556414 -1.76694e-10 -4175.19 -2.81455e-10 124792)
(1.99837e+06 -477968 -1.22675e-10 -82458.2 -2.16059e-10 118370)
(2.02682e+06 -408407 -7.69879e-11 -135798 -1.61522e-10 113826)
(2.03788e+06 -346824 -3.82913e-11 -174030 -1.15472e-10 110268)
(2.0325e+06 -294336 -7.29274e-12 -202134 -7.79924e-11 107078)
(2.03313e+06 -247400 2.15287e-11 -216628 -4.52472e-11 105883)
(1.40163e+06 -1.08675e+06 -5.19516e-10 1.01106e+06 -7.66763e-10 206563)
(1.79041e+06 -915285 -4.05372e-10 538120 -5.94341e-10 182621)
(2.00628e+06 -753985 -2.8114e-10 309881 -4.43128e-10 165965)
(2.12282e+06 -622020 -1.87898e-10 130058 -3.25291e-10 150235)
(2.18727e+06 -507453 -1.10737e-10 22349 -2.31686e-10 141044)
(2.21124e+06 -413154 -5.11267e-11 -57615.7 -1.58103e-10 133158)
(2.21425e+06 -333688 -2.93063e-12 -111016 -9.91635e-11 127474)
(2.20174e+06 -266674 3.57906e-11 -148414 -5.16133e-11 122922)
(2.17915e+06 -212291 6.54289e-11 -178832 -1.40691e-11 118597)
(2.15844e+06 -165111 9.14585e-11 -189610 1.66043e-11 116822)
(911145 -63289.4 -1.84328e-11 -7696.68 -4.25562e-11 79588.2)
(986263 -56466.8 -3.37607e-12 -5983.11 -3.18959e-11 83662.5)
(1.05511e+06 -50538.7 1.02116e-11 -4762.63 -2.22995e-11 87346.4)
(1.11693e+06 -45157.5 2.24432e-11 -3858.8 -1.3622e-11 90630.4)
(1.17273e+06 -40168.8 3.3567e-11 -2965.65 -5.71159e-12 93606.4)
(1.22267e+06 -35702.9 4.3519e-11 -2313.17 1.38569e-12 96250.6)
(1.26746e+06 -31607.9 5.25007e-11 -1689.47 7.80516e-12 98628)
(1.30734e+06 -27914.9 6.05255e-11 -1209.18 1.35615e-11 100736)
(1.34283e+06 -24529.2 6.77286e-11 -784.102 1.87495e-11 102613)
(1.37417e+06 -21428 7.4158e-11 -452.739 2.34104e-11 104267)
(1.4017e+06 -18543.5 7.9904e-11 -182.754 2.76126e-11 105719)
(1.4256e+06 -15834.2 8.50192e-11 14.4389 3.14006e-11 106978)
(1.44605e+06 -13246.6 8.9561e-11 148.449 3.48233e-11 108054)
(1.46314e+06 -10742.6 9.35697e-11 216.729 3.79152e-11 108952)
(1.47693e+06 -8290.25 9.70687e-11 217.631 4.07008e-11 109676)
(1.48749e+06 -5886.38 1.00075e-10 161.829 4.3189e-11 110230)
(1.49479e+06 -3565.62 1.0256e-10 46.9858 4.53529e-11 110613)
(1.49914e+06 -1459.9 1.0449e-10 -41.0979 4.71226e-11 110849)
(1.50055e+06 153.913 1.05696e-10 -32.4435 4.83073e-11 110943)
(1.50041e+06 532.642 1.05936e-10 777.884 4.84522e-11 111047)
(1.01032e+06 -181205 -7.78068e-11 -17217.6 -1.10999e-10 81647.2)
(1.06568e+06 -163090 -5.86e-11 -16783.7 -9.43973e-11 84726)
(1.11905e+06 -147138 -4.09937e-11 -15361.2 -7.95086e-11 87803.6)
(1.16668e+06 -132255 -2.4895e-11 -14636.3 -6.57308e-11 90488.6)
(1.21084e+06 -118311 -9.85911e-12 -13277.7 -5.29401e-11 93069.2)
(1.25056e+06 -105713 3.69097e-12 -12384.3 -4.13601e-11 95348.3)
(1.28684e+06 -94052 1.61712e-11 -11306.4 -3.07115e-11 97466.6)
(1.31944e+06 -83462.9 2.74496e-11 -10491.1 -2.1052e-11 99351.3)
(1.34889e+06 -73693.6 3.77651e-11 -9704.71 -1.2198e-11 101063)
(1.37519e+06 -64705.5 4.71394e-11 -9097.42 -4.1051e-12 102583)
(1.39864e+06 -56327 5.57238e-11 -8590.37 3.35608e-12 103940)
(1.41935e+06 -48460.7 6.3591e-11 -8221.15 1.02618e-11 105133)
(1.43747e+06 -40976.8 7.08474e-11 -7952.38 1.67082e-11 106180)
(1.45311e+06 -33786 7.75644e-11 -7762.73 2.27603e-11 107087)
(1.46635e+06 -26817 8.37993e-11 -7598.3 2.84664e-11 107869)
(1.47733e+06 -20067.5 8.95753e-11 -7346.1 3.3826e-11 108546)
(1.48604e+06 -13618.4 9.48471e-11 -6858.21 3.87678e-11 109135)
(1.49274e+06 -7750.62 9.94881e-11 -5755.81 4.30844e-11 109696)
(1.49716e+06 -2889.15 1.0321e-10 -3544.59 4.6415e-11 110273)
(1.5e+06 -309.676 1.05361e-10 1069.21 4.78264e-11 111052)
(1.12546e+06 -262285 -1.12797e-10 -53013.3 -1.50712e-10 81601.7)
(1.16076e+06 -237597 -9.23533e-11 -51732.3 -1.31561e-10 83880.5)
(1.19875e+06 -215455 -7.30043e-11 -47068.9 -1.14255e-10 86698.4)
(1.2316e+06 -194898 -5.54267e-11 -44021 -9.8246e-11 89026.7)
(1.2637e+06 -175318 -3.85239e-11 -39671.8 -8.30955e-11 91473)
(1.29253e+06 -157545 -2.32432e-11 -36325.9 -6.92998e-11 93600)
(1.31972e+06 -140919 -8.90365e-12 -32787.5 -5.64222e-11 95653.9)
(1.34439e+06 -125729 4.16005e-12 -29880 -4.46358e-11 97479)
(1.36717e+06 -111629 1.62714e-11 -27210 -3.36996e-11 99164.1)
(1.38782e+06 -98611.5 2.73885e-11 -25029.3 -2.36035e-11 100663)
(1.40662e+06 -86463.5 3.76883e-11 -23208.7 -1.41968e-11 102011)
(1.42354e+06 -75079.3 4.72317e-11 -21797.9 -5.40652e-12 103201)
(1.43872e+06 -64302.5 5.61393e-11 -20724.7 2.87499e-12 104251)
(1.45223e+06 -54025.1 6.44877e-11 -19931.3 1.07175e-11 105175)
(1.46414e+06 -44150.2 7.23518e-11 -19293.4 1.81761e-11 105992)
(1.47455e+06 -34642 7.97743e-11 -18583.6 2.52574e-11 106738)
(1.48339e+06 -25523.1 8.67429e-11 -17472.2 3.19021e-11 107453)
(1.49083e+06 -16937.9 9.32125e-11 -15296.1 3.79538e-11 108229)
(1.49623e+06 -9151.14 9.89542e-11 -11113.6 4.3073e-11 109154)
(1.5002e+06 -2516.03 1.03887e-10 -3288.94 4.68896e-11 110464)
(1.26019e+06 -319514 -1.30138e-10 -88235.4 -1.73074e-10 82945.6)
(1.2741e+06 -291230 -1.10539e-10 -87436.3 -1.53299e-10 84143.3)
(1.29615e+06 -265154 -9.09526e-11 -80293.4 -1.35027e-10 86542.4)
(1.31305e+06 -241368 -7.36145e-11 -75977.6 -1.18378e-10 88283.9)
(1.33215e+06 -218218 -5.62823e-11 -69211.4 -1.02248e-10 90445)
(1.34894e+06 -197206 -4.06542e-11 -63930.2 -8.75524e-11 92267.8)
(1.36601e+06 -177304 -2.56646e-11 -58233.1 -7.36159e-11 94142.7)
(1.38167e+06 -159036 -1.1918e-11 -53432.2 -6.07737e-11 95808)
(1.39682e+06 -141962 1.00256e-12 -48966.4 -4.87251e-11 97387.1)
(1.41089e+06 -126140 1.29661e-11 -45216.9 -3.75137e-11 98800.8)
(1.42414e+06 -111337 2.41652e-11 -42017.3 -2.69799e-11 100088)
(1.43643e+06 -97458.6 3.46297e-11 -39441.8 -1.7068e-11 101233)
(1.44783e+06 -84339.3 4.44818e-11 -37394.6 -7.67036e-12 102254)
(1.45835e+06 -71857.1 5.37956e-11 -35799 1.28314e-12 103163)
(1.46797e+06 -59890.4 6.26531e-11 -34487 9.85322e-12 103984)
(1.47675e+06 -48348.1 7.11261e-11 -33172.6 1.80715e-11 104756)
(1.4845e+06 -37170.3 7.92358e-11 -31455.4 2.59145e-11 105524)
(1.49133e+06 -26284.4 8.70699e-11 -28586.4 3.33552e-11 106392)
(1.49634e+06 -15784.4 9.44657e-11 -23593.3 4.01399e-11 107440)
(1.5003e+06 -4912.29 1.02061e-10 -14732.5 4.66359e-11 108945)
(1.40486e+06 -349172 -1.29121e-10 -130171 -1.756e-10 84300.5)
(1.39652e+06 -320767 -1.12655e-10 -130016 -1.57551e-10 84303.5)
(1.40292e+06 -293073 -9.42032e-11 -119484 -1.39925e-10 86384.2)
(1.4035e+06 -268685 -7.87849e-11 -113713 -1.24426e-10 87507.8)
(1.40955e+06 -244186 -6.23951e-11 -104050 -1.08841e-10 89413.1)
(1.41398e+06 -222047 -4.77658e-11 -96415 -9.47172e-11 90940.3)
(1.42063e+06 -200755 -3.33251e-11 -88103.6 -8.1045e-11 92654.1)
(1.4269e+06 -181106 -1.99941e-11 -80934.6 -6.83578e-11 94177.7)
(1.43399e+06 -162589 -7.26478e-12 -74221.7 -5.62978e-11 95666.3)
(1.44097e+06 -145337 4.63524e-12 -68468.2 -4.49711e-11 97007.3)
(1.44815e+06 -129131 1.58895e-11 -63501.6 -3.42279e-11 98241)
(1.45522e+06 -113898 2.64959e-11 -59421.9 -2.40343e-11 99340)
(1.46222e+06 -99479.5 3.65607e-11 -56131.5 -1.42949e-11 100321)
(1.46905e+06 -85743.3 4.61558e-11 -53547.8 -4.93892e-12 101192)
(1.47563e+06 -72541.9 5.53684e-11 -51488.9 4.10457e-12 101975)
(1.48196e+06 -59711.5 6.43067e-11 -49655.3 1.29067e-11 102711)
(1.48776e+06 -47103.7 7.30355e-11 -47637.4 2.14954e-11 103441)
(1.49312e+06 -34405.9 8.17851e-11 -44710.3 3.00013e-11 104268)
(1.49702e+06 -21607.1 9.04438e-11 -40008.3 3.82465e-11 105256)
(1.50032e+06 -7019.62 1.00232e-10 -31890.4 4.72279e-11 106683)
(1.55696e+06 -352793 -1.10736e-10 -168176 -1.60745e-10 86904.7)
(1.52541e+06 -327926 -9.98678e-11 -170396 -1.46722e-10 85388.5)
(1.51649e+06 -300834 -8.38952e-11 -156923 -1.31129e-10 87077.8)
(1.50042e+06 -278246 -7.19622e-11 -150504 -1.18301e-10 87428.1)
(1.49341e+06 -254393 -5.77767e-11 -138591 -1.04507e-10 88964.2)
(1.48529e+06 -232920 -4.53024e-11 -129064 -9.21033e-11 90101)
(1.48128e+06 -211888 -3.24838e-11 -118588 -7.97533e-11 91560.5)
(1.4779e+06 -192318 -2.05212e-11 -109325 -6.8176e-11 92872.8)
(1.47656e+06 -173704 -8.87594e-12 -100569 -5.70001e-11 94207.8)
(1.4761e+06 -156224 2.15634e-12 -92892 -4.63748e-11 95429.9)
(1.47676e+06 -139707 1.27241e-11 -86168.2 -3.61797e-11 96571.2)
(1.47815e+06 -124099 2.27961e-11 -80531.5 -2.63991e-11 97593.9)
(1.48022e+06 -109266 3.24529e-11 -75920.7 -1.69545e-11 98506.4)
(1.48279e+06 -95072.8 4.1755e-11 -72283.4 -7.77755e-12 99308.4)
(1.48576e+06 -81357.3 5.07909e-11 -69471.2 1.21222e-12 100016)
(1.48901e+06 -67893.6 5.96947e-11 -67233.2 1.01264e-11 100659)
(1.49228e+06 -54465 6.85712e-11 -65224.1 1.90448e-11 101273)
(1.49556e+06 -40551.7 7.77612e-11 -62852.1 2.82422e-11 101942)
(1.498e+06 -26084.2 8.72082e-11 -59445.9 3.76164e-11 102711)
(1.50025e+06 -8660.83 9.8538e-11 -53640.9 4.86503e-11 103824)
(1.70926e+06 -330365 -7.59429e-11 -200023 -1.2937e-10 90687.5)
(1.6546e+06 -312998 -7.31836e-11 -206659 -1.21747e-10 87334.9)
(1.63146e+06 -288822 -6.10054e-11 -191386 -1.0949e-10 88507.1)
(1.59923e+06 -270314 -5.39262e-11 -185044 -1.00716e-10 87982.2)
(1.57958e+06 -249239 -4.32374e-11 -171794 -8.99801e-11 89021.5)
(1.55934e+06 -230148 -3.39312e-11 -160646 -8.03627e-11 89729.7)
(1.54481e+06 -210989 -2.37283e-11 -148311 -7.03551e-11 90879.2)
(1.53194e+06 -192822 -1.39352e-11 -137019 -6.07415e-11 91961.5)
(1.52216e+06 -175308 -4.1233e-12 -126283 -5.12345e-11 93116.9)
(1.5142e+06 -158641 5.3873e-12 -116697 -4.20012e-11 94201.1)
(1.50819e+06 -142755 1.46602e-11 -108236 -3.29876e-11 95226.3)
(1.50368e+06 -127625 2.36356e-11 -101063 -2.41997e-11 96147.3)
(1.50053e+06 -113164 3.2354e-11 -95170.9 -1.55891e-11 96960.8)
(1.49853e+06 -99241.1 4.08613e-11 -90549.5 -7.09184e-12 97658)
(1.49749e+06 -85693.7 4.9239e-11 -87106.3 1.37569e-12 98245.2)
(1.49727e+06 -72251.4 5.7637e-11 -84675.1 9.95971e-12 98739.7)
(1.49762e+06 -58650.9 6.61919e-11 -83012 1.87851e-11 99165.3)
(1.49844e+06 -44220.9 7.53179e-11 -81728 2.8242e-11 99576.4)
(1.4992e+06 -28865.4 8.50136e-11 -80370.6 3.82977e-11 100007)
(1.50012e+06 -9715.09 9.71203e-11 -78026.4 5.07602e-11 100628)
(1.85563e+06 -283545 -2.64701e-11 -219831 -8.37675e-11 96084.2)
(1.77944e+06 -277540 -3.40558e-11 -232910 -8.47291e-11 90656.6)
(1.74343e+06 -258784 -2.71204e-11 -218590 -7.70322e-11 90984.9)
(1.69655e+06 -245890 -2.56478e-11 -212882 -7.31324e-11 89566.3)
(1.66479e+06 -229494 -1.96201e-11 -200168 -6.64509e-11 89864.6)
(1.63342e+06 -214121 -1.42047e-11 -188520 -6.02894e-11 90029.2)
(1.60872e+06 -198316 -7.52538e-12 -175570 -5.34285e-11 90702.8)
(1.58679e+06 -182841 -6.68345e-13 -163105 -4.64957e-11 91447.1)
(1.56872e+06 -167637 6.56243e-12 -151007 -3.93731e-11 92333.1)
(1.55337e+06 -152856 1.38898e-11 -139862 -3.21901e-11 93224.6)
(1.5407e+06 -138546 2.12759e-11 -129820 -2.49644e-11 94100.5)
(1.53025e+06 -124725 2.86346e-11 -121128 -1.77181e-11 94904)
(1.5218e+06 -111364 3.59498e-11 -113891 -1.04385e-11 95611.9)
(1.51508e+06 -98366.3 4.32393e-11 -108196 -3.07549e-12 96200.2)
(1.50989e+06 -85592.2 5.05613e-11 -104052 4.44847e-12 96659.9)
(1.506e+06 -72760.9 5.80609e-11 -101428 1.22968e-11 96988.1)
(1.50327e+06 -59594.5 6.58901e-11 -100219 2.06271e-11 97194.1)
(1.50145e+06 -45338.6 7.4488e-11 -100297 2.99034e-11 97293.4)
(1.50047e+06 -29893.4 8.39129e-11 -101434 4.01588e-11 97313.6)
(1.49993e+06 -10154.4 9.60486e-11 -103300 5.33735e-11 97321.5)
(1.99114e+06 -216859 3.42789e-11 -223724 -2.77935e-11 103289)
(1.89565e+06 -224303 1.53444e-11 -244209 -3.84175e-11 95744.1)
(1.84773e+06 -214833 1.45748e-11 -237304 -3.70075e-11 94380.8)
(1.78907e+06 -208653 1.01359e-11 -233176 -3.83593e-11 92072.7)
(1.74572e+06 -198898 1.03146e-11 -222448 -3.68165e-11 91439.7)
(1.70475e+06 -188162 1.14796e-11 -210589 -3.45544e-11 91087)
(1.67065e+06 -176474 1.42641e-11 -197286 -3.12493e-11 91278.9)
(1.64054e+06 -164272 1.79405e-11 -183948 -2.72725e-11 91681.8)
(1.61481e+06 -151895 2.23453e-11 -170875 -2.27787e-11 92271.9)
(1.59255e+06 -139528 2.72164e-11 -158643 -1.79002e-11 92925.8)
(1.57355e+06 -127329 3.2415e-11 -147511 -1.27314e-11 93596.6)
(1.55733e+06 -115366 3.78241e-11 -137781 -7.32041e-12 94221.3)
(1.54365e+06 -103660 4.33885e-11 -129634 -1.68198e-12 94762.9)
(1.5322e+06 -92149.8 4.90979e-11 -123244 4.21874e-12 95184.5)
(1.52279e+06 -80718.4 5.49919e-11 -118722 1.04548e-11 95463.3)
(1.51514e+06 -69098.3 6.1196e-11 -116182 1.71939e-11 95575.1)
(1.50922e+06 -57016.4 6.78728e-11 -115680 2.46198e-11 95514.5)
(1.50463e+06 -43701.3 7.54407e-11 -117372 3.32271e-11 95252.3)
(1.50185e+06 -29050.9 8.40296e-11 -121264 4.31234e-11 94812.7)
(1.49974e+06 -9942.68 9.54089e-11 -127709 5.63179e-11 94137.1)
(2.10396e+06 -131234 1.03909e-10 -215845 3.74185e-11 111160)
(2.00695e+06 -147655 7.92978e-11 -232342 2.02725e-11 103931)
(1.94558e+06 -151458 6.79165e-11 -239679 1.34196e-11 99854.9)
(1.88028e+06 -152955 5.75885e-11 -240984 7.06109e-12 96399.5)
(1.82543e+06 -152139 5.03653e-11 -236738 2.47342e-12 94221.8)
(1.77542e+06 -148637 4.5629e-11 -228462 -3.95202e-13 92848.8)
(1.73183e+06 -143264 4.30646e-11 -217235 -1.82684e-12 92207)
(1.69336e+06 -136331 4.2249e-11 -204528 -1.96496e-12 92035.9)
(1.65989e+06 -128319 4.28406e-11 -191151 -1.04487e-12 92217)
(1.63072e+06 -119587 4.44899e-11 -177985 7.38576e-13 92595.8)
(1.60547e+06 -110424 4.69462e-11 -165574 3.22587e-12 93078.6)
(1.58366e+06 -101036 4.99959e-11 -154426 6.29795e-12 93571.6)
(1.56494e+06 -91547 5.35022e-11 -144900 9.886e-12 94009.6)
(1.54894e+06 -81985.4 5.73843e-11 -137327 1.39775e-11 94330.5)
(1.53545e+06 -72304.4 6.16323e-11 -131963 1.86151e-11 94490.7)
(1.52413e+06 -62296 6.6319e-11 -129106 2.39427e-11 94437.8)
(1.51507e+06 -51728.5 7.15924e-11 -128986 3.01464e-11 94149.1)
(1.50773e+06 -39887.8 7.78059e-11 -132078 3.77078e-11 93545.9)
(1.50313e+06 -26683.1 8.51552e-11 -138636 4.68036e-11 92648.2)
(1.49947e+06 -9178.27 9.51743e-11 -149708 5.93421e-11 91270.1)
(2.16802e+06 -60558.1 1.57745e-10 -192052 8.67911e-11 118454)
(2.07865e+06 -69295.8 1.38983e-10 -209243 7.54487e-11 111626)
(2.00842e+06 -85520 1.18323e-10 -226016 6.07282e-11 105703)
(1.94101e+06 -93174.4 1.03685e-10 -233237 5.0806e-11 101285)
(1.88138e+06 -98556.5 9.17902e-11 -233407 4.22282e-11 98206.4)
(1.82678e+06 -100956 8.26097e-11 -228975 3.55148e-11 96019.9)
(1.77825e+06 -101006 7.58787e-11 -220648 3.0418e-11 94677.5)
(1.73473e+06 -99117 7.11383e-11 -210116 2.67708e-11 93900)
(1.69626e+06 -95661.6 6.81354e-11 -198241 2.44303e-11 93571.5)
(1.66222e+06 -91030 6.6509e-11 -186030 2.32028e-11 93524.7)
(1.63233e+06 -85524.8 6.60099e-11 -174153 2.29421e-11 93654.4)
(1.60613e+06 -79400.1 6.63963e-11 -163241 2.35148e-11 93852)
(1.58334e+06 -72830 6.75023e-11 -153777 2.48363e-11 94037)
(1.56357e+06 -65905.7 6.92042e-11 -146220 2.68683e-11 94130.2)
(1.54665e+06 -58640.8 7.14564e-11 -140961 2.96318e-11 94071.4)
(1.53223e+06 -50909.2 7.42714e-11 -138463 3.32333e-11 93784.6)
(1.52049e+06 -42547.1 7.77675e-11 -139126 3.78443e-11 93229.1)
(1.51079e+06 -32999.7 8.21716e-11 -143692 4.38605e-11 92283.8)
(1.50456e+06 -22203.4 8.77175e-11 -152652 5.15047e-11 90958)
(1.49941e+06 -7663.09 9.55582e-11 -167701 6.2417e-11 88945.6)
(2.13528e+06 8895.02 1.97036e-10 -165475 1.26852e-10 121255)
(2.06511e+06 -1190.35 1.79612e-10 -201473 1.18414e-10 112918)
(2.00056e+06 -21033.5 1.57498e-10 -218852 1.01852e-10 107150)
(1.93931e+06 -34030.1 1.40344e-10 -228635 8.92159e-11 102631)
(1.88408e+06 -44261.4 1.26013e-10 -230558 7.80085e-11 99476.1)
(1.83277e+06 -51507.1 1.14242e-10 -227742 6.85574e-11 97175.8)
(1.78643e+06 -56184.1 1.04904e-10 -220892 6.07582e-11 95685.2)
(1.74416e+06 -58713.2 9.75571e-11 -211658 5.44473e-11 94739.1)
(1.70617e+06 -59427.8 9.19982e-11 -200888 4.95197e-11 94232.4)
(1.67201e+06 -58698.4 8.78993e-11 -189589 4.58077e-11 94005.6)
(1.64153e+06 -56817.4 8.50418e-11 -178448 4.31878e-11 93959.3)
(1.61442e+06 -54044.7 8.31954e-11 -168133 4.15367e-11 93986.1)
(1.59049e+06 -50569.1 8.2199e-11 -159171 4.0775e-11 94005.3)
(1.56944e+06 -46517.4 8.19189e-11 -152081 4.0855e-11 93933.5)
(1.55121e+06 -41938.3 8.22967e-11 -147321 4.17892e-11 93706)
(1.53547e+06 -36792.2 8.32974e-11 -145448 4.36434e-11 93235.7)
(1.52254e+06 -30964.3 8.50212e-11 -146963 4.65769e-11 92474)
(1.51175e+06 -24107.7 8.75598e-11 -152756 5.08653e-11 91276.7)
(1.50487e+06 -16230.1 9.11422e-11 -163514 5.67325e-11 89642.9)
(1.49915e+06 -5590.23 9.63972e-11 -181181 6.53216e-11 87206.3)
(2.11055e+06 78562.1 2.37756e-10 -133991 1.67163e-10 125099)
(2.0459e+06 62629 2.17312e-10 -175826 1.56003e-10 116196)
(1.99123e+06 39204.8 1.9426e-10 -197389 1.38393e-10 110326)
(1.9348e+06 21897.6 1.74979e-10 -211687 1.23837e-10 105399)
(1.88398e+06 7575.75 1.5862e-10 -217437 1.10741e-10 101909)
(1.83536e+06 -3817.93 1.44551e-10 -218059 9.91732e-11 99236.8)
(1.79098e+06 -12516.7 1.32906e-10 -214094 8.92154e-11 97412.2)
(1.74984e+06 -18974.8 1.23204e-10 -207292 8.06839e-11 96150.5)
(1.71244e+06 -23455.3 1.15329e-10 -198495 7.35455e-11 95363.2)
(1.67838e+06 -26309.2 1.08971e-10 -188778 6.7658e-11 94885.8)
(1.64768e+06 -27803.8 1.03944e-10 -178878 6.29313e-11 94619)
(1.62009e+06 -28196.6 1.00031e-10 -169534 5.92593e-11 94450.5)
(1.59548e+06 -27686.2 9.7072e-11 -161342 5.65702e-11 94294.2)
(1.57365e+06 -26427.7 9.49221e-11 -154895 5.48116e-11 94060)
(1.55455e+06 -24512.5 9.35031e-11 -150739 5.39827e-11 93673.2)
(1.53796e+06 -21982.1 9.27358e-11 -149503 5.41094e-11 93040.3)
(1.52422e+06 -18781.6 9.26849e-11 -151831 5.53323e-11 92095.3)
(1.5127e+06 -14821.7 9.3289e-11 -158607 5.77582e-11 90693)
(1.50539e+06 -10062.4 9.48343e-11 -170612 6.16729e-11 88831.7)
(1.49909e+06 -3474.48 9.74272e-11 -190259 6.77643e-11 86051.4)
(2.0669e+06 132564 2.65874e-10 -107551 1.96106e-10 127119)
(2.01089e+06 116264 2.46295e-10 -154133 1.85982e-10 118025)
(1.96544e+06 91733.7 2.23797e-10 -178320 1.68724e-10 112258)
(1.91531e+06 72382 2.04058e-10 -195607 1.53695e-10 107229)
(1.87012e+06 55378.9 1.86758e-10 -203990 1.39607e-10 103639)
(1.82567e+06 41016.3 1.71366e-10 -207060 1.26712e-10 100815)
(1.78465e+06 29153 1.58169e-10 -205298 1.15202e-10 98827.6)
(1.74602e+06 19470.2 1.46761e-10 -200462 1.04978e-10 97389.5)
(1.71048e+06 11771.6 1.371e-10 -193383 9.6069e-11 96426.5)
(1.67773e+06 5769.37 1.28927e-10 -185145 8.8382e-11 95777.4)
(1.6479e+06 1232.5 1.22096e-10 -176498 8.18633e-11 95348.2)
(1.62082e+06 -2076.1 1.16412e-10 -168206 7.64295e-11 95027.3)
(1.59645e+06 -4351.55 1.11729e-10 -160895 7.20218e-11 94729.4)