/*--------------------------------*- C++ -*----------------------------------*\
  =========                 |
  \\      /  F ield         | OpenFOAM: The Open Source CFD Toolbox
   \\    /   O peration     | Website:  https://openfoam.org
    \\  /    A nd           | Version:  9
     \\/     M anipulation  |
\*---------------------------------------------------------------------------*/
FoamFile
{
    format      ascii;
    class       volVectorField;
    location    "1";
    object      D;
}
// * * * * * * * * * * * * * * * * * * * * * * * * * * * * * * * * * * * * * //

dimensions      [0 1 0 0 0 0 0];

internalField   nonuniform List<vector> 
1000
(
(6.63248e-07 1.97539e-07 0)
(6.18734e-07 2.20555e-07 0)
(5.86514e-07 2.39405e-07 0)
(5.63405e-07 2.53786e-07 0)
(5.47029e-07 2.65914e-07 0)
(5.35603e-07 2.76148e-07 0)
(5.2799e-07 2.85206e-07 0)
(5.23294e-07 2.93337e-07 0)
(5.20806e-07 3.0083e-07 0)
(5.20162e-07 3.07866e-07 0)
(5.97458e-07 1.76972e-07 0)
(5.51243e-07 1.93763e-07 0)
(5.18005e-07 2.08075e-07 0)
(4.94273e-07 2.1885e-07 0)
(4.77483e-07 2.28079e-07 0)
(4.65731e-07 2.35849e-07 0)
(4.57804e-07 2.42763e-07 0)
(4.52754e-07 2.48986e-07 0)
(4.49852e-07 2.54679e-07 0)
(4.486e-07 2.60193e-07 0)
(5.30281e-07 1.56461e-07 0)
(4.83675e-07 1.66574e-07 0)
(4.50342e-07 1.76151e-07 0)
(4.26674e-07 1.83289e-07 0)
(4.09995e-07 1.89695e-07 0)
(3.98327e-07 1.9514e-07 0)
(3.90411e-07 2.00088e-07 0)
(3.85272e-07 2.04594e-07 0)
(3.82179e-07 2.08702e-07 0)
(3.80605e-07 2.12794e-07 0)
(4.62057e-07 1.36407e-07 0)
(4.1644e-07 1.39664e-07 0)
(3.84011e-07 1.44482e-07 0)
(3.61151e-07 1.48072e-07 0)
(3.45149e-07 1.51816e-07 0)
(3.34006e-07 1.55134e-07 0)
(3.26451e-07 1.58336e-07 0)
(3.21502e-07 1.61342e-07 0)
(3.1847e-07 1.64099e-07 0)
(3.16779e-07 1.66949e-07 0)
(3.92959e-07 1.1719e-07 0)
(3.49764e-07 1.13714e-07 0)
(3.19292e-07 1.13958e-07 0)
(2.98044e-07 1.1424e-07 0)
(2.83322e-07 1.156e-07 0)
(2.73157e-07 1.17081e-07 0)
(2.66303e-07 1.18827e-07 0)
(2.61804e-07 1.20606e-07 0)
(2.59031e-07 1.2228e-07 0)
(2.57393e-07 1.24106e-07 0)
(3.23288e-07 9.90174e-08 0)
(2.83844e-07 8.92463e-08 0)
(2.56408e-07 8.53661e-08 0)
(2.37598e-07 8.27702e-08 0)
(2.24766e-07 8.21669e-08 0)
(2.1602e-07 8.21967e-08 0)
(2.10182e-07 8.28419e-08 0)
(2.0636e-07 8.37106e-08 0)
(2.04006e-07 8.46033e-08 0)
(2.02549e-07 8.56661e-08 0)
(2.52823e-07 8.19553e-08 0)
(2.18546e-07 6.66653e-08 0)
(1.95295e-07 5.94379e-08 0)
(1.79793e-07 5.46592e-08 0)
(1.69465e-07 5.26801e-08 0)
(1.62548e-07 5.17486e-08 0)
(1.57996e-07 5.16953e-08 0)
(1.55026e-07 5.19931e-08 0)
(1.532e-07 5.24039e-08 0)
(1.52015e-07 5.29679e-08 0)
(1.82082e-07 6.55448e-08 0)
(1.54126e-07 4.6013e-08 0)
(1.36237e-07 3.67709e-08 0)
(1.24843e-07 3.08726e-08 0)
(1.17504e-07 2.83103e-08 0)
(1.12686e-07 2.70117e-08 0)
(1.09565e-07 2.66949e-08 0)
(1.0753e-07 2.67609e-08 0)
(1.06277e-07 2.69704e-08 0)
(1.05414e-07 2.72874e-08 0)
(1.09652e-07 4.80961e-08 0)
(9.0167e-08 2.67916e-08 0)
(7.9019e-08 1.774e-08 0)
(7.23977e-08 1.23681e-08 0)
(6.83974e-08 1.02164e-08 0)
(6.5808e-08 9.17299e-09 0)
(6.41612e-08 8.95623e-09 0)
(6.30649e-08 9.0261e-09 0)
(6.2375e-08 9.20246e-09 0)
(6.18524e-08 9.42697e-09 0)
(3.76015e-08 2.57493e-08 0)
(2.87528e-08 9.89537e-09 0)
(2.53664e-08 4.34361e-09 0)
(2.35562e-08 1.68349e-09 0)
(2.25003e-08 8.18704e-10 0)
(2.17721e-08 4.95035e-10 0)
(2.13012e-08 5.22222e-10 0)
(2.09653e-08 6.41323e-10 0)
(2.07443e-08 7.80311e-10 0)
(2.0555e-08 9.18737e-10 0)
(1.17136e-06 3.25005e-07 0)
(1.16964e-06 3.67899e-07 0)
(1.16844e-06 4.07765e-07 0)
(1.16859e-06 4.44021e-07 0)
(1.17043e-06 4.77012e-07 0)
(1.17412e-06 5.07183e-07 0)
(1.17968e-06 5.3505e-07 0)
(1.18701e-06 5.61075e-07 0)
(1.19604e-06 5.8562e-07 0)
(1.20655e-06 6.09094e-07 0)
(1.13452e-06 3.22761e-07 0)
(1.1295e-06 3.65614e-07 0)
(1.12608e-06 4.05044e-07 0)
(1.12464e-06 4.40597e-07 0)
(1.12535e-06 4.72713e-07 0)
(1.12813e-06 5.01865e-07 0)
(1.13288e-06 5.28621e-07 0)
(1.13939e-06 5.53468e-07 0)
(1.14757e-06 5.76781e-07 0)
(1.15711e-06 5.99022e-07 0)
(1.09553e-06 3.17569e-07 0)
(1.0866e-06 3.60442e-07 0)
(1.08015e-06 3.99121e-07 0)
(1.07634e-06 4.33524e-07 0)
(1.07521e-06 4.64363e-07 0)
(1.07645e-06 4.92187e-07 0)
(1.07988e-06 5.17607e-07 0)
(1.08515e-06 5.41117e-07 0)
(1.09214e-06 5.63106e-07 0)
(1.10043e-06 5.84047e-07 0)
(1.0534e-06 3.09748e-07 0)
(1.04008e-06 3.52565e-07 0)
(1.03012e-06 3.90306e-07 0)
(1.0235e-06 4.23293e-07 0)
(1.02009e-06 4.52587e-07 0)
(1.01941e-06 4.78833e-07 0)
(1.02117e-06 5.02697e-07 0)
(1.0249e-06 5.24679e-07 0)
(1.03048e-06 5.45182e-07 0)
(1.03734e-06 5.64674e-07 0)
(1.00764e-06 2.99378e-07 0)
(9.89492e-07 3.41807e-07 0)
(9.75778e-07 3.78287e-07 0)
(9.66206e-07 4.0952e-07 0)
(9.60387e-07 4.36962e-07 0)
(9.57667e-07 4.61355e-07 0)
(9.5764e-07 4.83429e-07 0)
(9.59758e-07 5.03684e-07 0)
(9.63843e-07 5.22541e-07 0)
(9.69215e-07 5.40437e-07 0)
(9.58144e-07 2.86702e-07 0)
(9.34911e-07 3.28151e-07 0)
(9.17374e-07 3.62978e-07 0)
(9.04855e-07 3.92154e-07 0)
(8.96647e-07 4.175e-07 0)
(8.91909e-07 4.39826e-07 0)
(8.90119e-07 4.59928e-07 0)
(8.90637e-07 4.7829e-07 0)
(8.93246e-07 4.95361e-07 0)
(8.9717e-07 5.11522e-07 0)
(9.05044e-07 2.71911e-07 0)
(8.76661e-07 3.11577e-07 0)
(8.55391e-07 3.44261e-07 0)
(8.40064e-07 3.71056e-07 0)
(8.29613e-07 3.94073e-07 0)
(8.22995e-07 4.14151e-07 0)
(8.19568e-07 4.32133e-07 0)
(8.18605e-07 4.48479e-07 0)
(8.19839e-07 4.63657e-07 0)
(8.22431e-07 4.77984e-07 0)
(8.48619e-07 2.55277e-07 0)
(8.15271e-07 2.92222e-07 0)
(7.90512e-07 3.22231e-07 0)
(7.7262e-07 3.4633e-07 0)
(7.60158e-07 3.66824e-07 0)
(7.51875e-07 3.84521e-07 0)
(7.47e-07 4.00288e-07 0)
(7.44736e-07 4.1454e-07 0)
(7.44747e-07 4.27761e-07 0)
(7.46181e-07 4.40171e-07 0)
(7.89237e-07 2.37095e-07 0)
(7.51376e-07 2.70327e-07 0)
(7.23528e-07 2.97111e-07 0)
(7.03422e-07 3.18214e-07 0)
(6.89258e-07 3.36021e-07 0)
(6.79587e-07 3.5125e-07 0)
(6.73505e-07 3.64751e-07 0)
(6.70162e-07 3.76891e-07 0)
(6.69128e-07 3.88122e-07 0)
(6.69621e-07 3.98611e-07 0)
(7.27308e-07 2.17718e-07 0)
(6.85643e-07 2.46272e-07 0)
(6.55259e-07 2.69314e-07 0)
(6.3338e-07 2.87159e-07 0)
(6.17888e-07 3.02161e-07 0)
(6.07149e-07 3.14883e-07 0)
(6.00138e-07 3.26132e-07 0)
(5.95967e-07 3.36189e-07 0)
(5.94103e-07 3.45487e-07 0)
(5.93937e-07 3.53951e-07 0)
(1.21909e-06 6.3153e-07 0)
(1.23347e-06 6.53715e-07 0)
(1.24895e-06 6.75486e-07 0)
(1.26542e-06 6.96966e-07 0)
(1.28277e-06 7.1828e-07 0)
(1.30093e-06 7.39505e-07 0)
(1.3198e-06 7.60723e-07 0)
(1.3393e-06 7.81993e-07 0)
(1.35938e-06 8.03368e-07 0)
(1.37996e-06 8.2489e-07 0)
(1.40099e-06 8.46596e-07 0)
(1.4224e-06 8.68517e-07 0)
(1.44414e-06 8.90677e-07 0)
(1.46617e-06 9.13094e-07 0)
(1.48844e-06 9.35783e-07 0)
(1.51088e-06 9.58748e-07 0)
(1.53347e-06 9.81983e-07 0)
(1.55614e-06 1.00547e-06 0)
(1.57886e-06 1.02916e-06 0)
(1.60157e-06 1.05298e-06 0)
(1.17024e-06 6.20543e-07 0)
(1.18642e-06 6.42303e-07 0)
(1.20346e-06 6.63672e-07 0)
(1.22122e-06 6.84792e-07 0)
(1.23968e-06 7.05798e-07 0)
(1.25875e-06 7.26757e-07 0)
(1.27839e-06 7.47756e-07 0)
(1.29854e-06 7.68847e-07 0)
(1.31916e-06 7.90084e-07 0)
(1.34019e-06 8.11506e-07 0)
(1.36159e-06 8.33148e-07 0)
(1.38332e-06 8.5504e-07 0)
(1.40535e-06 8.77204e-07 0)
(1.42763e-06 8.9966e-07 0)
(1.45012e-06 9.22418e-07 0)
(1.4728e-06 9.45484e-07 0)
(1.49562e-06 9.68853e-07 0)
(1.51855e-06 9.92505e-07 0)
(1.54157e-06 1.0164e-06 0)
(1.5646e-06 1.04046e-06 0)
(1.11433e-06 6.04893e-07 0)
(1.13281e-06 6.26684e-07 0)
(1.15191e-06 6.48093e-07 0)
(1.17145e-06 6.69245e-07 0)
(1.19147e-06 6.90298e-07 0)
(1.2119e-06 7.11307e-07 0)
(1.23273e-06 7.32372e-07 0)
(1.25392e-06 7.53541e-07 0)
(1.27545e-06 7.74872e-07 0)
(1.29729e-06 7.96404e-07 0)
(1.31941e-06 8.18174e-07 0)
(1.34178e-06 8.40212e-07 0)
(1.3644e-06 8.62542e-07 0)
(1.38722e-06 8.85184e-07 0)
(1.41023e-06 9.08152e-07 0)
(1.43341e-06 9.31454e-07 0)
(1.45673e-06 9.55091e-07 0)
(1.48015e-06 9.79056e-07 0)
(1.50367e-06 1.00333e-06 0)
(1.5272e-06 1.02787e-06 0)
(1.05217e-06 5.84989e-07 0)
(1.07338e-06 6.07155e-07 0)
(1.09497e-06 6.28956e-07 0)
(1.11669e-06 6.50451e-07 0)
(1.13868e-06 6.71843e-07 0)
(1.16084e-06 6.93169e-07 0)
(1.18323e-06 7.14544e-07 0)
(1.20581e-06 7.36015e-07 0)
(1.22859e-06 7.57646e-07 0)
(1.25155e-06 7.7948e-07 0)
(1.27469e-06 8.01556e-07 0)
(1.298e-06 8.23906e-07 0)
(1.32147e-06 8.46558e-07 0)
(1.34509e-06 8.69536e-07 0)
(1.36886e-06 8.92857e-07 0)
(1.39275e-06 9.16537e-07 0)
(1.41677e-06 9.40587e-07 0)
(1.44087e-06 9.65011e-07 0)
(1.46506e-06 9.89819e-07 0)
(1.48925e-06 1.015e-06 0)
(9.85138e-07 5.60416e-07 0)
(1.00938e-06 5.83349e-07 0)
(1.03378e-06 6.0594e-07 0)
(1.05799e-06 6.2813e-07 0)
(1.08225e-06 6.50191e-07 0)
(1.10644e-06 6.72133e-07 0)
(1.13067e-06 6.94093e-07 0)
(1.1549e-06 7.16117e-07 0)
(1.17918e-06 7.3828e-07 0)
(1.20351e-06 7.60626e-07 0)
(1.2279e-06 7.83203e-07 0)
(1.25235e-06 8.06046e-07 0)
(1.27689e-06 8.29189e-07 0)
(1.3015e-06 8.52659e-07 0)
(1.3262e-06 8.76482e-07 0)
(1.35098e-06 9.00682e-07 0)
(1.37584e-06 9.25281e-07 0)
(1.40077e-06 9.50303e-07 0)
(1.42575e-06 9.75784e-07 0)
(1.45073e-06 1.00173e-06 0)
(9.14327e-07 5.31346e-07 0)
(9.41825e-07 5.5541e-07 0)
(9.69285e-07 5.79157e-07 0)
(9.96203e-07 6.02371e-07 0)
(1.02296e-06 6.25406e-07 0)
(1.0494e-06 6.48249e-07 0)
(1.07568e-06 6.71055e-07 0)
(1.10178e-06 6.93875e-07 0)
(1.12776e-06 7.16792e-07 0)
(1.15364e-06 7.39859e-07 0)
(1.17946e-06 7.63128e-07 0)
(1.20523e-06 7.86641e-07 0)
(1.23098e-06 8.10439e-07 0)
(1.25673e-06 8.34556e-07 0)
(1.2825e-06 8.59024e-07 0)
(1.30829e-06 8.83878e-07 0)
(1.33412e-06 9.09153e-07 0)
(1.35997e-06 9.34887e-07 0)
(1.38586e-06 9.61146e-07 0)
(1.41174e-06 9.87957e-07 0)
(8.40924e-07 4.97849e-07 0)
(8.71791e-07 5.23405e-07 0)
(9.02452e-07 5.48664e-07 0)
(9.32225e-07 5.73236e-07 0)
(9.61622e-07 5.97543e-07 0)
(9.90465e-07 6.21565e-07 0)
(1.01895e-06 6.45471e-07 0)
(1.04706e-06 6.69325e-07 0)
(1.07488e-06 6.93216e-07 0)
(1.10246e-06 7.17207e-07 0)
(1.12984e-06 7.41358e-07 0)
(1.15705e-06 7.65719e-07 0)
(1.18414e-06 7.90337e-07 0)
(1.21113e-06 8.15253e-07 0)
(1.23806e-06 8.40508e-07 0)
(1.26495e-06 8.66144e-07 0)
(1.29182e-06 8.92209e-07 0)
(1.31868e-06 9.18755e-07 0)
(1.34555e-06 9.4587e-07 0)
(1.37242e-06 9.73595e-07 0)
(7.66047e-07 4.6026e-07 0)
(8.00288e-07 4.87648e-07 0)
(8.34181e-07 5.14699e-07 0)
(8.66878e-07 5.40932e-07 0)
(8.98981e-07 5.66775e-07 0)
(9.30315e-07 5.92243e-07 0)
(9.61089e-07 6.17493e-07 0)
(9.91312e-07 6.4261e-07 0)
(1.02108e-06 6.67686e-07 0)
(1.05045e-06 6.92798e-07 0)
(1.07948e-06 7.18013e-07 0)
(1.10822e-06 7.4339e-07 0)
(1.13672e-06 7.68983e-07 0)
(1.16503e-06 7.9484e-07 0)
(1.19319e-06 8.2101e-07 0)
(1.22124e-06 8.47543e-07 0)
(1.24921e-06 8.74497e-07 0)
(1.27713e-06 9.01933e-07 0)
(1.30503e-06 9.29958e-07 0)
(1.33293e-06 9.58621e-07 0)
(6.90849e-07 4.18969e-07 0)
(7.28368e-07 4.48541e-07 0)
(7.65402e-07 4.77599e-07 0)
(8.01031e-07 5.05773e-07 0)
(8.3583e-07 5.33368e-07 0)
(8.69681e-07 5.60491e-07 0)
(9.0277e-07 5.8728e-07 0)
(9.35141e-07 6.13849e-07 0)
(9.66894e-07 6.40296e-07 0)
(9.98096e-07 6.66709e-07 0)
(1.02882e-06 6.93161e-07 0)
(1.05913e-06 7.19719e-07 0)
(1.08909e-06 7.46442e-07 0)
(1.11876e-06 7.73384e-07 0)
(1.14819e-06 8.00599e-07 0)
(1.17743e-06 8.28142e-07 0)
(1.20653e-06 8.56078e-07 0)
(1.23554e-06 8.84474e-07 0)
(1.2645e-06 9.13446e-07 0)
(1.29347e-06 9.43047e-07 0)
(6.16232e-07 3.74673e-07 0)
(6.56849e-07 4.06637e-07 0)
(6.96682e-07 4.37746e-07 0)
(7.35166e-07 4.68055e-07 0)
(7.72601e-07 4.97628e-07 0)
(8.08978e-07 5.26625e-07 0)
(8.44412e-07 5.55166e-07 0)
(8.78972e-07 5.83376e-07 0)
(9.12751e-07 6.11366e-07 0)
(9.45827e-07 6.39235e-07 0)
(9.78283e-07 6.67067e-07 0)
(1.0102e-06 6.94938e-07 0)
(1.04164e-06 7.22914e-07 0)
(1.07268e-06 7.51054e-07 0)
(1.10339e-06 7.79418e-07 0)
(1.13383e-06 8.08062e-07 0)
(1.16406e-06 8.37054e-07 0)
(1.19416e-06 8.66462e-07 0)
(1.22417e-06 8.96401e-07 0)
(1.25421e-06 9.26925e-07 0)
(5.58873e-07 3.41105e-07 0)
(6.01186e-07 3.74838e-07 0)
(6.42471e-07 4.07102e-07 0)
(6.82489e-07 4.3863e-07 0)
(7.21408e-07 4.69418e-07 0)
(7.59225e-07 4.9962e-07 0)
(7.96042e-07 5.29345e-07 0)
(8.31913e-07 5.58704e-07 0)
(8.66925e-07 5.878e-07 0)
(9.01154e-07 6.16722e-07 0)
(9.34681e-07 6.45554e-07 0)
(9.67583e-07 6.74365e-07 0)
(9.99936e-07 7.03221e-07 0)
(1.03181e-06 7.32179e-07 0)
(1.06329e-06 7.61294e-07 0)
(1.09444e-06 7.9062e-07 0)
(1.12532e-06 8.20219e-07 0)
(1.15604e-06 8.50151e-07 0)
(1.18663e-06 8.80515e-07 0)
(1.21727e-06 9.11354e-07 0)
(5.20828e-07 3.20684e-07 0)
(5.63114e-07 3.54389e-07 0)
(6.04383e-07 3.86914e-07 0)
(6.44507e-07 4.18816e-07 0)
(6.83601e-07 4.50076e-07 0)
(7.21649e-07 4.80801e-07 0)
(7.58732e-07 5.11078e-07 0)
(7.94889e-07 5.40995e-07 0)
(8.30194e-07 5.70636e-07 0)
(8.6471e-07 6.00077e-07 0)
(8.98511e-07 6.29389e-07 0)
(9.31666e-07 6.58634e-07 0)
(9.64248e-07 6.87869e-07 0)
(9.96329e-07 7.17145e-07 0)
(1.02798e-06 7.46509e-07 0)
(1.05928e-06 7.76009e-07 0)
(1.09029e-06 8.05694e-07 0)
(1.12111e-06 8.35615e-07 0)
(1.15181e-06 8.65845e-07 0)
(1.18256e-06 8.96411e-07 0)
(4.87323e-07 3.01184e-07 0)
(5.28813e-07 3.34747e-07 0)
(5.69634e-07 3.67348e-07 0)
(6.09422e-07 3.99466e-07 0)
(6.48335e-07 4.31057e-07 0)
(6.8629e-07 4.62189e-07 0)
(7.23359e-07 4.92925e-07 0)
(7.59555e-07 5.23326e-07 0)
(7.94938e-07 5.53459e-07 0)
(8.29555e-07 5.8338e-07 0)
(8.63469e-07 6.13147e-07 0)
(8.96742e-07 6.4281e-07 0)
(9.29439e-07 6.72414e-07 0)
(9.61628e-07 7.02001e-07 0)
(9.93377e-07 7.3161e-07 0)
(1.02476e-06 7.61278e-07 0)
(1.05585e-06 7.91039e-07 0)
(1.08675e-06 8.20931e-07 0)
(1.11751e-06 8.50996e-07 0)
(1.14834e-06 8.81248e-07 0)
(4.5735e-07 2.82521e-07 0)
(4.97817e-07 3.15752e-07 0)
(5.37878e-07 3.48286e-07 0)
(5.77047e-07 3.80517e-07 0)
(6.15499e-07 4.12349e-07 0)
(6.53102e-07 4.43815e-07 0)
(6.89919e-07 4.74948e-07 0)
(7.25937e-07 5.05783e-07 0)
(7.61203e-07 5.36363e-07 0)
(7.95749e-07 5.66729e-07 0)
(8.29627e-07 5.96922e-07 0)
(8.62887e-07 6.26979e-07 0)
(8.9559e-07 6.56934e-07 0)
(9.27795e-07 6.86819e-07 0)
(9.59567e-07 7.1666e-07 0)
(9.90978e-07 7.46482e-07 0)
(1.0221e-06 7.76304e-07 0)
(1.05302e-06 8.06153e-07 0)
(1.08382e-06 8.36039e-07 0)
(1.11469e-06 8.65951e-07 0)
(4.30546e-07 2.64873e-07 0)
(4.69774e-07 2.97663e-07 0)
(5.08829e-07 3.30017e-07 0)
(5.47143e-07 3.62239e-07 0)
(5.84902e-07 3.942e-07 0)
(6.21938e-07 4.25901e-07 0)
(6.583e-07 4.57342e-07 0)
(6.93954e-07 4.88535e-07 0)
(7.28935e-07 5.19499e-07 0)
(7.63258e-07 5.50257e-07 0)
(7.96966e-07 5.80832e-07 0)
(8.30098e-07 6.11248e-07 0)
(8.62705e-07 6.41526e-07 0)
(8.9484e-07 6.71684e-07 0)
(9.26563e-07 7.01738e-07 0)
(9.57939e-07 7.31699e-07 0)
(9.89041e-07 7.61572e-07 0)
(1.01994e-06 7.91364e-07 0)
(1.05076e-06 8.21042e-07 0)
(1.08165e-06 8.50605e-07 0)
(4.06379e-07 2.48222e-07 0)
(4.44255e-07 2.80474e-07 0)
(4.82144e-07 3.1255e-07 0)
(5.19441e-07 3.44668e-07 0)
(5.56336e-07 3.76666e-07 0)
(5.92634e-07 4.08517e-07 0)
(6.28376e-07 4.4019e-07 0)
(6.63511e-07 4.71671e-07 0)
(6.9806e-07 5.02957e-07 0)
(7.32029e-07 5.34052e-07 0)
(7.65448e-07 5.64963e-07 0)
(7.98346e-07 5.95697e-07 0)
(8.30767e-07 6.26263e-07 0)
(8.62757e-07 6.56666e-07 0)
(8.94366e-07 6.86909e-07 0)
(9.25659e-07 7.16989e-07 0)
(9.56691e-07 7.46897e-07 0)
(9.8756e-07 7.7661e-07 0)
(1.01832e-06 8.06093e-07 0)
(1.04914e-06 8.35325e-07 0)
(3.84414e-07 2.32565e-07 0)
(4.20868e-07 2.64226e-07 0)
(4.57483e-07 2.95954e-07 0)
(4.93648e-07 3.27887e-07 0)
(5.29548e-07 3.59841e-07 0)
(5.64978e-07 3.91762e-07 0)
(5.99968e-07 4.23589e-07 0)
(6.34458e-07 4.55286e-07 0)
(6.68458e-07 4.8683e-07 0)
(7.01962e-07 5.18203e-07 0)
(7.3499e-07 5.49396e-07 0)
(7.67566e-07 5.80403e-07 0)
(7.99722e-07 6.11217e-07 0)
(8.31496e-07 6.41831e-07 0)
(8.62935e-07 6.72235e-07 0)
(8.94092e-07 7.02413e-07 0)
(9.25019e-07 7.3234e-07 0)
(9.55802e-07 7.61983e-07 0)
(9.86483e-07 7.91276e-07 0)
(1.01723e-06 8.2018e-07 0)
(3.64226e-07 2.1785e-07 0)
(3.99229e-07 2.48888e-07 0)
(4.34507e-07 2.8022e-07 0)
(4.69465e-07 3.11909e-07 0)
(5.0428e-07 3.43754e-07 0)
(5.38745e-07 3.75677e-07 0)
(5.72884e-07 4.07591e-07 0)
(6.06629e-07 4.3944e-07 0)
(6.39983e-07 4.71178e-07 0)
(6.72931e-07 5.02772e-07 0)
(7.05487e-07 5.34195e-07 0)
(7.37663e-07 5.65426e-07 0)
(7.69486e-07 5.96445e-07 0)
(8.00988e-07 6.27234e-07 0)
(8.32204e-07 6.5777e-07 0)
(8.63183e-07 6.88025e-07 0)
(8.93968e-07 7.1796e-07 0)
(9.24633e-07 7.47528e-07 0)
(9.55213e-07 7.76645e-07 0)
(9.85854e-07 8.05257e-07 0)
(3.45436e-07 2.0402e-07 0)
(3.78982e-07 2.34432e-07 0)
(4.12888e-07 2.6534e-07 0)
(4.46591e-07 2.96744e-07 0)
(4.8026e-07 3.2843e-07 0)
(5.13691e-07 3.60297e-07 0)
(5.46906e-07 3.92239e-07 0)
(5.79832e-07 4.2418e-07 0)
(6.12466e-07 4.56054e-07 0)
(6.44787e-07 4.87811e-07 0)
(6.76802e-07 5.19411e-07 0)
(7.08518e-07 5.50817e-07 0)
(7.39954e-07 5.81998e-07 0)
(7.71133e-07 6.12924e-07 0)
(8.02085e-07 6.43561e-07 0)
(8.32849e-07 6.73872e-07 0)
(8.63461e-07 7.03804e-07 0)
(8.93981e-07 7.33302e-07 0)
(9.24436e-07 7.62263e-07 0)
(9.54943e-07 7.90625e-07 0)
(3.27696e-07 1.91008e-07 0)
(3.5979e-07 2.20809e-07 0)
(3.9231e-07 2.51283e-07 0)
(4.24733e-07 2.82377e-07 0)
(4.57216e-07 3.13867e-07 0)
(4.89569e-07 3.45635e-07 0)
(5.21807e-07 3.77555e-07 0)
(5.53859e-07 4.09534e-07 0)
(5.85718e-07 4.41489e-07 0)
(6.17359e-07 4.73357e-07 0)
(6.48783e-07 5.05082e-07 0)
(6.79992e-07 5.36615e-07 0)
(7.10996e-07 5.67915e-07 0)
(7.41815e-07 5.9894e-07 0)
(7.72469e-07 6.29648e-07 0)
(8.02989e-07 6.59992e-07 0)
(8.33402e-07 6.89913e-07 0)
(8.63755e-07 7.19346e-07 0)
(8.94065e-07 7.48177e-07 0)
(9.24418e-07 7.76341e-07 0)
(3.10685e-07 1.78755e-07 0)
(3.4134e-07 2.07972e-07 0)
(3.7247e-07 2.38018e-07 0)
(4.036e-07 2.68789e-07 0)
(4.34875e-07 3.00059e-07 0)
(4.6612e-07 3.31693e-07 0)
(4.97349e-07 3.63548e-07 0)
(5.28492e-07 3.95518e-07 0)
(5.59538e-07 4.27506e-07 0)
(5.90463e-07 4.59434e-07 0)
(6.2126e-07 4.91235e-07 0)
(6.51927e-07 5.22849e-07 0)
(6.8247e-07 5.54224e-07 0)
(7.12899e-07 5.85311e-07 0)
(7.43231e-07 6.16059e-07 0)
(7.73485e-07 6.46416e-07 0)
(8.03681e-07 6.76317e-07 0)
(8.33849e-07 7.05692e-07 0)
(8.64e-07 7.34424e-07 0)
(8.94185e-07 7.62448e-07 0)
(2.94105e-07 1.67207e-07 0)
(3.23331e-07 1.9588e-07 0)
(3.53074e-07 2.25509e-07 0)
(3.82907e-07 2.55957e-07 0)
(4.12964e-07 2.8699e-07 0)
(4.43087e-07 3.18462e-07 0)
(4.73288e-07 3.50218e-07 0)
(5.03501e-07 3.82137e-07 0)
(5.33715e-07 4.14113e-07 0)
(5.63901e-07 4.46056e-07 0)
(5.94051e-07 4.77886e-07 0)
(6.24156e-07 5.09536e-07 0)
(6.54218e-07 5.40945e-07 0)
(6.84241e-07 5.72057e-07 0)
(7.14234e-07 6.02815e-07 0)
(7.44208e-07 6.33164e-07 0)
(7.74174e-07 6.63036e-07 0)
(8.04147e-07 6.92363e-07 0)
(8.3413e-07 7.21028e-07 0)
(8.64138e-07 7.48971e-07 0)
(2.77667e-07 1.56318e-07 0)
(3.05472e-07 1.84489e-07 0)
(3.33832e-07 2.13722e-07 0)
(3.62369e-07 2.4385e-07 0)
(3.91206e-07 2.74638e-07 0)
(4.20204e-07 3.05927e-07 0)
(4.49373e-07 3.37552e-07 0)
(4.78652e-07 3.69386e-07 0)
(5.08026e-07 4.01309e-07 0)
(5.37468e-07 4.33222e-07 0)
(5.66963e-07 4.65039e-07 0)
(5.96501e-07 4.96683e-07 0)
(6.26076e-07 5.28087e-07 0)
(6.55687e-07 5.59188e-07 0)
(6.85334e-07 5.89928e-07 0)
(7.15022e-07 6.20248e-07 0)
(7.44753e-07 6.50083e-07 0)
(7.74527e-07 6.79368e-07 0)
(8.04338e-07 7.07997e-07 0)
(8.3417e-07 7.35917e-07 0)
(2.61091e-07 1.46065e-07 0)
(2.87475e-07 1.73776e-07 0)
(3.14454e-07 2.02634e-07 0)
(3.41699e-07 2.32448e-07 0)
(3.69323e-07 2.62982e-07 0)
(3.97203e-07 2.94069e-07 0)
(4.25347e-07 3.25537e-07 0)
(4.537e-07 3.57251e-07 0)
(4.82244e-07 3.89083e-07 0)
(5.1095e-07 4.20927e-07 0)
(5.39801e-07 4.52689e-07 0)
(5.68779e-07 4.84287e-07 0)
(5.97875e-07 5.15648e-07 0)
(6.27079e-07 5.46705e-07 0)
(6.56386e-07 5.77398e-07 0)
(6.85791e-07 6.07669e-07 0)
(7.15288e-07 6.37458e-07 0)
(7.44866e-07 6.66707e-07 0)
(7.74509e-07 6.95325e-07 0)
(8.04173e-07 7.23276e-07 0)
(2.44084e-07 1.36414e-07 0)
(2.69041e-07 1.63707e-07 0)
(2.94639e-07 1.92209e-07 0)
(3.20601e-07 2.21715e-07 0)
(3.47025e-07 2.51988e-07 0)
(3.73805e-07 2.82856e-07 0)
(4.00946e-07 3.14142e-07 0)
(4.28395e-07 3.45704e-07 0)
(4.56134e-07 3.7741e-07 0)
(4.8413e-07 4.09148e-07 0)
(5.1236e-07 4.40817e-07 0)
(5.40803e-07 4.72333e-07 0)
(5.69442e-07 5.03616e-07 0)
(5.98259e-07 5.34598e-07 0)
(6.27243e-07 5.65218e-07 0)
(6.5638e-07 5.95421e-07 0)
(6.85656e-07 6.25152e-07 0)
(7.15048e-07 6.54365e-07 0)
(7.44532e-07 6.82992e-07 0)
(7.74043e-07 7.11017e-07 0)
(2.26347e-07 1.27389e-07 0)
(2.49865e-07 1.54292e-07 0)
(2.74083e-07 1.82448e-07 0)
(2.98774e-07 2.11644e-07 0)
(3.24018e-07 2.41643e-07 0)
(3.49726e-07 2.72269e-07 0)
(3.75898e-07 3.03344e-07 0)
(4.02483e-07 3.3472e-07 0)
(4.29457e-07 3.66263e-07 0)
(4.56785e-07 3.97857e-07 0)
(4.84439e-07 4.29397e-07 0)
(5.12388e-07 4.60794e-07 0)
(5.4061e-07 4.91966e-07 0)
(5.69078e-07 5.22845e-07 0)
(5.97771e-07 5.53368e-07 0)
(6.26667e-07 5.83483e-07 0)
(6.55744e-07 6.13144e-07 0)
(6.8497e-07 6.42317e-07 0)
(7.14312e-07 6.70964e-07 0)
(7.43691e-07 6.99091e-07 0)
(2.0754e-07 1.18937e-07 0)
(2.29605e-07 1.45473e-07 0)
(2.52445e-07 1.73289e-07 0)
(2.75883e-07 2.0217e-07 0)
(2.99979e-07 2.3188e-07 0)
(3.24659e-07 2.62242e-07 0)
(3.49912e-07 2.93077e-07 0)
(3.75689e-07 3.24237e-07 0)
(4.0196e-07 3.55584e-07 0)
(4.28684e-07 3.86999e-07 0)
(4.55824e-07 4.18377e-07 0)
(4.83344e-07 4.49624e-07 0)
(5.11209e-07 4.80659e-07 0)
(5.39385e-07 5.1141e-07 0)
(5.67841e-07 5.41816e-07 0)
(5.96542e-07 5.71827e-07 0)
(6.25458e-07 6.01405e-07 0)
(6.54549e-07 6.3053e-07 0)
(6.83774e-07 6.59195e-07 0)
(7.13052e-07 6.87433e-07 0)
(1.87325e-07 1.11179e-07 0)
(2.0792e-07 1.3734e-07 0)
(2.2939e-07 1.64794e-07 0)
(2.51605e-07 1.9333e-07 0)
(2.746e-07 2.22716e-07 0)
(2.98309e-07 2.52775e-07 0)
(3.22712e-07 2.83328e-07 0)
(3.47757e-07 3.14227e-07 0)
(3.73406e-07 3.45335e-07 0)
(3.99609e-07 3.76531e-07 0)
(4.26322e-07 4.07708e-07 0)
(4.53497e-07 4.38773e-07 0)
(4.8109e-07 4.6964e-07 0)
(5.09054e-07 5.0024e-07 0)
(5.37346e-07 5.3051e-07 0)
(5.6592e-07 5.60403e-07 0)
(5.94733e-07 5.89888e-07 0)
(6.23736e-07 6.18956e-07 0)
(6.52882e-07 6.47626e-07 0)
(6.82092e-07 6.75962e-07 0)
(1.65226e-07 1.03922e-07 0)
(1.84344e-07 1.29701e-07 0)
(2.04469e-07 1.56775e-07 0)
(2.25507e-07 1.84945e-07 0)
(2.47469e-07 2.13979e-07 0)
(2.7029e-07 2.43705e-07 0)
(2.93938e-07 2.73946e-07 0)
(3.18355e-07 3.04554e-07 0)
(3.4349e-07 3.35391e-07 0)
(3.69287e-07 3.66339e-07 0)
(3.95688e-07 3.97289e-07 0)
(4.22635e-07 4.28147e-07 0)
(4.50072e-07 4.58829e-07 0)
(4.77939e-07 4.89262e-07 0)
(5.06178e-07 5.19385e-07 0)
(5.34729e-07 5.49154e-07 0)
(5.63532e-07 5.78539e-07 0)
(5.92524e-07 6.0754e-07 0)
(6.21648e-07 6.36196e-07 0)
(6.50828e-07 6.64599e-07 0)
(1.40967e-07 9.75811e-08 0)
(1.58611e-07 1.22893e-07 0)
(1.77431e-07 1.49502e-07 0)
(1.97357e-07 1.77219e-07 0)
(2.18371e-07 2.0582e-07 0)
(2.40405e-07 2.35135e-07 0)
(2.6341e-07 2.64989e-07 0)
(2.87318e-07 2.95236e-07 0)
(3.12066e-07 3.2574e-07 0)
(3.37585e-07 3.56382e-07 0)
(3.63806e-07 3.87055e-07 0)
(3.9066e-07 4.17664e-07 0)
(4.18075e-07 4.48126e-07 0)
(4.4598e-07 4.78368e-07 0)
(4.743e-07 5.08332e-07 0)
(5.02957e-07 5.37971e-07 0)
(5.31873e-07 5.67259e-07 0)
(5.60962e-07 5.96197e-07 0)
(5.90149e-07 6.24825e-07 0)
(6.19345e-07 6.53245e-07 0)
(1.99058e-08 9.0769e-10 0)
(5.99723e-08 8.91625e-09 0)
(1.02153e-07 2.57947e-08 0)
(1.4712e-07 5.02601e-08 0)
(1.95735e-07 8.16794e-08 0)
(2.48371e-07 1.18919e-07 0)
(3.05299e-07 1.60755e-07 0)
(3.66481e-07 2.05888e-07 0)
(4.31781e-07 2.5297e-07 0)
(5.00853e-07 3.00918e-07 0)
(1.87853e-08 7.90287e-10 0)
(5.66462e-08 7.93818e-09 0)
(9.64219e-08 2.31919e-08 0)
(1.38637e-07 4.55037e-08 0)
(1.84066e-07 7.4405e-08 0)
(2.33038e-07 1.08955e-07 0)
(2.85821e-07 1.48108e-07 0)
(3.42379e-07 1.90736e-07 0)
(4.02558e-07 2.35557e-07 0)
(4.65992e-07 2.81733e-07 0)
(1.77789e-08 6.23707e-10 0)
(5.36614e-08 6.9147e-09 0)
(9.13049e-08 2.06505e-08 0)
(1.31079e-07 4.09642e-08 0)
(1.73662e-07 6.75086e-08 0)
(2.19329e-07 9.94937e-08 0)
(2.68355e-07 1.36018e-07 0)
(3.20748e-07 1.76129e-07 0)
(3.76491e-07 2.18674e-07 0)
(4.35186e-07 2.63083e-07 0)
(1.68567e-08 4.05696e-10 0)
(5.09365e-08 5.85335e-09 0)
(8.66864e-08 1.82179e-08 0)
(1.24338e-07 3.67642e-08 0)
(1.64491e-07 6.12328e-08 0)
(2.07351e-07 9.09462e-08 0)
(2.53168e-07 1.25103e-07 0)
(3.01914e-07 1.62862e-07 0)
(3.53663e-07 2.03141e-07 0)
(4.0793e-07 2.45451e-07 0)
(1.59945e-08 1.37473e-10 0)
(4.83911e-08 4.72131e-09 0)
(8.23976e-08 1.57838e-08 0)
(1.18122e-07 3.26894e-08 0)
(1.56097e-07 5.52418e-08 0)
(1.96465e-07 8.28513e-08 0)
(2.3947e-07 1.14805e-07 0)
(2.85047e-07 1.50361e-07 0)
(3.33358e-07 1.88538e-07 0)
(3.83768e-07 2.28835e-07 0)
(1.51844e-08 -1.75086e-10 0)
(4.60017e-08 3.52833e-09 0)
(7.83972e-08 1.33629e-08 0)
(1.12369e-07 2.87669e-08 0)
(1.48395e-07 4.95884e-08 0)
(1.86552e-07 7.52997e-08 0)
(2.2707e-07 1.0525e-07 0)
(2.69837e-07 1.38759e-07 0)
(3.15096e-07 1.74942e-07 0)
(3.62109e-07 2.13252e-07 0)
(1.44103e-08 -5.31753e-10 0)
(4.37193e-08 2.26076e-09 0)
(7.45918e-08 1.09072e-08 0)
(1.0693e-07 2.49012e-08 0)
(1.41167e-07 4.41228e-08 0)
(1.77325e-07 6.80915e-08 0)
(2.15623e-07 9.62112e-08 0)
(2.55908e-07 1.27845e-07 0)
(2.98471e-07 1.62199e-07 0)
(3.42508e-07 1.98659e-07 0)
(1.36658e-08 -9.26653e-10 0)
(4.15234e-08 9.26409e-10 0)
(7.09432e-08 8.42067e-09 0)
(1.01742e-07 2.10905e-08 0)
(1.34317e-07 3.88375e-08 0)
(1.68639e-07 6.12127e-08 0)
(2.04919e-07 8.76616e-08 0)
(2.4297e-07 1.17573e-07 0)
(2.83115e-07 1.50239e-07 0)
(3.24529e-07 1.84987e-07 0)
(1.29412e-08 -1.35892e-09 0)
(3.93858e-08 -4.78839e-10 0)
(6.73993e-08 5.88386e-09 0)
(9.67243e-08 1.72936e-08 0)
(1.27725e-07 3.3666e-08 0)
(1.60335e-07 5.45741e-08 0)
(1.94754e-07 7.9497e-08 0)
(2.30775e-07 1.0784e-07 0)
(2.68727e-07 1.38965e-07 0)
(3.07803e-07 1.72156e-07 0)
(1.22308e-08 -1.82452e-09 0)
(3.72888e-08 -1.95005e-09 0)
(6.39277e-08 3.29722e-09 0)
(9.18223e-08 1.35035e-08 0)
(1.2131e-07 2.85912e-08 0)
(1.52293e-07 4.81462e-08 0)
(1.84962e-07 7.16724e-08 0)
(2.19102e-07 9.8586e-08 0)
(2.55036e-07 1.28304e-07 0)
(2.91997e-07 1.60087e-07 0)
(1.15285e-08 -2.32243e-09 0)
(3.52141e-08 -3.48782e-09 0)
(6.0495e-08 6.53237e-10 0)
(8.69832e-08 9.703e-09 0)
(1.14993e-07 2.3584e-08 0)
(1.44404e-07 4.18878e-08 0)
(1.75396e-07 6.41353e-08 0)
(2.0776e-07 8.97496e-08 0)
(2.41802e-07 1.18189e-07 0)
(2.76816e-07 1.48708e-07 0)
(1.08294e-08 -2.85036e-09 0)
(3.31487e-08 -5.08919e-09 0)
(5.70759e-08 -2.04723e-09 0)
(8.21641e-08 5.88985e-09 0)
(1.08706e-07 1.86363e-08 0)
(1.36568e-07 3.5783e-08 0)
(1.65922e-07 5.68593e-08 0)
(1.96573e-07 8.12934e-08 0)
(2.28806e-07 1.08575e-07 0)
(2.61987e-07 1.37962e-07 0)
(1.01304e-08 -3.40863e-09 0)
(3.10834e-08 -6.75592e-09 0)
(5.36501e-08 -4.80827e-09 0)
(7.73272e-08 2.05792e-09 0)
(1.02388e-07 1.37386e-08 0)
(1.28693e-07 2.98165e-08 0)
(1.56412e-07 4.98222e-08 0)
(1.85373e-07 7.3187e-08 0)
(2.15838e-07 9.94227e-08 0)
(2.47251e-07 1.278e-07 0)
(9.42905e-09 -3.99837e-09 0)
(2.90141e-08 -8.48735e-09 0)
(5.02031e-08 -7.62531e-09 0)
(7.24397e-08 -1.78251e-09 0)
(9.59793e-08 8.9036e-09 0)
(1.20689e-07 2.40001e-08 0)
(1.46741e-07 4.30306e-08 0)
(1.73995e-07 6.54289e-08 0)
(2.02692e-07 9.07228e-08 0)
(2.32356e-07 1.18202e-07 0)
(8.72827e-09 -4.62704e-09 0)
(2.69522e-08 -1.02943e-08 0)
(4.67356e-08 -1.05059e-08 0)
(6.74792e-08 -5.63325e-09 0)
(8.94258e-08 4.13339e-09 0)
(1.12466e-07 1.83352e-08 0)
(1.3678e-07 3.64825e-08 0)
(1.62267e-07 5.80103e-08 0)
(1.89152e-07 8.24583e-08 0)
(2.1704e-07 1.0914e-07 0)
(8.03445e-09 -5.31116e-09 0)
(2.49188e-08 -1.2182e-08 0)
(4.32539e-08 -1.34299e-08 0)
(6.24237e-08 -9.44845e-09 0)
(8.26691e-08 -5.10524e-10 0)
(1.03925e-07 1.28895e-08 0)
(1.26389e-07 3.02436e-08 0)
(1.50009e-07 5.09894e-08 0)
(1.74994e-07 7.46775e-08 0)
(2.01034e-07 1.00649e-07 0)
(7.38191e-09 -6.08592e-09 0)
(2.2997e-08 -1.41901e-08 0)
(3.98164e-08 -1.64202e-08 0)
(5.7279e-08 -1.32393e-08 0)
(7.56557e-08 -5.03187e-09 0)
(9.49548e-08 7.65844e-09 0)
(1.15405e-07 2.43045e-08 0)
(1.37005e-07 4.43483e-08 0)
(1.59956e-07 6.73518e-08 0)
(1.84027e-07 9.26878e-08 0)
(6.84017e-09 -7.04924e-09 0)
(2.12794e-08 -1.63366e-08 0)
(3.64693e-08 -1.93817e-08 0)
(5.20242e-08 -1.68337e-08 0)
(6.83065e-08 -9.22498e-09 0)
(8.5423e-08 2.85671e-09 0)
(1.03647e-07 1.88731e-08 0)
(1.2303e-07 3.82802e-08 0)
(1.43767e-07 6.06546e-08 0)
(1.65705e-07 8.54063e-08 0)
(6.77869e-09 -8.32821e-09 0)
(2.01484e-08 -1.87158e-08 0)
(3.34349e-08 -2.23823e-08 0)
(4.67046e-08 -2.03209e-08 0)
(6.053e-08 -1.31963e-08 0)
(7.51376e-08 -1.64332e-09 0)
(9.08458e-08 1.38039e-08 0)
(1.0775e-07 3.26223e-08 0)
(1.26036e-07 5.44098e-08 0)
(1.45618e-07 7.86143e-08 0)
(7.96049e-09 -1.04761e-08 0)
(1.98241e-08 -2.12521e-08 0)
(3.07825e-08 -2.49445e-08 0)
(4.12557e-08 -2.30433e-08 0)
(5.22144e-08 -1.62642e-08 0)
(6.39468e-08 -5.17483e-09 0)
(7.68229e-08 9.72749e-09 0)
(9.09551e-08 2.79638e-08 0)
(1.06532e-07 4.91568e-08 0)
(1.23503e-07 7.27984e-08 0)
)
;

boundaryField
{
    left
    {
        type            fixedDisplacement;
        value           uniform (0 0 0);
    }
    right
    {
        type            solidTraction;
        tractionSeries  
{
        file            "$FOAM_CASE/constant/timeVsTraction";
        outOfBounds     clamp;
}
        pressure        uniform 0;
        secondOrder     false;
        setEffectiveTraction false;
        relaxationFactor 1;
        value           nonuniform List<vector> 
30
(
(1.61288e-06 1.06486e-06 2.91664e-21)
(1.57598e-06 1.05248e-06 2.93041e-21)
(1.53874e-06 1.04018e-06 2.96943e-21)
(1.50103e-06 1.02771e-06 3.0339e-21)
(1.46285e-06 1.0149e-06 3.12235e-21)
(1.42428e-06 1.00162e-06 3.23351e-21)
(1.38545e-06 9.87769e-07 3.3654e-21)
(1.34654e-06 9.73308e-07 3.51592e-21)
(1.3077e-06 9.58236e-07 3.68274e-21)
(1.26912e-06 9.42602e-07 3.86317e-21)
(1.2326e-06 9.27176e-07 3.97347e-21)
(1.19795e-06 9.11982e-07 3.99123e-21)
(1.16377e-06 8.96546e-07 4.00364e-21)
(1.13013e-06 8.80952e-07 4.01088e-21)
(1.09709e-06 8.65319e-07 4.01199e-21)
(1.06456e-06 8.49761e-07 4.00734e-21)
(1.03262e-06 8.34341e-07 3.99774e-21)
(1.00118e-06 8.1918e-07 3.98329e-21)
(9.70204e-07 8.04348e-07 3.96493e-21)
(9.39599e-07 7.89911e-07 3.94339e-21)
(9.09278e-07 7.75916e-07 3.91964e-21)
(8.79141e-07 7.62391e-07 3.89466e-21)
(8.49083e-07 7.49343e-07 3.86966e-21)
(8.18999e-07 7.36759e-07 3.84585e-21)
(7.88792e-07 7.24604e-07 3.8241e-21)
(7.58376e-07 7.12818e-07 3.8057e-21)
(7.27688e-07 7.01323e-07 3.79129e-21)