/*--------------------------------*- C++ -*----------------------------------*\
  =========                 |
  \\      /  F ield         | OpenFOAM: The Open Source CFD Toolbox
   \\    /   O peration     | Website:  https://openfoam.org
    \\  /    A nd           | Version:  9
     \\/     M anipulation  |
\*---------------------------------------------------------------------------*/
FoamFile
{
    format      ascii;
    class       volScalarField;
    location    "1";
    object      epsilonEq;
}
// * * * * * * * * * * * * * * * * * * * * * * * * * * * * * * * * * * * * * //

dimensions      [0 0 0 0 0 0 0];

internalField   nonuniform List<scalar> 
1000
(
6.8358e-07
6.47901e-07
6.37224e-07
6.4025e-07
6.38984e-07
6.35667e-07
6.29433e-07
6.21094e-07
6.12104e-07
6.01456e-07
7.93806e-07
7.1845e-07
6.82086e-07
6.69366e-07
6.57746e-07
6.47491e-07
6.36095e-07
6.24328e-07
6.11394e-07
6.00035e-07
9.01881e-07
7.86369e-07
7.22089e-07
6.91344e-07
6.67725e-07
6.49356e-07
6.32041e-07
6.16054e-07
5.99532e-07
5.862e-07
1.00542e-06
8.50753e-07
7.57426e-07
7.06881e-07
6.69845e-07
6.42455e-07
6.18762e-07
5.98434e-07
5.78596e-07
5.6333e-07
1.10077e-06
9.0988e-07
7.875e-07
7.16088e-07
6.64569e-07
6.27429e-07
5.97061e-07
5.72291e-07
5.4952e-07
5.32325e-07
1.18764e-06
9.6295e-07
8.11863e-07
7.19187e-07
6.52612e-07
6.05433e-07
5.68374e-07
5.39295e-07
5.1394e-07
4.9488e-07
1.2604e-06
1.00596e-06
8.26934e-07
7.13972e-07
6.33314e-07
5.76995e-07
5.34107e-07
5.01386e-07
4.74112e-07
4.53421e-07
1.32526e-06
1.03631e-06
8.29359e-07
6.99318e-07
6.07428e-07
5.44436e-07
4.9767e-07
4.62727e-07
4.34607e-07
4.1285e-07
1.36443e-06
1.03421e-06
8.03096e-07
6.65072e-07
5.71503e-07
5.08315e-07
4.62088e-07
4.27521e-07
4.0006e-07
3.77982e-07
1.38853e-06
9.68708e-07
7.44274e-07
6.18959e-07
5.38876e-07
4.83023e-07
4.41556e-07
4.09162e-07
3.82933e-07
3.60605e-07
2.69358e-08
3.29271e-08
4.53394e-08
6.46164e-08
8.84077e-08
1.14731e-07
1.41223e-07
1.67055e-07
1.91037e-07
2.13559e-07
3.26063e-08
5.73284e-08
9.16859e-08
1.26693e-07
1.58011e-07
1.85892e-07
2.10108e-07
2.31741e-07
2.50143e-07
2.67639e-07
5.36031e-08
1.03026e-07
1.48282e-07
1.89965e-07
2.24906e-07
2.53912e-07
2.77286e-07
2.96721e-07
3.11635e-07
3.25833e-07
8.81904e-08
1.59171e-07
2.11226e-07
2.55621e-07
2.91012e-07
3.19296e-07
3.41065e-07
3.58286e-07
3.7028e-07
3.81864e-07
1.37711e-07
2.22401e-07
2.78415e-07
3.23328e-07
3.57056e-07
3.82985e-07
4.02054e-07
4.16399e-07
4.25305e-07
4.34172e-07
2.02229e-07
2.89625e-07
3.45986e-07
3.89604e-07
4.20342e-07
4.42916e-07
4.58581e-07
4.69569e-07
4.75262e-07
4.8122e-07
2.80335e-07
3.5951e-07
4.11997e-07
4.5242e-07
4.79122e-07
4.97665e-07
5.09471e-07
5.1679e-07
5.19215e-07
5.22074e-07
3.7007e-07
4.31006e-07
4.74793e-07
5.09761e-07
5.31373e-07
5.45343e-07
5.53065e-07
5.56581e-07
5.55987e-07
5.55553e-07
4.68947e-07
5.03396e-07
5.33559e-07
5.60571e-07
5.75921e-07
5.84783e-07
5.88152e-07
5.87836e-07
5.84366e-07
5.81076e-07
5.74399e-07
5.75957e-07
5.87748e-07
6.04069e-07
6.11775e-07
6.1479e-07
6.13493e-07
6.09038e-07
6.03618e-07
5.95917e-07
2.33761e-07
2.51099e-07
2.67307e-07
2.82015e-07
2.95359e-07
3.07389e-07
3.18203e-07
3.27874e-07
3.3649e-07
3.44114e-07
3.50813e-07
3.5663e-07
3.616e-07
3.65752e-07
3.69096e-07
3.71653e-07
3.73415e-07
3.7445e-07
3.74744e-07
3.74501e-07
2.80692e-07
2.89801e-07
2.99198e-07
3.07983e-07
3.16296e-07
3.24081e-07
3.3132e-07
3.37994e-07
3.4411e-07
3.49664e-07
3.54668e-07
3.59123e-07
3.63041e-07
3.66425e-07
3.69272e-07
3.71583e-07
3.7332e-07
3.74472e-07
3.74853e-07
3.74385e-07
3.33058e-07
3.3507e-07
3.38085e-07
3.41023e-07
3.44125e-07
3.47314e-07
3.50554e-07
3.53771e-07
3.56937e-07
3.59992e-07
3.62914e-07
3.65664e-07
3.68222e-07
3.70562e-07
3.72648e-07
3.7444e-07
3.75832e-07
3.76721e-07
3.76713e-07
3.75617e-07
3.84355e-07
3.80639e-07
3.78339e-07
3.76304e-07
3.74786e-07
3.73755e-07
3.73204e-07
3.73037e-07
3.73237e-07
3.73708e-07
3.74417e-07
3.75293e-07
3.76293e-07
3.7736e-07
3.78426e-07
3.79414e-07
3.80165e-07
3.80533e-07
3.8005e-07
3.78523e-07
4.3249e-07
4.2416e-07
4.17376e-07
4.11181e-07
4.0571e-07
4.00965e-07
3.97007e-07
3.93707e-07
3.91095e-07
3.89052e-07
3.87554e-07
3.86512e-07
3.85874e-07
3.85559e-07
3.8548e-07
3.85534e-07
3.85541e-07
3.85336e-07
3.84472e-07
3.82773e-07
4.75835e-07
4.63911e-07
4.5346e-07
4.43846e-07
4.35132e-07
4.27237e-07
4.2037e-07
4.1432e-07
4.0919e-07
4.04838e-07
4.01263e-07
3.98368e-07
3.96102e-07
3.94381e-07
3.93113e-07
3.92189e-07
3.91441e-07
3.90708e-07
3.89646e-07
3.88076e-07
5.1347e-07
4.98948e-07
4.85772e-07
4.73406e-07
4.62179e-07
4.51655e-07
4.42331e-07
4.33885e-07
4.2652e-07
4.20082e-07
4.14597e-07
4.09975e-07
4.06171e-07
4.03104e-07
4.00693e-07
3.98833e-07
3.97396e-07
3.96238e-07
3.95164e-07
3.93973e-07
5.4439e-07
5.28203e-07
5.13471e-07
4.98891e-07
4.85898e-07
4.73383e-07
4.62168e-07
4.51821e-07
4.42594e-07
4.34363e-07
4.27174e-07
4.20968e-07
4.1572e-07
4.11371e-07
4.07864e-07
4.05116e-07
4.03059e-07
4.01574e-07
4.00644e-07
4.0004e-07
5.68604e-07
5.5096e-07
5.36582e-07
5.20545e-07
5.06305e-07
4.9222e-07
4.79366e-07
4.67412e-07
4.5659e-07
4.46838e-07
4.38196e-07
4.30633e-07
4.24136e-07
4.18668e-07
4.14203e-07
4.10687e-07
4.08122e-07
4.0642e-07
4.05757e-07
4.05869e-07
5.8551e-07
5.66772e-07
5.53732e-07
5.38093e-07
5.23553e-07
5.08974e-07
4.95093e-07
4.8195e-07
4.69765e-07
4.58612e-07
4.48568e-07
4.39658e-07
4.31902e-07
4.25294e-07
4.19847e-07
4.1554e-07
4.12453e-07
4.10537e-07
4.10169e-07
4.11066e-07
5.90629e-07
5.72869e-07
5.60386e-07
5.45884e-07
5.31571e-07
5.17211e-07
5.03271e-07
4.8989e-07
4.77307e-07
4.65633e-07
4.54985e-07
4.45426e-07
4.37013e-07
4.29778e-07
4.23776e-07
4.19027e-07
4.15682e-07
4.1373e-07
4.13701e-07
4.15308e-07
5.72849e-07
5.64074e-07
5.52821e-07
5.40449e-07
5.27714e-07
5.14727e-07
5.01919e-07
4.89439e-07
4.77547e-07
4.66377e-07
4.56076e-07
4.46736e-07
4.38448e-07
4.31277e-07
4.25317e-07
4.20625e-07
4.17406e-07
4.15687e-07
4.16111e-07
4.18374e-07
5.58089e-07
5.51729e-07
5.43406e-07
5.33017e-07
5.2214e-07
5.10583e-07
4.98986e-07
4.87463e-07
4.76336e-07
4.65749e-07
4.55885e-07
4.46861e-07
4.38796e-07
4.31786e-07
4.25955e-07
4.21399e-07
4.1836e-07
4.16883e-07
4.17673e-07
4.20417e-07
5.41398e-07
5.37856e-07
5.31895e-07
5.23388e-07
5.14246e-07
5.04115e-07
4.93772e-07
4.83301e-07
4.73065e-07
4.63216e-07
4.5396e-07
4.45427e-07
4.37762e-07
4.31081e-07
4.25525e-07
4.21227e-07
4.18413e-07
4.17219e-07
4.18367e-07
4.21438e-07
5.22998e-07
5.21664e-07
5.17863e-07
5.11287e-07
5.03947e-07
4.95369e-07
4.86414e-07
4.7714e-07
4.67944e-07
4.58985e-07
4.50488e-07
4.42601e-07
4.35479e-07
4.29258e-07
4.24077e-07
4.20127e-07
4.17525e-07
4.16766e-07
4.17447e-07
4.21387e-07
5.03857e-07
5.04435e-07
5.02538e-07
4.9774e-07
4.92067e-07
4.84999e-07
4.77424e-07
4.69384e-07
4.61296e-07
4.5332e-07
4.45693e-07
4.38568e-07
4.32113e-07
4.26464e-07
4.2179e-07
4.18225e-07
4.16051e-07
4.1539e-07
4.16819e-07
4.20029e-07
4.84276e-07
4.86389e-07
4.86118e-07
4.82953e-07
4.78834e-07
4.73238e-07
4.67034e-07
4.60261e-07
4.53335e-07
4.46415e-07
4.39743e-07
4.33474e-07
4.27779e-07
4.22795e-07
4.1869e-07
4.1559e-07
4.13757e-07
4.13252e-07
4.14684e-07
4.17815e-07
4.64597e-07
4.67947e-07
4.69064e-07
4.67351e-07
4.64641e-07
4.60433e-07
4.55551e-07
4.50036e-07
4.4429e-07
4.38468e-07
4.32809e-07
4.27466e-07
4.22605e-07
4.18357e-07
4.14881e-07
4.12287e-07
4.10803e-07
4.10496e-07
4.11864e-07
4.14708e-07
4.44962e-07
4.49265e-07
4.51538e-07
4.51105e-07
4.4967e-07
4.46766e-07
4.43159e-07
4.38885e-07
4.34327e-07
4.29634e-07
4.25033e-07
4.2067e-07
4.16704e-07
4.13253e-07
4.10458e-07
4.0841e-07
4.07298e-07
4.07159e-07
4.08406e-07
4.10869e-07
4.25425e-07
4.30455e-07
4.33689e-07
4.34381e-07
4.34103e-07
4.3242e-07
4.30035e-07
4.26981e-07
4.23611e-07
4.20065e-07
4.16554e-07
4.13214e-07
4.10188e-07
4.07584e-07
4.05516e-07
4.04056e-07
4.03337e-07
4.03379e-07
4.04463e-07
4.06452e-07
4.05936e-07
4.11514e-07
4.15553e-07
4.17244e-07
4.1803e-07
4.17507e-07
4.16306e-07
4.14458e-07
4.1228e-07
4.09898e-07
4.07505e-07
4.05222e-07
4.03177e-07
4.0146e-07
4.00161e-07
3.99326e-07
3.99032e-07
3.9927e-07
4.00179e-07
4.01655e-07
3.86394e-07
3.924e-07
3.97134e-07
3.99741e-07
4.01532e-07
4.02133e-07
4.02101e-07
4.01456e-07
4.00481e-07
3.99283e-07
3.98033e-07
3.96837e-07
3.95803e-07
3.95006e-07
3.94508e-07
3.94335e-07
3.94503e-07
3.9497e-07
3.95725e-07
3.96684e-07
3.66621e-07
3.73e-07
3.78376e-07
3.81869e-07
3.84653e-07
3.8638e-07
3.8753e-07
3.88112e-07
3.88367e-07
3.88383e-07
3.88305e-07
3.88223e-07
3.88226e-07
3.88373e-07
3.88703e-07
3.89218e-07
3.89885e-07
3.90623e-07
3.91277e-07
3.91761e-07
3.4646e-07
3.53227e-07
3.59256e-07
3.63663e-07
3.67478e-07
3.70375e-07
3.72755e-07
3.74611e-07
3.76139e-07
3.77408e-07
3.78534e-07
3.79588e-07
3.80645e-07
3.81746e-07
3.82914e-07
3.84134e-07
3.8533e-07
3.86387e-07
3.87013e-07
3.87103e-07
3.2566e-07
3.32922e-07
3.397e-07
3.45127e-07
3.50078e-07
3.54244e-07
3.57946e-07
3.61159e-07
3.64031e-07
3.66607e-07
3.68977e-07
3.71192e-07
3.73309e-07
3.75362e-07
3.77359e-07
3.79275e-07
3.8101e-07
3.82423e-07
3.83117e-07
3.82932e-07
3.04197e-07
3.12153e-07
3.1985e-07
3.2647e-07
3.32712e-07
3.38289e-07
3.43434e-07
3.48103e-07
3.52396e-07
3.56335e-07
3.59982e-07
3.63369e-07
3.66538e-07
3.69515e-07
3.72302e-07
3.74873e-07
3.77124e-07
3.78902e-07
3.79752e-07
3.79442e-07
2.81804e-07
2.90795e-07
2.99711e-07
3.07806e-07
3.15583e-07
3.22778e-07
3.29539e-07
3.358e-07
3.41619e-07
3.46993e-07
3.51957e-07
3.56527e-07
3.60731e-07
3.64585e-07
3.68093e-07
3.71236e-07
3.73926e-07
3.76021e-07
3.7709e-07
3.7682e-07
2.59173e-07
2.69619e-07
2.80096e-07
2.89957e-07
2.99506e-07
3.08502e-07
3.17011e-07
3.24955e-07
3.32352e-07
3.39182e-07
3.45454e-07
3.51175e-07
3.56355e-07
3.61003e-07
3.65123e-07
3.68708e-07
3.71698e-07
3.73991e-07
3.75253e-07
3.75142e-07
2.3609e-07
2.48634e-07
2.61192e-07
2.73238e-07
2.84883e-07
2.95919e-07
3.06351e-07
3.16095e-07
3.25143e-07
3.33465e-07
3.41058e-07
3.47913e-07
3.54028e-07
3.59401e-07
3.64023e-07
3.67884e-07
3.70948e-07
3.73181e-07
3.74422e-07
3.74491e-07
2.16181e-07
2.31201e-07
2.46044e-07
2.60333e-07
2.74065e-07
2.87052e-07
2.99279e-07
3.10659e-07
3.21182e-07
3.30814e-07
3.39549e-07
3.4737e-07
3.54265e-07
3.60214e-07
3.65184e-07
3.69147e-07
3.7205e-07
3.73912e-07
3.7469e-07
3.74619e-07
3.4192e-07
3.58905e-07
3.9195e-07
4.30971e-07
4.71625e-07
5.09003e-07
5.40624e-07
5.64701e-07
5.81155e-07
5.87204e-07
3.24699e-07
3.40753e-07
3.71076e-07
4.07494e-07
4.46598e-07
4.8392e-07
5.17071e-07
5.43733e-07
5.63426e-07
5.73471e-07
3.09297e-07
3.24838e-07
3.5293e-07
3.86656e-07
4.23364e-07
4.59079e-07
4.9185e-07
5.19811e-07
5.42525e-07
5.5821e-07
2.95213e-07
3.10492e-07
3.3678e-07
3.68186e-07
4.02748e-07
4.36882e-07
4.68754e-07
4.96703e-07
5.19863e-07
5.38811e-07
2.82017e-07
2.97177e-07
3.21955e-07
3.51233e-07
3.83638e-07
4.16047e-07
4.46825e-07
4.74732e-07
4.98038e-07
5.18573e-07
2.69628e-07
2.8478e-07
3.08332e-07
3.35759e-07
3.66143e-07
3.96744e-07
4.26027e-07
4.53248e-07
4.76105e-07
4.97495e-07
2.57817e-07
2.73008e-07
2.95533e-07
3.21332e-07
3.49865e-07
3.78758e-07
4.06554e-07
4.32915e-07
4.55045e-07
4.76407e-07
2.46526e-07
2.61762e-07
2.83403e-07
3.07751e-07
3.34561e-07
3.61769e-07
3.88012e-07
4.13294e-07
4.34601e-07
4.55557e-07
2.35665e-07
2.50921e-07
2.71767e-07
2.94803e-07
3.20028e-07
3.45638e-07
3.70372e-07
3.94461e-07
4.14856e-07
4.35099e-07
2.25211e-07
2.4042e-07
2.605e-07
2.82297e-07
3.06018e-07
3.3007e-07
3.53329e-07
3.76157e-07
3.95628e-07
4.15028e-07
2.15161e-07
2.30218e-07
2.49502e-07
2.70077e-07
2.92339e-07
3.14865e-07
3.36686e-07
3.58217e-07
3.7675e-07
3.95237e-07
2.05552e-07
2.20307e-07
2.38693e-07
2.5799e-07
2.78775e-07
2.99766e-07
3.20167e-07
3.40388e-07
3.57991e-07
3.75559e-07
1.96481e-07
2.10707e-07
2.2799e-07
2.45858e-07
2.65077e-07
2.84489e-07
3.03469e-07
3.22382e-07
3.39071e-07
3.55748e-07
1.88104e-07
2.01477e-07
2.17334e-07
2.33526e-07
2.51017e-07
2.68767e-07
2.86307e-07
3.03921e-07
3.19733e-07
3.35579e-07
1.80735e-07
1.92699e-07
2.06547e-07
2.20636e-07
2.36142e-07
2.52121e-07
2.68207e-07
2.8457e-07
2.99584e-07
3.14709e-07
1.74753e-07
1.84416e-07
1.95467e-07
2.0696e-07
2.20194e-07
2.34296e-07
2.48936e-07
2.64131e-07
2.78473e-07
2.93031e-07
1.71042e-07
1.76615e-07
1.83336e-07
1.91434e-07
2.02075e-07
2.14287e-07
2.27629e-07
2.41886e-07
2.55832e-07
2.7012e-07
1.69732e-07
1.68358e-07
1.69405e-07
1.73754e-07
1.81781e-07
1.92291e-07
2.04633e-07
2.183e-07
2.32219e-07
2.46597e-07
1.7284e-07
1.57871e-07
1.50237e-07
1.50367e-07
1.56361e-07
1.66002e-07
1.78208e-07
1.92113e-07
2.0677e-07
2.21949e-07
1.68389e-07
1.35749e-07
1.24521e-07
1.22794e-07
1.28784e-07
1.38927e-07
1.52105e-07
1.67197e-07
1.8333e-07
2.00002e-07
)
;

boundaryField
{
    left
    {
        type            calculated;
        value           nonuniform List<scalar> 
30
(
3.40046e-07
3.22785e-07
3.07374e-07
2.93294e-07
2.80144e-07
2.67834e-07
2.5615e-07
2.45043e-07
2.34431e-07
2.24307e-07
2.14681e-07
2.05607e-07
1.97201e-07
1.89638e-07
1.83269e-07
1.7858e-07
1.76702e-07
1.78785e-07
1.89569e-07
2.04807e-07
1.46212e-06
9.47028e-07
7.2382e-07
6.07672e-07
5.33555e-07
4.80328e-07
4.39987e-07
4.0786e-07
3.81626e-07
3.58983e-07
)
;
    }
    right
    {
        type            calculated;
        value           nonuniform List<scalar> 
30
(
3.74454e-07
3.74373e-07
3.75497e-07
3.78309e-07
3.82484e-07
3.87743e-07
3.93626e-07
3.99711e-07
4.05581e-07
4.10851e-07
4.1516e-07
4.18339e-07
4.2046e-07
4.21563e-07
4.2146e-07
4.20253e-07
4.18108e-07
4.15032e-07
4.11208e-07
4.06793e-07
4.01984e-07
3.96991e-07
3.92037e-07
3.8734e-07
3.83126e-07
3.7959e-07
3.76922e-07
3.75197e-07
3.74507e-07
3.74538e-07
)
;
    }
    down
    {
        type            calculated;
        value           nonuniform List<scalar> 
30
(
2.91792e-08
2.8815e-08
3.09113e-08
4.61695e-08
7.09049e-08
9.92883e-08
1.27924e-07
1.55654e-07
1.81273e-07
2.05112e-07
2.26623e-07
2.45396e-07
2.6268e-07
2.78221e-07
2.92254e-07
3.04826e-07
3.16095e-07
3.26133e-07
3.3506e-07
3.42942e-07
3.4986e-07
3.55863e-07
3.60994e-07
3.65285e-07
3.6875e-07
3.71411e-07
3.73261e-07
3.74374e-07
3.74738e-07
3.74614e-07
)
;
    }
    up
    {
        type            calculated;
        value           nonuniform List<scalar> 
30
(
1.60213e-07
1.31246e-07
1.22884e-07
1.22412e-07
1.29113e-07
1.39598e-07
1.52929e-07
1.68101e-07
1.84211e-07
2.00944e-07
2.17074e-07
2.32054e-07
2.46869e-07
2.61121e-07
2.74823e-07
2.87775e-07
2.9997e-07
3.11316e-07
3.21806e-07
3.31402e-07
3.40098e-07
3.47877e-07
3.54725e-07
3.60618e-07
3.65524e-07
3.6941e-07
3.72225e-07
3.73995e-07
3.74694e-07
3.7466e-07
)
;
    }
    hole
    {
        type            calculated;
        value           nonuniform List<scalar> 
20
(
6.91496e-07
8.07556e-07
9.21443e-07
1.03065e-06
1.13129e-06
1.22308e-06
1.30028e-06
1.37116e-06
1.42056e-06
1.4738e-06
2.87767e-08
2.84854e-08
3.63786e-08
6.52458e-08
1.15109e-07
1.8307e-07
2.65896e-07
3.6096e-07
4.654e-07
5.76541e-07
)
;
    }
    frontAndBack
    {
        type            empty;
    }
}


// ************************************************************************* //
