/*--------------------------------*- C++ -*----------------------------------*\
  =========                 |
  \\      /  F ield         | OpenFOAM: The Open Source CFD Toolbox
   \\    /   O peration     | Website:  https://openfoam.org
    \\  /    A nd           | Version:  9
     \\/     M anipulation  |
\*---------------------------------------------------------------------------*/
FoamFile
{
    format      ascii;
    class       volSymmTensorField;
    location    "1";
    object      epsilon;
}
// * * * * * * * * * * * * * * * * * * * * * * * * * * * * * * * * * * * * * //

dimensions      [0 0 0 0 0 0 0];

internalField   nonuniform List<symmTensor> 
1000
(
(4.10032e-07 -5.52535e-07 7.02068e-20 1.08041e-07 7.68524e-20 2.09761e-34)
(5.73336e-07 -4.31302e-07 -8.52735e-22 -8.73582e-08 4.6592e-22 0)
(6.52379e-07 -3.35973e-07 9.92202e-22 -1.79568e-07 -1.82322e-22 0)
(6.96557e-07 -2.63923e-07 2.52095e-22 -2.42875e-07 -1.69489e-22 0)
(7.17657e-07 -2.06003e-07 -1.07117e-21 -2.77639e-07 6.04204e-23 0)
(7.2473e-07 -1.60585e-07 -1.12905e-22 -2.99357e-07 1.14375e-22 0)
(7.23812e-07 -1.23697e-07 -9.80827e-22 -3.1084e-07 -4.9828e-22 0)
(7.17163e-07 -9.43183e-08 6.70711e-22 -3.16344e-07 3.01666e-22 0)
(7.08488e-07 -6.99585e-08 -3.53753e-22 -3.17963e-07 -3.58331e-22 0)
(6.96018e-07 -4.96729e-08 0 -3.17727e-07 0 0)
(5.57384e-07 -6.14035e-07 7.00286e-20 4.70353e-08 8.99231e-20 1.21509e-35)
(6.83871e-07 -4.44068e-07 0 -1.26076e-07 0 0)
(7.37812e-07 -3.22654e-07 7.97706e-22 -2.02233e-07 3.59092e-22 0)
(7.62935e-07 -2.35609e-07 -1.36853e-21 -2.54951e-07 -6.88753e-22 0)
(7.69217e-07 -1.69481e-07 -5.818e-22 -2.81329e-07 -3.29905e-22 0)
(7.64575e-07 -1.19973e-07 4.08683e-22 -2.97189e-07 3.82858e-22 0)
(7.54142e-07 -8.14228e-08 4.53219e-22 -3.04069e-07 2.83976e-22 0)
(7.40071e-07 -5.20928e-08 1.06077e-21 -3.06794e-07 5.85774e-22 0)
(7.24178e-07 -2.84272e-08 0 -3.05223e-07 0 0)
(7.07501e-07 -9.44354e-09 0 -3.05347e-07 0 0)
(7.22961e-07 -6.53569e-07 6.74964e-20 -3.43317e-08 1.01015e-19 0)
(7.9827e-07 -4.43472e-07 0 -1.69566e-07 0 0)
(8.1937e-07 -3.00726e-07 7.59828e-22 -2.21461e-07 3.70334e-22 0)
(8.20817e-07 -2.01776e-07 -2.24601e-22 -2.58886e-07 7.51808e-23 0)
(8.09604e-07 -1.29775e-07 -1.08958e-23 -2.7421e-07 4.53397e-24 0)
(7.91687e-07 -7.79689e-08 -3.81211e-22 -2.82706e-07 -3.62214e-22 0)
(7.70964e-07 -3.92425e-08 5.10118e-22 -2.84152e-07 2.25533e-22 0)
(7.48922e-07 -1.09861e-08 -3.82298e-22 -2.83491e-07 -2.62016e-22 0)
(7.26491e-07 1.08332e-08 -2.65152e-23 -2.7905e-07 4.53364e-23 0)
(7.04943e-07 2.86118e-08 -7.86787e-23 -2.78403e-07 -3.40699e-23 0)
(9.00305e-07 -6.65482e-07 5.94484e-20 -1.31181e-07 1.06964e-19 -6.83039e-36)
(9.13665e-07 -4.27948e-07 4.33911e-22 -2.16218e-07 -4.46467e-23 0)
(8.95733e-07 -2.70825e-07 -3.47008e-22 -2.36984e-07 -1.83922e-22 0)
(8.69639e-07 -1.64387e-07 -2.16426e-22 -2.55114e-07 4.04656e-23 0)
(8.38752e-07 -8.96193e-08 3.96708e-22 -2.57259e-07 3.55116e-22 0)
(8.06533e-07 -3.76891e-08 -4.72866e-22 -2.57454e-07 -2.91631e-22 0)
(7.75193e-07 -3.99321e-10 -4.08701e-22 -2.53306e-07 -2.70027e-22 0)
(7.45425e-07 2.57764e-08 -9.10323e-22 -2.49412e-07 -6.1658e-22 0)
(7.17007e-07 4.49037e-08 -1.34924e-22 -2.42842e-07 -1.44934e-22 0)
(6.91369e-07 6.05234e-08 2.25131e-22 -2.41285e-07 1.80144e-22 0)
(1.0803e-06 -6.44792e-07 4.91971e-20 -2.36866e-07 1.0719e-19 -1.25155e-34)
(1.02626e-06 -3.95413e-07 2.26308e-26 -2.63899e-07 1.01204e-27 0)
(9.65069e-07 -2.32843e-07 -1.12074e-21 -2.48345e-07 -5.11071e-22 0)
(9.08704e-07 -1.24696e-07 1.00206e-22 -2.44079e-07 -4.31933e-24 0)
(8.56706e-07 -5.12238e-08 -1.38882e-22 -2.31484e-07 1.52521e-23 0)
(8.09722e-07 -1.9786e-09 3.44271e-22 -2.22836e-07 2.91495e-22 0)
(7.67986e-07 3.18973e-08 -3.57292e-23 -2.13234e-07 1.06418e-23 0)
(7.31008e-07 5.46716e-08 3.57041e-22 -2.06481e-07 2.20241e-22 0)
(6.97581e-07 7.01847e-08 -8.81634e-23 -1.98652e-07 -1.51477e-22 0)
(6.68539e-07 8.28764e-08 -1.42549e-22 -1.9655e-07 -1.04536e-22 0)
(1.25627e-06 -5.90227e-07 3.64597e-20 -3.4389e-07 1.00894e-19 -1.31529e-34)
(1.13306e-06 -3.44657e-07 2.0545e-26 -3.09336e-07 4.21707e-27 0)
(1.02619e-06 -1.86626e-07 -1.10587e-26 -2.54199e-07 -1.57172e-27 0)
(9.37924e-07 -8.39076e-08 8.8179e-23 -2.25926e-07 9.23359e-24 0)
(8.64251e-07 -1.6659e-08 -4.83796e-22 -1.98153e-07 -2.69517e-22 0)
(8.0281e-07 2.66285e-08 5.26544e-24 -1.81031e-07 -1.90546e-25 0)
(7.51447e-07 5.50271e-08 3.60169e-22 -1.66746e-07 2.21993e-22 0)
(7.08206e-07 7.31618e-08 7.68626e-22 -1.57916e-07 5.09158e-22 0)
(6.70837e-07 8.44264e-08 1.3906e-22 -1.49764e-07 9.21467e-23 0)
(6.39221e-07 9.36693e-08 -2.44688e-22 -1.47577e-07 -1.72581e-22 0)
(1.41591e-06 -4.98556e-07 2.62553e-20 -4.4319e-07 8.91063e-20 -2.83055e-34)
(1.22765e-06 -2.72195e-07 3.20004e-22 -3.47581e-07 1.25637e-22 0)
(1.07419e-06 -1.31145e-07 3.42079e-22 -2.51311e-07 1.38729e-22 0)
(9.5451e-07 -4.28179e-08 -7.2044e-23 -1.99601e-07 -1.92169e-23 0)
(8.60673e-07 1.21892e-08 3.53269e-22 -1.58247e-07 2.11886e-22 0)
(7.86714e-07 4.57761e-08 -3.25305e-22 -1.34472e-07 -2.00707e-22 0)
(7.27669e-07 6.66281e-08 8.48255e-23 -1.1722e-07 -6.48418e-25 0)
(6.79802e-07 7.90794e-08 -2.88514e-22 -1.07607e-07 -1.67848e-22 0)
(6.3991e-07 8.58356e-08 -1.68379e-23 -1.00216e-07 4.28009e-24 0)
(6.06649e-07 9.14867e-08 -1.45045e-22 -9.84857e-08 -8.35721e-23 0)
(1.56222e-06 -3.70093e-07 1.60022e-20 -5.2671e-07 7.19178e-20 -1.15598e-35)
(1.30622e-06 -1.75077e-07 -8.63197e-22 -3.69015e-07 -2.64582e-22 0)
(1.10583e-06 -6.59648e-08 6.51854e-24 -2.32852e-07 3.39415e-24 0)
(9.58043e-07 -3.80881e-09 1.04601e-22 -1.62791e-07 4.80939e-23 0)
(8.47743e-07 3.23685e-08 8.0289e-22 -1.12819e-07 3.42878e-22 0)
(7.64861e-07 5.29521e-08 -4.46349e-23 -8.63463e-08 -1.02096e-23 0)
(7.00999e-07 6.50569e-08 1.08557e-27 -6.90518e-08 9.73161e-29 0)
(6.50643e-07 7.16893e-08 -2.81615e-22 -6.0479e-08 -1.26249e-22 0)
(6.09753e-07 7.45032e-08 5.77394e-24 -5.49652e-08 -8.39078e-25 0)
(5.758e-07 7.70846e-08 2.025e-23 -5.41757e-08 8.06464e-24 0)
(1.67133e-06 -1.90832e-07 6.8221e-21 -5.73059e-07 5.06352e-20 1.18722e-34)
(1.34395e-06 -5.34144e-08 -9.46673e-22 -3.49482e-07 -3.37973e-22 0)
(1.10187e-06 2.35205e-10 9.55614e-23 -1.84311e-07 7.81522e-23 0)
(9.37291e-07 2.26851e-08 8.96347e-23 -1.09966e-07 6.51159e-23 0)
(8.21729e-07 3.5628e-08 -3.72208e-23 -6.3106e-08 -1.94136e-23 0)
(7.37626e-07 4.19652e-08 3.16187e-22 -4.10803e-08 9.05398e-23 0)
(6.74076e-07 4.60966e-08 1.56647e-23 -2.80289e-08 2.38116e-24 0)
(6.2423e-07 4.82219e-08 5.09511e-22 -2.25768e-08 1.53737e-22 0)
(5.84e-07 4.87559e-08 1.12722e-22 -1.97461e-08 3.44751e-23 0)
(5.50147e-07 4.95799e-08 6.51768e-23 -2.00321e-08 2.22337e-23 0)
(1.76235e-06 1.00927e-07 1.67017e-21 -5.25257e-07 2.86799e-20 1.24307e-34)
(1.31229e-06 1.11151e-07 -6.89615e-23 -2.28578e-07 -1.18301e-22 0)
(1.0617e-06 6.34399e-08 3.31017e-22 -9.27599e-08 1.11273e-22 0)
(9.04347e-07 3.31326e-08 1.62799e-23 -4.31264e-08 2.10893e-23 0)
(7.97962e-07 2.34399e-08 5.54252e-28 -1.83515e-08 4.4448e-28 0)
(7.19436e-07 1.94185e-08 3.21967e-22 -8.5591e-09 3.3337e-23 0)
(6.59636e-07 1.95492e-08 4.52451e-24 -3.64988e-09 4.30478e-25 0)
(6.11617e-07 2.03813e-08 2.47385e-22 -2.21351e-09 2.84418e-23 0)
(5.72344e-07 2.10825e-08 -2.30029e-24 -1.78215e-09 5.11294e-25 0)
(5.3839e-07 2.18669e-08 -3.95999e-24 -2.37245e-09 -3.22908e-25 0)
(2.92552e-09 -2.2121e-08 3.15704e-20 1.40337e-08 2.10399e-20 1.57861e-34)
(5.71738e-09 -2.75926e-08 -1.84153e-23 1.42983e-08 1.95592e-20 1.66232e-36)
(2.34117e-08 -3.73078e-08 -2.36278e-22 5.49808e-09 1.8869e-20 2.07087e-35)
(5.24644e-08 -4.53111e-08 -2.30198e-24 -7.98354e-09 1.90861e-20 0)
(8.6352e-08 -5.03502e-08 -3.42287e-23 -2.3065e-08 1.87197e-20 -1.6593e-36)
(1.22081e-07 -5.32484e-08 -3.2038e-22 -3.86242e-08 1.90148e-20 3.46694e-35)
(1.57107e-07 -5.44192e-08 7.07339e-23 -5.36505e-08 1.9334e-20 1.656e-36)
(1.90608e-07 -5.45464e-08 -2.11397e-22 -6.78429e-08 1.91119e-20 3.14745e-35)
(2.21365e-07 -5.37277e-08 1.68808e-22 -8.08967e-08 1.91523e-20 -1.36553e-35)
(2.49882e-07 -5.30696e-08 5.18882e-22 -9.26303e-08 1.90621e-20 -4.11748e-35)
(8.19895e-09 -2.75453e-08 3.26734e-20 1.21915e-08 4.14715e-21 4.08573e-35)
(2.55806e-08 -4.79585e-08 2.58637e-22 1.47637e-08 2.6437e-22 0)
(5.89341e-08 -7.18396e-08 -2.41904e-22 7.18552e-10 -2.25268e-22 0)
(9.67356e-08 -9.05328e-08 1.58525e-24 -1.87766e-08 -1.88373e-22 0)
(1.34797e-07 -1.02266e-07 0 -3.83086e-08 0 0)
(1.70992e-07 -1.08958e-07 -3.64939e-22 -5.66532e-08 -4.62093e-23 0)
(2.04314e-07 -1.11521e-07 6.36021e-23 -7.30787e-08 2.87394e-22 0)
(2.34951e-07 -1.11566e-07 4.7232e-24 -8.76855e-08 1.53279e-23 0)
(2.61899e-07 -1.09233e-07 -2.0158e-22 -1.00452e-07 -5.14303e-22 0)
(2.86923e-07 -1.07331e-07 1.4324e-22 -1.11225e-07 2.00343e-23 0)
(9.90448e-09 -4.53058e-08 3.36111e-20 2.02325e-08 6.68613e-21 -1.82947e-36)
(4.41355e-08 -8.64099e-08 2.64051e-22 1.74455e-08 2.61531e-22 0)
(9.1963e-08 -1.16283e-07 2.75511e-22 -4.65258e-09 5.06277e-23 0)
(1.3955e-07 -1.36706e-07 1.32595e-23 -3.28135e-08 -1.81581e-22 0)
(1.83393e-07 -1.48207e-07 0 -5.89353e-08 0 0)
(2.21956e-07 -1.53796e-07 -4.08644e-22 -8.17714e-08 -9.59467e-23 0)
(2.55349e-07 -1.5478e-07 -5.56947e-22 -1.00852e-07 -1.41098e-22 0)
(2.84672e-07 -1.52935e-07 3.69495e-22 -1.16798e-07 2.04164e-22 0)
(3.08955e-07 -1.48514e-07 2.31978e-24 -1.29693e-07 6.46117e-24 0)
(3.31591e-07 -1.44754e-07 -3.32183e-22 -1.40065e-07 -1.88734e-22 0)
(1.21552e-08 -7.34465e-08 3.55913e-20 4.07983e-08 9.75563e-21 -3.25634e-35)
(6.97588e-08 -1.3309e-07 6.42337e-23 2.01747e-08 -2.24239e-22 0)
(1.3108e-07 -1.64777e-07 3.02682e-22 -1.22169e-08 5.21888e-23 0)
(1.87458e-07 -1.82886e-07 0 -4.88285e-08 0 0)
(2.36275e-07 -1.90691e-07 -5.1315e-22 -8.08324e-08 1.81199e-22 0)
(2.77046e-07 -1.92482e-07 1.06566e-23 -1.07796e-07 4.36646e-22 0)
(3.10652e-07 -1.89952e-07 -2.84649e-23 -1.29467e-07 -2.32176e-22 0)
(3.38994e-07 -1.84869e-07 -7.87952e-23 -1.46909e-07 -3.55043e-22 0)
(3.60983e-07 -1.77618e-07 1.68001e-22 -1.60267e-07 5.04043e-23 0)
(3.81667e-07 -1.71445e-07 3.13653e-22 -1.7064e-07 1.08444e-22 0)
(1.88572e-08 -1.13605e-07 3.58535e-20 7.01329e-08 1.38268e-20 7.07698e-35)
(1.06227e-07 -1.84125e-07 -5.30396e-22 1.96244e-08 3.46646e-22 0)
(1.81076e-07 -2.12969e-07 -3.22416e-22 -2.67191e-08 -8.63073e-23 0)
(2.44874e-07 -2.25298e-07 -8.46758e-23 -7.24132e-08 3.26742e-22 0)
(2.96929e-07 -2.26641e-07 -3.21807e-24 -1.09657e-07 1.99109e-23 0)
(3.3849e-07 -2.22532e-07 4.93256e-22 -1.39837e-07 -1.20891e-22 0)
(3.71261e-07 -2.14971e-07 2.15967e-22 -1.63214e-07 5.29336e-23 0)
(3.97855e-07 -2.05557e-07 0 -1.81396e-07 0 0)
(4.17105e-07 -1.94893e-07 -2.34543e-22 -1.94632e-07 -2.73165e-22 0)
(4.35504e-07 -1.85775e-07 9.17176e-23 -2.04565e-07 2.15168e-23 0)
(3.46618e-08 -1.66986e-07 3.9569e-20 1.03725e-07 1.79201e-20 -8.28225e-35)
(1.54859e-07 -2.35879e-07 2.15932e-22 1.55182e-08 -4.06244e-22 0)
(2.42445e-07 -2.56296e-07 -2.67234e-22 -4.66787e-08 -2.69167e-22 0)
(3.11727e-07 -2.59879e-07 5.72309e-23 -1.01116e-07 -1.51858e-22 0)
(3.64934e-07 -2.5306e-07 5.62907e-22 -1.42412e-07 1.74654e-22 0)
(4.05483e-07 -2.42036e-07 -5.39681e-22 -1.74534e-07 5.17456e-23 0)
(4.36015e-07 -2.28835e-07 -3.97275e-25 -1.98513e-07 1.29922e-23 0)
(4.59749e-07 -2.14727e-07 -4.24828e-22 -2.16516e-07 -2.66861e-22 0)
(4.75565e-07 -2.00557e-07 9.92098e-25 -2.29042e-07 5.00665e-24 0)
(4.91023e-07 -1.88339e-07 -4.61636e-22 -2.38014e-07 -1.96641e-22 0)
(6.48686e-08 -2.33268e-07 4.64423e-20 1.34537e-07 2.55693e-20 -6.99575e-35)
(2.16014e-07 -2.86079e-07 1.19663e-23 6.58667e-09 -1.75136e-23 0)
(3.13976e-07 -2.92022e-07 -8.71075e-27 -7.13805e-08 1.42327e-26 0)
(3.86214e-07 -2.8397e-07 -5.77069e-22 -1.33619e-07 -3.75563e-22 0)
(4.38299e-07 -2.67689e-07 -9.436e-23 -1.77655e-07 2.40143e-22 0)
(4.75896e-07 -2.49232e-07 -5.27033e-22 -2.10439e-07 -2.00592e-22 0)
(5.02678e-07 -2.30259e-07 9.47519e-22 -2.33881e-07 3.94836e-22 0)
(5.22298e-07 -2.11546e-07 1.02652e-25 -2.5077e-07 1.00427e-23 0)
(5.33928e-07 -1.94115e-07 1.84495e-22 -2.61916e-07 4.54186e-24 0)
(5.4561e-07 -1.78901e-07 -2.52525e-22 -2.69391e-07 -1.12837e-22 0)
(1.1445e-07 -3.1016e-07 5.50184e-20 1.55818e-07 3.55695e-20 -1.18663e-34)
(2.89364e-07 -3.32652e-07 3.08387e-22 -7.63887e-09 -3.56588e-22 0)
(3.93308e-07 -3.18334e-07 -1.1827e-22 -9.86175e-08 1.50676e-22 0)
(4.65171e-07 -2.9612e-07 7.1684e-23 -1.66572e-07 -1.05834e-22 0)
(5.13659e-07 -2.6953e-07 6.31767e-27 -2.11657e-07 -1.16974e-26 0)
(5.46382e-07 -2.43593e-07 6.08427e-22 -2.43757e-07 5.54166e-23 0)
(5.68023e-07 -2.19169e-07 4.1895e-23 -2.65661e-07 -1.77503e-22 0)
(5.82384e-07 -1.96384e-07 -1.16947e-23 -2.80588e-07 1.44431e-22 0)
(5.89294e-07 -1.76279e-07 4.05425e-24 -2.90032e-07 7.1457e-23 0)
(5.9634e-07 -1.58474e-07 1.95184e-22 -2.95446e-07 1.6328e-22 0)
(1.87389e-07 -3.93237e-07 6.16269e-20 1.6121e-07 4.8597e-20 1.42961e-34)
(3.74229e-07 -3.73674e-07 -9.78759e-23 -2.79061e-08 6.50365e-22 0)
(4.77887e-07 -3.34421e-07 -1.14375e-26 -1.26772e-07 1.14589e-26 0)
(5.45304e-07 -2.96151e-07 7.90486e-22 -1.97353e-07 1.76081e-22 0)
(5.87517e-07 -2.58831e-07 6.05153e-22 -2.4143e-07 2.83464e-22 0)
(6.13455e-07 -2.25732e-07 5.45665e-22 -2.71482e-07 2.56041e-22 0)
(6.28641e-07 -1.96432e-07 -5.55461e-23 -2.90805e-07 1.516e-22 0)
(6.36688e-07 -1.70442e-07 -6.57075e-22 -3.03196e-07 -3.44006e-22 0)
(6.38495e-07 -1.48354e-07 3.99738e-22 -3.10477e-07 9.88645e-23 0)
(6.40358e-07 -1.285e-07 1.80899e-22 -3.14353e-07 1.00559e-22 0)
(2.85909e-07 -4.76457e-07 6.68205e-20 1.4613e-07 6.18572e-20 1.92588e-35)
(4.69402e-07 -4.07234e-07 -2.00079e-22 -5.44558e-08 1.43581e-22 0)
(5.64995e-07 -3.40198e-07 -3.89166e-22 -1.54125e-07 -1.7088e-22 0)
(6.23241e-07 -2.84918e-07 1.68044e-21 -2.23323e-07 3.76057e-22 0)
(6.5627e-07 -2.36965e-07 1.00571e-23 -2.64006e-07 -1.06538e-23 0)
(6.73514e-07 -1.97267e-07 -5.36882e-22 -2.90513e-07 -2.85996e-22 0)
(6.81007e-07 -1.63869e-07 -5.69503e-22 -3.06376e-07 -9.60049e-23 0)
(6.81837e-07 -1.35661e-07 -2.16596e-22 -3.15357e-07 -1.21399e-22 0)
(6.78761e-07 -1.12827e-07 1.79253e-23 -3.20974e-07 -1.53776e-22 0)
(6.73715e-07 -9.29799e-08 1.13988e-22 -3.20911e-07 1.98556e-22 0)
(2.75556e-07 -5.09257e-08 8.46057e-22 -1.03513e-07 1.92766e-20 -1.22538e-35)
(2.9793e-07 -4.79607e-08 9.62135e-22 -1.12553e-07 1.90503e-20 -2.69252e-35)
(3.18508e-07 -4.53543e-08 5.60704e-22 -1.20947e-07 1.8645e-20 -1.57063e-35)
(3.36997e-07 -4.29883e-08 6.01222e-22 -1.28536e-07 1.88382e-20 -6.89302e-37)
(3.53683e-07 -4.07908e-08 3.74155e-22 -1.35364e-07 1.88499e-20 4.09421e-35)
(3.68624e-07 -3.88209e-08 6.24718e-22 -1.41516e-07 1.89199e-20 0)
(3.82011e-07 -3.70144e-08 5.89037e-22 -1.47018e-07 1.89034e-20 0)
(3.93934e-07 -3.5385e-08 6.62736e-22 -1.51936e-07 1.90061e-20 5.32048e-37)
(4.04534e-07 -3.3892e-08 6.11632e-22 -1.56308e-07 1.89066e-20 -1.39089e-35)
(4.13892e-07 -3.25259e-08 7.10498e-22 -1.60178e-07 1.91004e-20 9.02485e-37)
(4.22103e-07 -3.12582e-08 7.30599e-22 -1.63578e-07 1.89505e-20 -4.2137e-35)
(4.29228e-07 -3.00719e-08 3.09135e-22 -1.66535e-07 1.88046e-20 1.41155e-35)
(4.35318e-07 -2.89432e-08 6.59651e-22 -1.69069e-07 1.89326e-20 -4.25585e-35)
(4.4041e-07 -2.78575e-08 -3.79738e-23 -1.71195e-07 1.84463e-20 -8.54634e-37)
(4.44521e-07 -2.68e-08 3.16154e-22 -1.72921e-07 1.89047e-20 1.45726e-35)
(4.47679e-07 -2.57693e-08 2.52431e-22 -1.74255e-07 1.88071e-20 -3.44997e-45)
(4.49874e-07 -2.47776e-08 8.79368e-23 -1.75195e-07 1.86728e-20 -1.55666e-37)
(4.51195e-07 -2.38791e-08 2.99079e-22 -1.75756e-07 1.89287e-20 1.11704e-37)
(4.51626e-07 -2.31809e-08 1.87307e-22 -1.75918e-07 1.86371e-20 -4.40251e-35)
(4.5148e-07 -2.30051e-08 2.85709e-20 -1.75634e-07 1.84173e-20 -6.72479e-35)
(3.07472e-07 -1.01625e-07 3.55559e-22 -1.20829e-07 3.85994e-22 0)
(3.23919e-07 -9.38707e-08 2.26887e-22 -1.27589e-07 5.64669e-23 0)
(3.3968e-07 -8.69757e-08 1.50179e-23 -1.33785e-07 -8.7085e-23 0)
(3.53798e-07 -8.05377e-08 5.20925e-22 -1.39457e-07 4.15215e-22 0)
(3.6682e-07 -7.44893e-08 -9.85824e-23 -1.44512e-07 -2.1645e-23 0)
(3.78572e-07 -6.90141e-08 -4.2602e-22 -1.49149e-07 -3.79973e-22 0)
(3.89281e-07 -6.39414e-08 2.13646e-22 -1.53308e-07 7.24876e-23 0)
(3.98922e-07 -5.93302e-08 0 -1.57085e-07 0 0)
(4.07624e-07 -5.50765e-08 1.0164e-22 -1.6048e-07 3.32734e-23 0)
(4.15408e-07 -5.11639e-08 2.09073e-22 -1.63537e-07 7.43183e-23 0)
(4.22352e-07 -4.75206e-08 6.29337e-22 -1.66269e-07 2.96125e-22 0)
(4.28488e-07 -4.41071e-08 2.89428e-24 -1.68696e-07 2.91114e-24 0)
(4.33862e-07 -4.0869e-08 7.83693e-23 -1.7083e-07 -5.49804e-23 0)
(4.38504e-07 -3.77692e-08 1.22388e-22 -1.72676e-07 1.23572e-22 0)
(4.42432e-07 -3.47776e-08 1.25546e-22 -1.74227e-07 1.27287e-22 0)
(4.45673e-07 -3.18918e-08 -1.24364e-22 -1.75468e-07 -1.26907e-22 0)
(4.48205e-07 -2.9141e-08 -1.25062e-22 -1.76352e-07 -1.28506e-22 0)
(4.50063e-07 -2.66397e-08 -2.51148e-22 -1.768e-07 -2.59865e-22 0)
(4.51087e-07 -2.45412e-08 -1.89582e-24 -1.76627e-07 -1.8489e-24 0)
(4.5133e-07 -2.33799e-08 2.90036e-20 -1.75527e-07 4.17053e-22 6.44266e-35)
(3.47328e-07 -1.36267e-07 9.7882e-23 -1.47899e-07 1.17401e-22 0)
(3.57562e-07 -1.25779e-07 1.3107e-22 -1.51767e-07 4.28132e-23 0)
(3.68205e-07 -1.16281e-07 -3.09898e-22 -1.54916e-07 -3.4082e-22 0)
(3.77495e-07 -1.07455e-07 -2.54924e-23 -1.5788e-07 6.08539e-23 0)
(3.86436e-07 -9.90241e-08 5.60147e-22 -1.60382e-07 4.1286e-22 0)
(3.94536e-07 -9.13519e-08 -4.4618e-22 -1.62776e-07 -3.74977e-22 0)
(4.02144e-07 -8.41649e-08 -1.19389e-22 -1.6493e-07 -1.20699e-22 0)
(4.09089e-07 -7.75874e-08 2.28082e-22 -1.66969e-07 2.26767e-22 0)
(4.15516e-07 -7.14781e-08 -3.61474e-24 -1.68861e-07 -1.44701e-22 0)
(4.21377e-07 -6.58353e-08 -2.41269e-22 -1.70645e-07 -2.378e-22 0)
(4.26738e-07 -6.05712e-08 2.31152e-22 -1.72317e-07 2.27391e-22 0)
(4.31595e-07 -5.56438e-08 3.57152e-22 -1.73886e-07 3.52116e-22 0)
(4.35981e-07 -5.09883e-08 2.73083e-24 -1.75346e-07 2.65394e-24 0)
(4.39905e-07 -4.65594e-08 -1.2227e-22 -1.76685e-07 -1.2165e-22 0)
(4.4337e-07 -4.23172e-08 1.21035e-22 -1.77871e-07 1.2134e-22 0)
(4.46377e-07 -3.82445e-08 1.78264e-29 -1.78848e-07 1.7594e-29 0)
(4.4886e-07 -3.43464e-08 -1.24682e-22 -1.79507e-07 -1.26958e-22 0)
(4.50794e-07 -3.06747e-08 1.93479e-23 -1.79674e-07 9.08584e-23 0)
(4.51844e-07 -2.73123e-08 -3.97551e-22 -1.78976e-07 -5.13104e-23 0)
(4.52014e-07 -2.4392e-08 2.91017e-20 -1.77013e-07 4.14683e-22 4.80443e-38)
(3.92733e-07 -1.60616e-07 0 -1.76887e-07 0 0)
(3.96601e-07 -1.4867e-07 1.40332e-22 -1.78151e-07 4.73565e-23 0)
(4.02117e-07 -1.3754e-07 1.11641e-22 -1.78468e-07 1.11532e-22 0)
(4.06419e-07 -1.27384e-07 1.22559e-22 -1.78953e-07 1.23725e-22 0)
(4.1111e-07 -1.1747e-07 0 -1.79008e-07 0 0)
(4.15307e-07 -1.08445e-07 1.43345e-23 -1.79215e-07 -6.05931e-23 0)
(4.19561e-07 -9.98821e-08 -3.61665e-22 -1.79359e-07 -1.99928e-22 0)
(4.2353e-07 -9.20039e-08 -2.33584e-22 -1.79612e-07 -2.21911e-22 0)
(4.27407e-07 -8.46319e-08 -1.29089e-22 -1.79925e-07 -5.47023e-23 0)
(4.31066e-07 -7.77933e-08 3.71139e-24 -1.80335e-07 1.38969e-22 0)
(4.34569e-07 -7.13941e-08 -1.10957e-22 -1.80829e-07 2.81594e-23 0)
(4.37872e-07 -6.53973e-08 2.36954e-22 -1.81404e-07 9.40626e-23 0)
(4.40989e-07 -5.97347e-08 2.22381e-22 -1.82039e-07 1.43372e-23 0)
(4.43904e-07 -5.43568e-08 7.87866e-24 -1.82708e-07 7.51432e-23 0)
(4.46591e-07 -4.92134e-08 1.22041e-23 -1.83356e-07 7.9942e-23 0)
(4.49026e-07 -4.42642e-08 -1.23291e-22 -1.839e-07 -1.22821e-22 0)
(4.51097e-07 -3.94795e-08 -2.63226e-29 -1.84195e-07 -2.62904e-29 0)
(4.52754e-07 -3.4816e-08 2.65256e-22 -1.84034e-07 3.41418e-22 0)
(4.53578e-07 -3.02899e-08 -1.57668e-23 -1.83007e-07 -8.92293e-23 0)
(4.53627e-07 -2.55617e-08 2.86353e-20 -1.80724e-07 8.63544e-23 -9.32144e-35)
(4.41731e-07 -1.73114e-07 1.44972e-23 -2.08794e-07 1.53279e-22 0)
(4.39043e-07 -1.61186e-07 -1.52821e-22 -2.07434e-07 -6.18396e-23 0)
(4.39442e-07 -1.49408e-07 -3.87527e-22 -2.04727e-07 -2.80665e-22 0)
(4.38661e-07 -1.39048e-07 2.54209e-22 -2.02673e-07 1.55241e-22 0)
(4.39062e-07 -1.28607e-07 6.60833e-22 -2.00172e-07 3.90111e-22 0)
(4.39237e-07 -1.1914e-07 -1.22538e-22 -1.98065e-07 -1.11932e-22 0)
(4.40014e-07 -1.10018e-07 0 -1.9606e-07 0 0)
(4.40844e-07 -1.01578e-07 1.19246e-22 -1.94366e-07 1.086e-22 0)
(4.41994e-07 -9.36117e-08 -3.77353e-22 -1.92935e-07 -1.49714e-22 0)
(4.43258e-07 -8.61779e-08 -2.46745e-22 -1.91801e-07 -1.62797e-22 0)
(4.44698e-07 -7.91885e-08 9.66096e-24 -1.90949e-07 -1.20587e-22 0)
(4.46233e-07 -7.26173e-08 -1.27528e-22 -1.90367e-07 -1.84716e-22 0)
(4.47859e-07 -6.64009e-08 -6.22017e-24 -1.90029e-07 1.91093e-22 0)
(4.49532e-07 -6.04858e-08 2.47227e-22 -1.89892e-07 3.03239e-22 0)
(4.51207e-07 -5.48107e-08 1.17078e-22 -1.89891e-07 4.64706e-23 0)
(4.52835e-07 -4.9305e-08 -6.74e-24 -1.89931e-07 -7.48244e-23 0)
(4.54281e-07 -4.39042e-08 2.2669e-22 -1.89852e-07 8.70327e-23 0)
(4.55483e-07 -3.84636e-08 1.1143e-22 -1.89453e-07 4.17948e-23 0)
(4.56026e-07 -3.2964e-08 4.62102e-22 -1.88356e-07 3.30369e-22 0)
(4.55997e-07 -2.66741e-08 2.96602e-20 -1.86218e-07 1.01139e-21 9.24491e-35)
(4.9226e-07 -1.74486e-07 9.21935e-23 -2.40047e-07 1.0991e-22 0)
(4.82973e-07 -1.6413e-07 2.2635e-24 -2.36497e-07 4.161e-24 0)
(4.78437e-07 -1.52646e-07 -2.79601e-22 -2.30972e-07 -1.74545e-22 0)
(4.72608e-07 -1.43096e-07 -6.72165e-22 -2.26621e-07 -4.4992e-22 0)
(4.68821e-07 -1.32976e-07 2.62035e-22 -2.21792e-07 1.60634e-22 0)
(4.65e-07 -1.23836e-07 2.48559e-22 -2.17524e-07 2.16193e-22 0)
(4.62308e-07 -1.14862e-07 -1.2174e-22 -2.13507e-07 -1.06066e-22 0)
(4.5997e-07 -1.06488e-07 -1.75687e-23 -2.09945e-07 4.50943e-23 0)
(4.58327e-07 -9.8505e-08 5.27929e-22 -2.06813e-07 2.85943e-22 0)
(4.57101e-07 -9.09939e-08 -3.56791e-22 -2.04134e-07 -3.19601e-22 0)
(4.56356e-07 -8.38864e-08 -1.26903e-22 -2.01904e-07 -1.15219e-22 0)
(4.55977e-07 -7.71649e-08 3.4901e-22 -2.00109e-07 4.45659e-22 0)
(4.55949e-07 -7.07775e-08 -4.93534e-22 -1.98726e-07 -1.41888e-22 0)
(4.56207e-07 -6.46689e-08 -3.59075e-22 -1.9771e-07 -3.38658e-22 0)
(4.56694e-07 -5.87742e-08 -1.22919e-24 -1.97e-07 -6.67773e-23 0)
(4.57347e-07 -5.29966e-08 -4.79485e-22 -1.96506e-07 -3.31096e-22 0)
(4.58035e-07 -4.72449e-08 -3.50535e-24 -1.96089e-07 -2.94874e-24 0)
(4.58688e-07 -4.1289e-08 4.73256e-22 -1.95579e-07 4.05368e-22 0)
(4.58972e-07 -3.50998e-08 9.7012e-24 -1.9468e-07 8.22311e-23 0)
(4.58951e-07 -2.76422e-08 2.98366e-20 -1.9312e-07 8.16292e-22 -6.70478e-37)
(5.4189e-07 -1.6471e-07 -9.65564e-23 -2.6905e-07 -1.07704e-22 0)
(5.26308e-07 -1.5761e-07 1.32138e-22 -2.63974e-07 1.07052e-22 0)
(5.17332e-07 -1.47409e-07 1.61391e-22 -2.56145e-07 7.83142e-23 0)
(5.06714e-07 -1.39641e-07 -1.28977e-22 -2.4982e-07 -1.06614e-22 0)
(4.99005e-07 -1.30745e-07 -3.01793e-22 -2.43026e-07 -1.40331e-22 0)
(4.91368e-07 -1.22662e-07 1.47267e-22 -2.3677e-07 6.81331e-23 0)
(4.85305e-07 -1.14524e-07 4.1833e-22 -2.30887e-07 2.44144e-22 0)
(4.79873e-07 -1.06784e-07 -6.73277e-22 -2.25531e-07 -4.08495e-22 0)
(4.75453e-07 -9.93006e-08 -4.14967e-22 -2.20743e-07 -2.47449e-22 0)
(4.71734e-07 -9.21627e-08 6.51348e-22 -2.16541e-07 3.98606e-22 0)
(4.68765e-07 -8.53456e-08 -2.64092e-22 -2.1294e-07 -1.17513e-22 0)
(4.66417e-07 -7.8845e-08 3.54966e-22 -2.09929e-07 3.20224e-22 0)
(4.64658e-07 -7.26267e-08 3.78238e-22 -2.07489e-07 2.23883e-22 0)
(4.63413e-07 -6.66401e-08 -2.25047e-22 -2.05585e-07 -2.72156e-22 0)
(4.62618e-07 -6.08204e-08 -1.39479e-22 -2.04167e-07 6.09209e-23 0)
(4.62203e-07 -5.50537e-08 6.86695e-24 -2.03164e-07 5.66134e-24 0)
(4.62066e-07 -4.9233e-08 -5.85498e-22 -2.02474e-07 -4.38782e-22 0)
(4.62128e-07 -4.30677e-08 1.17081e-22 -2.01977e-07 1.16923e-22 0)
(4.62191e-07 -3.65326e-08 2.29971e-22 -2.01487e-07 1.63226e-22 0)
(4.62239e-07 -2.83933e-08 2.99729e-20 -2.00814e-07 8.19805e-22 -2.75145e-37)
(5.88023e-07 -1.44474e-07 1.22897e-24 -2.9324e-07 3.34343e-24 0)
(5.66907e-07 -1.42279e-07 -1.36529e-22 -2.87492e-07 -1.07133e-22 0)
(5.54259e-07 -1.34436e-07 2.7606e-23 -2.78385e-07 -2.51095e-23 0)
(5.39393e-07 -1.2911e-07 0 -2.7048e-07 0 0)
(5.28175e-07 -1.22247e-07 0 -2.62372e-07 0 0)
(5.17177e-07 -1.15792e-07 -4.07439e-22 -2.54616e-07 -2.85573e-22 0)
(5.08019e-07 -1.09118e-07 3.63948e-22 -2.47306e-07 2.9912e-22 0)
(4.99746e-07 -1.02559e-07 7.65656e-22 -2.4049e-07 5.92032e-22 0)
(4.92686e-07 -9.60921e-08 -5.8034e-22 -2.34277e-07 -4.90781e-22 0)
(4.86566e-07 -8.97853e-08 -5.06592e-22 -2.28699e-07 -3.83829e-22 0)
(4.81404e-07 -8.36642e-08 2.3443e-22 -2.238e-07 2.05365e-22 0)
(4.77087e-07 -7.7741e-08 -2.10658e-23 -2.19596e-07 3.82341e-23 0)
(4.73569e-07 -7.20079e-08 3.95453e-22 -2.16092e-07 1.81999e-22 0)
(4.70773e-07 -6.64288e-08 6.19013e-22 -2.13278e-07 3.88502e-22 0)
(4.68645e-07 -6.09483e-08 8.49507e-24 -2.11131e-07 6.92795e-24 0)
(4.67111e-07 -5.54506e-08 2.74406e-22 -2.09614e-07 -5.879e-23 0)
(4.66116e-07 -4.98261e-08 0 -2.0868e-07 0 0)
(4.65571e-07 -4.37541e-08 -2.35236e-22 -2.08268e-07 -9.75237e-23 0)
(4.65448e-07 -3.72215e-08 1.13079e-22 -2.08322e-07 4.50731e-23 0)
(4.65616e-07 -2.88925e-08 3.04408e-20 -2.08744e-07 9.06472e-22 -7.31713e-37)
(6.28682e-07 -1.15733e-07 -9.83569e-25 -3.10827e-07 -2.90519e-24 0)
(6.02815e-07 -1.19317e-07 1.67907e-22 -3.0502e-07 9.36297e-23 0)
(5.87655e-07 -1.15503e-07 -1.67089e-22 -2.96761e-07 -9.45532e-23 0)
(5.69536e-07 -1.1309e-07 -1.64432e-22 -2.87971e-07 -9.19886e-23 0)
(5.55175e-07 -1.09099e-07 4.52592e-22 -2.79101e-07 2.81892e-22 0)
(5.4133e-07 -1.04661e-07 3.21537e-22 -2.7016e-07 1.777e-22 0)
(5.29356e-07 -9.97797e-08 -4.27958e-22 -2.61631e-07 -2.61357e-22 0)
(5.18552e-07 -9.46513e-08 5.39521e-23 -2.53576e-07 -4.73462e-23 0)
(5.09096e-07 -8.94201e-08 9.7839e-23 -2.46148e-07 8.02283e-23 0)
(5.00785e-07 -8.41687e-08 -4.97046e-23 -2.39406e-07 5.73172e-23 0)
(4.93596e-07 -7.89705e-08 -4.32585e-22 -2.33408e-07 -2.20087e-22 0)
(4.87431e-07 -7.38585e-08 3.91441e-24 -2.28189e-07 3.34179e-24 0)
(4.82237e-07 -6.8847e-08 -2.021e-22 -2.23771e-07 -2.38195e-22 0)
(4.77942e-07 -6.39145e-08 -6.74431e-24 -2.20169e-07 -5.49878e-24 0)
(4.74507e-07 -5.90174e-08 2.51998e-22 -2.17392e-07 1.14729e-22 0)
(4.71863e-07 -5.40469e-08 -5.07533e-24 -2.15442e-07 -3.97921e-24 0)
(4.70014e-07 -4.88981e-08 3.13777e-22 -2.14337e-07 3.68915e-22 0)
(4.68861e-07 -4.32493e-08 -1.15791e-22 -2.14082e-07 -4.87669e-23 0)
(4.6857e-07 -3.71003e-08 -5.49749e-22 -2.14757e-07 -4.87775e-22 0)
(4.68867e-07 -2.91041e-08 3.00182e-20 -2.16369e-07 4.65009e-22 -5.53368e-35)
(6.60835e-07 -7.88086e-08 -2.12692e-23 -3.21649e-07 -1.03842e-23 0)
(6.34132e-07 -8.62553e-08 -1.79594e-22 -3.14486e-07 -9.98778e-23 0)
(6.16862e-07 -8.81801e-08 1.46969e-22 -3.08964e-07 1.04622e-22 0)
(5.97558e-07 -8.90902e-08 -3.86474e-22 -3.01102e-07 -3.12841e-22 0)
(5.80664e-07 -8.8963e-08 -3.96496e-22 -2.92866e-07 -2.95587e-22 0)
(5.64647e-07 -8.76503e-08 2.36184e-22 -2.83985e-07 2.13344e-22 0)
(5.50152e-07 -8.55056e-08 2.06285e-22 -2.74995e-07 2.12133e-22 0)
(5.36975e-07 -8.26624e-08 3.56011e-22 -2.66175e-07 2.84741e-22 0)
(5.25196e-07 -7.93299e-08 -4.15583e-22 -2.57762e-07 -2.80693e-22 0)
(5.14722e-07 -7.56631e-08 1.25021e-24 -2.49938e-07 7.16691e-24 0)
(5.0552e-07 -7.17904e-08 -5.65318e-24 -2.42827e-07 -2.15646e-23 0)
(4.97509e-07 -6.78035e-08 -3.26822e-22 -2.36524e-07 -2.82697e-22 0)
(4.90638e-07 -6.376e-08 0 -2.31097e-07 0 0)
(4.8484e-07 -5.96776e-08 -2.90807e-22 -2.26602e-07 -9.29545e-23 0)
(4.80086e-07 -5.55424e-08 -1.4988e-24 -2.23092e-07 -5.07143e-24 0)
(4.76314e-07 -5.12749e-08 -3.7691e-22 -2.20616e-07 -1.72075e-22 0)
(4.73586e-07 -4.6789e-08 1.04696e-22 -2.19261e-07 9.81691e-23 0)
(4.71799e-07 -4.1794e-08 2.37395e-22 -2.19107e-07 1.02419e-22 0)
(4.71323e-07 -3.63051e-08 2.91035e-24 -2.2038e-07 -1.20272e-25 0)
(4.71756e-07 -2.90522e-08 3.0341e-20 -2.23194e-07 4.23576e-22 -2.34619e-37)
(6.76153e-07 -4.85968e-08 1.86692e-22 -3.21412e-07 1.4798e-22 0)
(6.51916e-07 -5.26625e-08 -1.7077e-22 -3.15396e-07 -1.0121e-22 0)
(6.33341e-07 -5.99157e-08 -9.9893e-23 -3.1179e-07 -7.48846e-23 0)
(6.14277e-07 -6.34613e-08 1.64187e-22 -3.05552e-07 9.45752e-23 0)
(5.96605e-07 -6.59935e-08 -3.22671e-22 -2.98152e-07 -1.44818e-22 0)
(5.79789e-07 -6.72124e-08 -2.17925e-22 -2.89953e-07 -1.00502e-22 0)
(5.64259e-07 -6.73965e-08 -2.74336e-22 -2.81312e-07 -1.81826e-22 0)
(5.49914e-07 -6.67234e-08 3.14703e-23 -2.72605e-07 -1.68833e-23 0)
(5.36885e-07 -6.53549e-08 5.52988e-22 -2.64101e-07 3.26061e-22 0)
(5.2512e-07 -6.34591e-08 -1.92764e-23 -2.5603e-07 -1.81672e-23 0)
(5.14632e-07 -6.11681e-08 2.94963e-22 -2.48566e-07 1.56022e-22 0)
(5.0537e-07 -5.85945e-08 -1.47869e-23 -2.41845e-07 -1.46769e-23 0)
(4.9731e-07 -5.58165e-08 1.09111e-36 -2.35981e-07 9.80834e-37 0)
(4.90405e-07 -5.2878e-08 -1.29429e-22 -2.31069e-07 -6.06748e-23 0)
(4.84655e-07 -4.97917e-08 1.26476e-22 -2.27208e-07 5.79851e-23 0)
(4.80014e-07 -4.65135e-08 -5.81714e-24 -2.24494e-07 -7.30512e-24 0)
(4.76602e-07 -4.29885e-08 1.85132e-23 -2.23082e-07 -4.55901e-23 0)
(4.7431e-07 -3.89983e-08 1.22671e-24 -2.23113e-07 3.35124e-24 0)
(4.73665e-07 -3.45762e-08 -1.11562e-24 -2.24936e-07 1.2813e-24 0)
(4.74155e-07 -2.86347e-08 3.07288e-20 -2.28761e-07 1.61658e-22 2.7368e-37)
(6.6226e-07 -1.90913e-08 1.72329e-22 -3.07865e-07 1.2474e-22 0)
(6.46264e-07 -2.37571e-08 0 -3.10088e-07 0 0)
(6.29544e-07 -3.25258e-08 -1.35149e-22 -3.07487e-07 -1.06977e-22 0)
(6.12721e-07 -3.83062e-08 1.76105e-36 -3.02917e-07 1.29521e-36 0)
(5.9666e-07 -4.28811e-08 4.0228e-37 -2.96705e-07 2.68905e-37 0)
(5.81101e-07 -4.61507e-08 1.91006e-36 -2.89514e-07 1.3016e-36 0)
(5.66481e-07 -4.82965e-08 2.93776e-36 -2.81696e-07 2.14852e-36 0)
(5.52733e-07 -4.95012e-08 -1.1866e-22 -2.73635e-07 -9.88921e-23 0)
(5.40043e-07 -4.99083e-08 0 -2.65617e-07 0 0)
(5.28403e-07 -4.96783e-08 1.13437e-22 -2.5789e-07 9.75571e-23 0)
(5.17874e-07 -4.89383e-08 -1.65748e-37 -2.50653e-07 -2.36094e-37 0)
(5.08447e-07 -4.78021e-08 -1.09152e-22 -2.44069e-07 -9.71031e-23 0)
(5.00138e-07 -4.63538e-08 1.07369e-22 -2.38279e-07 9.71532e-23 0)
(4.92934e-07 -4.46527e-08 1.5297e-36 -2.33409e-07 1.01508e-36 0)
(4.86872e-07 -4.27259e-08 -1.04521e-22 -2.29588e-07 -9.77407e-23 0)
(4.81936e-07 -4.05667e-08 -9.23306e-37 -2.26952e-07 -7.64625e-37 0)
(4.78289e-07 -3.81428e-08 1.02678e-22 -2.25696e-07 9.89724e-23 0)
(4.75842e-07 -3.53251e-08 1.02153e-22 -2.26005e-07 9.98779e-23 0)
(4.75233e-07 -3.21772e-08 -1.09622e-36 -2.28316e-07 -8.62345e-37 0)
(4.75875e-07 -2.79266e-08 3.08705e-20 -2.3286e-07 -8.76113e-37 -1.82108e-49)