/*--------------------------------*- C++ -*----------------------------------*\
  =========                 |
  \\      /  F ield         | OpenFOAM: The Open Source CFD Toolbox
   \\    /   O peration     | Website:  https://openfoam.org
    \\  /    A nd           | Version:  9
     \\/     M anipulation  |
\*---------------------------------------------------------------------------*/
FoamFile
{
    format      ascii;
    class       pointVectorField;
    location    "1";
    object      pointD;
}
// * * * * * * * * * * * * * * * * * * * * * * * * * * * * * * * * * * * * * //

dimensions      [0 1 0 0 0 0 0];

internalField   nonuniform List<vector> 
2142
(
(7.27445e-07 1.86715e-07 -9.92834e-21)
(6.73737e-07 2.20519e-07 0)
(6.3654e-07 2.43885e-07 0)
(6.09641e-07 2.62415e-07 0)
(5.90427e-07 2.77254e-07 0)
(5.76918e-07 2.89776e-07 0)
(5.6772e-07 3.00592e-07 0)
(5.61847e-07 3.10216e-07 0)
(5.58543e-07 3.1896e-07 0)
(5.57252e-07 3.27033e-07 0)
(5.58008e-07 3.3569e-07 0)
(6.64473e-07 1.70503e-07 -1.11406e-20)
(6.07674e-07 1.97206e-07 0)
(5.68626e-07 2.15448e-07 0)
(5.40551e-07 2.30028e-07 0)
(5.20549e-07 2.41657e-07 0)
(5.06462e-07 2.51497e-07 0)
(4.96782e-07 2.59991e-07 0)
(4.90461e-07 2.67573e-07 0)
(4.86677e-07 2.74458e-07 0)
(4.84855e-07 2.80892e-07 0)
(4.75562e-07 2.80632e-07 0)
(5.9891e-07 1.54722e-07 -1.20173e-20)
(5.40668e-07 1.73441e-07 0)
(5.00819e-07 1.8614e-07 0)
(4.72325e-07 1.96591e-07 0)
(4.52107e-07 2.04978e-07 0)
(4.37885e-07 2.12191e-07 0)
(4.28069e-07 2.1846e-07 0)
(4.2156e-07 2.24108e-07 0)
(4.17514e-07 2.2924e-07 0)
(4.15309e-07 2.34092e-07 0)
(4.07042e-07 2.33086e-07 0)
(5.31021e-07 1.39539e-07 -1.2417e-20)
(4.73117e-07 1.49776e-07 0)
(4.33619e-07 1.56717e-07 0)
(4.05546e-07 1.62998e-07 0)
(3.85743e-07 1.68218e-07 0)
(3.7187e-07 1.72946e-07 0)
(3.62299e-07 1.77174e-07 0)
(3.55909e-07 1.8109e-07 0)
(3.51856e-07 1.84684e-07 0)
(3.49508e-07 1.88136e-07 0)
(3.42432e-07 1.867e-07 0)
(4.61062e-07 1.25067e-07 -1.2249e-20)
(4.05308e-07 1.26744e-07 0)
(3.67379e-07 1.27954e-07 0)
(3.40626e-07 1.30188e-07 0)
(3.21918e-07 1.32432e-07 0)
(3.08909e-07 1.34908e-07 0)
(2.9998e-07 1.37345e-07 0)
(2.94015e-07 1.39778e-07 0)
(2.90202e-07 1.42082e-07 0)
(2.87919e-07 1.44359e-07 0)
(2.82072e-07 1.42764e-07 0)
(3.89366e-07 1.11328e-07 -1.14864e-20)
(3.37467e-07 1.04792e-07 0)
(3.02329e-07 1.00571e-07 0)
(2.77837e-07 9.90837e-08 0)
(2.60933e-07 9.86943e-08 0)
(2.49317e-07 9.92612e-08 0)
(2.41416e-07 1.00237e-07 0)
(2.36162e-07 1.01496e-07 0)
(2.328e-07 1.028e-07 0)
(2.30745e-07 1.04164e-07 0)
(2.26097e-07 1.02652e-07 0)
(3.16167e-07 9.81929e-08 -1.01637e-20)
(2.69628e-07 8.4222e-08 0)
(2.38525e-07 7.51793e-08 0)
(2.17274e-07 7.05586e-08 0)
(2.02906e-07 6.80692e-08 0)
(1.932e-07 6.71981e-08 0)
(1.86687e-07 6.71206e-08 0)
(1.82391e-07 6.75602e-08 0)
(1.79648e-07 6.81777e-08 0)
(1.77943e-07 6.89103e-08 0)
(1.74416e-07 6.76833e-08 0)
(2.42092e-07 8.52676e-08 -8.38994e-21)
(2.01896e-07 6.50459e-08 0)
(1.76052e-07 5.22223e-08 0)
(1.59043e-07 4.54355e-08 0)
(1.47902e-07 4.16307e-08 0)
(1.40551e-07 3.99377e-08 0)
(1.35699e-07 3.92876e-08 0)
(1.32529e-07 3.92861e-08 0)
(1.30508e-07 3.95321e-08 0)
(1.29227e-07 3.99074e-08 0)
(1.26718e-07 3.91006e-08 0)
(1.67572e-07 7.12989e-08 -6.29572e-21)
(1.34008e-07 4.66129e-08 0)
(1.14888e-07 3.18295e-08 0)
(1.03125e-07 2.44382e-08 0)
(9.57857e-08 2.0442e-08 0)
(9.1099e-08 1.86779e-08 0)
(8.80553e-08 1.7959e-08 0)
(8.60805e-08 1.78595e-08 0)
(8.48118e-08 1.799e-08 0)
(8.39796e-08 1.82218e-08 0)
(8.23742e-08 1.78669e-08 0)
(9.70395e-08 5.35694e-08 -4.04615e-21)
(6.65443e-08 2.76345e-08 0)
(5.58268e-08 1.46932e-08 0)
(5.00851e-08 9.03405e-09 0)
(4.6713e-08 6.27176e-09 0)
(4.46195e-08 5.17583e-09 0)
(4.32606e-08 4.78662e-09 0)
(4.23732e-08 4.78646e-09 0)
(4.17874e-08 4.91254e-09 0)
(4.13817e-08 5.08211e-09 0)
(4.05838e-08 5.0449e-09 0)
(3.19942e-08 2.16836e-08 -1.45679e-21)
(0 0 0)
(0 0 0)
(0 0 0)
(0 0 0)
(0 0 0)
(0 0 0)
(0 0 0)
(0 0 0)
(0 0 0)
(0 0 0)
(7.27445e-07 1.86715e-07 -9.92834e-21)
(6.73737e-07 2.20519e-07 0)
(6.3654e-07 2.43885e-07 0)
(6.09641e-07 2.62415e-07 0)
(5.90427e-07 2.77254e-07 0)
(5.76918e-07 2.89776e-07 0)
(5.6772e-07 3.00592e-07 0)
(5.61847e-07 3.10216e-07 0)
(5.58543e-07 3.1896e-07 0)
(5.57252e-07 3.27033e-07 0)
(5.58008e-07 3.3569e-07 0)
(6.64473e-07 1.70503e-07 -1.11406e-20)
(6.07674e-07 1.97206e-07 0)
(5.68626e-07 2.15448e-07 0)
(5.40551e-07 2.30028e-07 0)
(5.20549e-07 2.41657e-07 0)
(5.06462e-07 2.51497e-07 0)
(4.96782e-07 2.59991e-07 0)
(4.90461e-07 2.67573e-07 0)
(4.86677e-07 2.74458e-07 0)
(4.84855e-07 2.80892e-07 0)
(4.75562e-07 2.80632e-07 0)
(5.9891e-07 1.54722e-07 -1.20173e-20)
(5.40668e-07 1.73441e-07 0)
(5.00819e-07 1.8614e-07 0)
(4.72325e-07 1.96591e-07 0)
(4.52107e-07 2.04978e-07 0)
(4.37885e-07 2.12191e-07 0)
(4.28069e-07 2.1846e-07 0)
(4.2156e-07 2.24108e-07 0)
(4.17514e-07 2.2924e-07 0)
(4.15309e-07 2.34092e-07 0)
(4.07042e-07 2.33086e-07 0)
(5.31021e-07 1.39539e-07 -1.2417e-20)
(4.73117e-07 1.49776e-07 0)
(4.33619e-07 1.56717e-07 0)
(4.05546e-07 1.62998e-07 0)
(3.85743e-07 1.68218e-07 0)
(3.7187e-07 1.72946e-07 0)
(3.62299e-07 1.77174e-07 0)
(3.55909e-07 1.8109e-07 0)
(3.51856e-07 1.84684e-07 0)
(3.49508e-07 1.88136e-07 0)
(3.42432e-07 1.867e-07 0)
(4.61062e-07 1.25067e-07 -1.2249e-20)
(4.05308e-07 1.26744e-07 0)
(3.67379e-07 1.27954e-07 0)
(3.40626e-07 1.30188e-07 0)
(3.21918e-07 1.32432e-07 0)
(3.08909e-07 1.34908e-07 0)
(2.9998e-07 1.37345e-07 0)
(2.94015e-07 1.39778e-07 0)
(2.90202e-07 1.42082e-07 0)
(2.87919e-07 1.44359e-07 0)
(2.82072e-07 1.42764e-07 0)
(3.89366e-07 1.11328e-07 -1.14864e-20)
(3.37467e-07 1.04792e-07 0)
(3.02329e-07 1.00571e-07 0)
(2.77837e-07 9.90837e-08 0)
(2.60933e-07 9.86943e-08 0)
(2.49317e-07 9.92612e-08 0)
(2.41416e-07 1.00237e-07 0)
(2.36162e-07 1.01496e-07 0)
(2.328e-07 1.028e-07 0)
(2.30745e-07 1.04164e-07 0)
(2.26097e-07 1.02652e-07 0)
(3.16167e-07 9.81929e-08 -1.01637e-20)
(2.69628e-07 8.4222e-08 0)
(2.38525e-07 7.51793e-08 0)
(2.17274e-07 7.05586e-08 0)
(2.02906e-07 6.80692e-08 0)
(1.932e-07 6.71981e-08 0)
(1.86687e-07 6.71206e-08 0)
(1.82391e-07 6.75602e-08 0)
(1.79648e-07 6.81777e-08 0)
(1.77943e-07 6.89103e-08 0)
(1.74416e-07 6.76833e-08 0)
(2.42092e-07 8.52676e-08 -8.38994e-21)
(2.01896e-07 6.50459e-08 0)
(1.76052e-07 5.22223e-08 0)
(1.59043e-07 4.54355e-08 0)
(1.47902e-07 4.16307e-08 0)
(1.40551e-07 3.99377e-08 0)
(1.35699e-07 3.92876e-08 0)
(1.32529e-07 3.92861e-08 0)
(1.30508e-07 3.95321e-08 0)
(1.29227e-07 3.99074e-08 0)
(1.26718e-07 3.91006e-08 0)
(1.67572e-07 7.12989e-08 -6.29572e-21)
(1.34008e-07 4.66129e-08 0)
(1.14888e-07 3.18295e-08 0)
(1.03125e-07 2.44382e-08 0)
(9.57857e-08 2.0442e-08 0)
(9.1099e-08 1.86779e-08 0)
(8.80553e-08 1.7959e-08 0)
(8.60805e-08 1.78595e-08 0)
(8.48118e-08 1.799e-08 0)
(8.39796e-08 1.82218e-08 0)
(8.23742e-08 1.78669e-08 0)
(9.70395e-08 5.35694e-08 -4.04615e-21)
(6.65443e-08 2.76345e-08 0)
(5.58268e-08 1.46932e-08 0)
(5.00851e-08 9.03405e-09 0)
(4.6713e-08 6.27176e-09 0)
(4.46195e-08 5.17583e-09 0)
(4.32606e-08 4.78662e-09 0)
(4.23732e-08 4.78646e-09 0)
(4.17874e-08 4.91254e-09 0)
(4.13817e-08 5.08211e-09 0)
(4.05838e-08 5.0449e-09 0)
(3.19942e-08 2.16836e-08 -1.45679e-21)
(0 0 0)
(0 0 0)
(0 0 0)
(0 0 0)
(0 0 0)
(0 0 0)
(0 0 0)
(0 0 0)
(0 0 0)
(0 0 0)
(1.18105e-06 3.14028e-07 -2.4251e-21)
(1.18971e-06 3.46134e-07 -1.64683e-21)
(1.18887e-06 3.87591e-07 -1.79631e-21)
(1.18828e-06 4.25889e-07 -1.94519e-21)
(1.18903e-06 4.60881e-07 -2.09329e-21)
(1.19156e-06 4.92925e-07 -2.24076e-21)
(1.19603e-06 5.22471e-07 -2.38771e-21)
(1.20244e-06 5.49988e-07 -2.53428e-21)
(1.21072e-06 5.75869e-07 -2.68059e-21)
(1.2207e-06 6.00489e-07 -2.82674e-21)
(1.23226e-06 6.24006e-07 -2.93236e-21)
(1.15463e-06 3.01981e-07 -3.34402e-21)
(1.15126e-06 3.45316e-07 0)
(1.14842e-06 3.86578e-07 0)
(1.14694e-06 4.24354e-07 0)
(1.14725e-06 4.58584e-07 0)
(1.14951e-06 4.89692e-07 0)
(1.1537e-06 5.18178e-07 0)
(1.15974e-06 5.44552e-07 0)
(1.1675e-06 5.69235e-07 0)
(1.17682e-06 5.92628e-07 0)
(1.18823e-06 6.15046e-07 0)
(1.11883e-06 2.9718e-07 -3.4648e-21)
(1.11154e-06 3.41593e-07 0)
(1.10558e-06 3.82552e-07 0)
(1.1018e-06 4.19569e-07 0)
(1.10038e-06 4.52797e-07 0)
(1.10129e-06 4.82781e-07 0)
(1.10434e-06 5.10069e-07 0)
(1.10932e-06 5.35202e-07 0)
(1.11606e-06 5.58617e-07 0)
(1.12431e-06 5.80738e-07 0)
(1.1355e-06 6.02119e-07 0)
(1.08094e-06 2.88959e-07 -3.5975e-21)
(1.0689e-06 3.35078e-07 0)
(1.05923e-06 3.75606e-07 0)
(1.05253e-06 4.11559e-07 0)
(1.04878e-06 4.4344e-07 0)
(1.04779e-06 4.71991e-07 0)
(1.04923e-06 4.9783e-07 0)
(1.05277e-06 5.21524e-07 0)
(1.05817e-06 5.4352e-07 0)
(1.0651e-06 5.64251e-07 0)
(1.07601e-06 5.84634e-07 0)
(1.04027e-06 2.78144e-07 -3.83313e-21)
(1.02265e-06 3.25871e-07 0)
(1.00887e-06 3.65739e-07 0)
(9.989e-07 4.00349e-07 0)
(9.92546e-07 4.30589e-07 0)
(9.89389e-07 4.57433e-07 0)
(9.88971e-07 4.81577e-07 0)
(9.90866e-07 5.03621e-07 0)
(9.94746e-07 5.24021e-07 0)
(1.00022e-06 5.43208e-07 0)
(1.01088e-06 5.62598e-07 0)
(9.96417e-07 2.65309e-07 -4.26598e-21)
(9.72548e-07 3.14006e-07 0)
(9.5439e-07 3.52803e-07 0)
(9.41054e-07 3.85733e-07 0)
(9.32024e-07 4.14033e-07 0)
(9.26653e-07 4.3891e-07 0)
(9.24334e-07 4.61133e-07 0)
(9.24538e-07 4.81332e-07 0)
(9.26871e-07 4.99968e-07 0)
(9.30868e-07 5.17465e-07 0)
(9.41349e-07 5.35883e-07 0)
(9.49216e-07 2.5098e-07 -4.9642e-21)
(9.18692e-07 2.99582e-07 0)
(8.96086e-07 3.3674e-07 0)
(8.79422e-07 3.67611e-07 0)
(8.67795e-07 3.93695e-07 0)
(8.60291e-07 4.16387e-07 0)
(8.56148e-07 4.36508e-07 0)
(8.54732e-07 4.54706e-07 0)
(8.55582e-07 4.71446e-07 0)
(8.58172e-07 4.8713e-07 0)
(8.6857e-07 5.04608e-07 0)
(8.98628e-07 2.35591e-07 -5.94707e-21)
(8.61401e-07 2.82744e-07 0)
(8.34461e-07 3.17571e-07 0)
(8.14648e-07 3.45968e-07 0)
(8.00614e-07 3.6957e-07 0)
(7.91161e-07 3.89892e-07 0)
(7.8536e-07 4.07773e-07 0)
(7.82477e-07 4.23859e-07 0)
(7.81982e-07 4.38609e-07 0)
(7.833e-07 4.52393e-07 0)
(7.93722e-07 4.68977e-07 0)
(8.44713e-07 2.19533e-07 -7.17469e-21)
(8.01129e-07 2.63728e-07 0)
(7.70174e-07 2.95471e-07 0)
(7.47522e-07 3.2097e-07 0)
(7.31365e-07 3.41846e-07 0)
(7.2022e-07 3.59653e-07 0)
(7.12992e-07 3.75202e-07 0)
(7.08851e-07 3.89117e-07 0)
(7.07193e-07 4.01828e-07 0)
(7.07419e-07 4.13666e-07 0)
(7.17972e-07 4.29389e-07 0)
(7.87594e-07 2.03142e-07 -8.54986e-21)
(7.38394e-07 2.42851e-07 0)
(7.03954e-07 2.70754e-07 0)
(6.78899e-07 2.92948e-07 0)
(6.60988e-07 3.10888e-07 0)
(6.48471e-07 3.26078e-07 0)
(6.40095e-07 3.39253e-07 0)
(6.34943e-07 3.5099e-07 0)
(6.3234e-07 3.61672e-07 0)
(6.31697e-07 3.71542e-07 0)
(6.4243e-07 3.86411e-07 0)
(1.18105e-06 3.14028e-07 -2.4251e-21)
(1.18971e-06 3.46134e-07 -1.64683e-21)
(1.18887e-06 3.87591e-07 -1.79631e-21)
(1.18828e-06 4.25889e-07 -1.94519e-21)
(1.18903e-06 4.60881e-07 -2.09329e-21)
(1.19156e-06 4.92925e-07 -2.24076e-21)
(1.19603e-06 5.22471e-07 -2.38771e-21)
(1.20244e-06 5.49988e-07 -2.53428e-21)
(1.21072e-06 5.75869e-07 -2.68059e-21)
(1.2207e-06 6.00489e-07 -2.82674e-21)
(1.23226e-06 6.24006e-07 -2.93236e-21)
(1.15463e-06 3.01981e-07 -3.34402e-21)
(1.15126e-06 3.45316e-07 0)
(1.14842e-06 3.86578e-07 0)
(1.14694e-06 4.24354e-07 0)
(1.14725e-06 4.58584e-07 0)
(1.14951e-06 4.89692e-07 0)
(1.1537e-06 5.18178e-07 0)
(1.15974e-06 5.44552e-07 0)
(1.1675e-06 5.69235e-07 0)
(1.17682e-06 5.92628e-07 0)
(1.18823e-06 6.15046e-07 0)
(1.11883e-06 2.9718e-07 -3.4648e-21)
(1.11154e-06 3.41593e-07 0)
(1.10558e-06 3.82552e-07 0)
(1.1018e-06 4.19569e-07 0)
(1.10038e-06 4.52797e-07 0)
(1.10129e-06 4.82781e-07 0)
(1.10434e-06 5.10069e-07 0)
(1.10932e-06 5.35202e-07 0)
(1.11606e-06 5.58617e-07 0)
(1.12431e-06 5.80738e-07 0)
(1.1355e-06 6.02119e-07 0)
(1.08094e-06 2.88959e-07 -3.5975e-21)
(1.0689e-06 3.35078e-07 0)
(1.05923e-06 3.75606e-07 0)
(1.05253e-06 4.11559e-07 0)
(1.04878e-06 4.4344e-07 0)
(1.04779e-06 4.71991e-07 0)
(1.04923e-06 4.9783e-07 0)
(1.05277e-06 5.21524e-07 0)
(1.05817e-06 5.4352e-07 0)
(1.0651e-06 5.64251e-07 0)
(1.07601e-06 5.84634e-07 0)
(1.04027e-06 2.78144e-07 -3.83313e-21)
(1.02265e-06 3.25871e-07 0)
(1.00887e-06 3.65739e-07 0)
(9.989e-07 4.00349e-07 0)
(9.92546e-07 4.30589e-07 0)
(9.89389e-07 4.57433e-07 0)
(9.88971e-07 4.81577e-07 0)
(9.90866e-07 5.03621e-07 0)
(9.94746e-07 5.24021e-07 0)
(1.00022e-06 5.43208e-07 0)
(1.01088e-06 5.62598e-07 0)
(9.96417e-07 2.65309e-07 -4.26598e-21)
(9.72548e-07 3.14006e-07 0)
(9.5439e-07 3.52803e-07 0)
(9.41054e-07 3.85733e-07 0)
(9.32024e-07 4.14033e-07 0)
(9.26653e-07 4.3891e-07 0)
(9.24334e-07 4.61133e-07 0)
(9.24538e-07 4.81332e-07 0)
(9.26871e-07 4.99968e-07 0)
(9.30868e-07 5.17465e-07 0)
(9.41349e-07 5.35883e-07 0)
(9.49216e-07 2.5098e-07 -4.9642e-21)
(9.18692e-07 2.99582e-07 0)
(8.96086e-07 3.3674e-07 0)
(8.79422e-07 3.67611e-07 0)
(8.67795e-07 3.93695e-07 0)
(8.60291e-07 4.16387e-07 0)
(8.56148e-07 4.36508e-07 0)
(8.54732e-07 4.54706e-07 0)
(8.55582e-07 4.71446e-07 0)
(8.58172e-07 4.8713e-07 0)
(8.6857e-07 5.04608e-07 0)
(8.98628e-07 2.35591e-07 -5.94707e-21)
(8.61401e-07 2.82744e-07 0)
(8.34461e-07 3.17571e-07 0)
(8.14648e-07 3.45968e-07 0)
(8.00614e-07 3.6957e-07 0)
(7.91161e-07 3.89892e-07 0)
(7.8536e-07 4.07773e-07 0)
(7.82477e-07 4.23859e-07 0)
(7.81982e-07 4.38609e-07 0)
(7.833e-07 4.52393e-07 0)
(7.93722e-07 4.68977e-07 0)
(8.44713e-07 2.19533e-07 -7.17469e-21)
(8.01129e-07 2.63728e-07 0)
(7.70174e-07 2.95471e-07 0)
(7.47522e-07 3.2097e-07 0)
(7.31365e-07 3.41846e-07 0)
(7.2022e-07 3.59653e-07 0)
(7.12992e-07 3.75202e-07 0)
(7.08851e-07 3.89117e-07 0)
(7.07193e-07 4.01828e-07 0)
(7.07419e-07 4.13666e-07 0)
(7.17972e-07 4.29389e-07 0)
(7.87594e-07 2.03142e-07 -8.54986e-21)
(7.38394e-07 2.42851e-07 0)
(7.03954e-07 2.70754e-07 0)
(6.78899e-07 2.92948e-07 0)
(6.60988e-07 3.10888e-07 0)
(6.48471e-07 3.26078e-07 0)
(6.40095e-07 3.39253e-07 0)
(6.34943e-07 3.5099e-07 0)
(6.3234e-07 3.61672e-07 0)
(6.31697e-07 3.71542e-07 0)
(6.4243e-07 3.86411e-07 0)
(1.24542e-06 6.46747e-07 -2.95641e-21)
(1.25994e-06 6.69061e-07 -2.93947e-21)
(1.27559e-06 6.90986e-07 -2.9227e-21)
(1.29227e-06 7.12647e-07 -2.90612e-21)
(1.30986e-06 7.34149e-07 -2.88972e-21)
(1.32827e-06 7.55574e-07 -2.87348e-21)
(1.3474e-06 7.76995e-07 -2.85739e-21)
(1.36718e-06 7.98469e-07 -2.84145e-21)
(1.38752e-06 8.20048e-07 -2.82564e-21)
(1.40837e-06 8.41771e-07 -2.80996e-21)
(1.42965e-06 8.63675e-07 -2.7944e-21)
(1.45131e-06 8.85787e-07 -2.77895e-21)
(1.47329e-06 9.08131e-07 -2.76362e-21)
(1.49553e-06 9.30722e-07 -2.74838e-21)
(1.51799e-06 9.53572e-07 -2.73326e-21)
(1.5406e-06 9.7668e-07 -2.71824e-21)
(1.5633e-06 1.00003e-06 -2.70333e-21)
(1.58604e-06 1.0236e-06 -2.68853e-21)
(1.60873e-06 1.04733e-06 -2.67384e-21)
(1.61648e-06 1.06203e-06 1.18184e-22)
(1.20231e-06 6.3703e-07 0)
(1.21808e-06 6.58801e-07 0)
(1.23477e-06 6.80235e-07 0)
(1.25228e-06 7.01465e-07 0)
(1.27054e-06 7.2259e-07 0)
(1.28947e-06 7.4369e-07 0)
(1.30901e-06 7.64835e-07 0)
(1.3291e-06 7.86078e-07 0)
(1.34968e-06 8.07466e-07 0)
(1.37069e-06 8.29039e-07 0)
(1.39208e-06 8.50829e-07 0)
(1.41381e-06 8.72863e-07 0)
(1.43583e-06 8.95162e-07 0)
(1.45809e-06 9.17742e-07 0)
(1.48056e-06 9.40611e-07 0)
(1.50319e-06 9.63769e-07 0)
(1.52595e-06 9.87204e-07 0)
(1.54878e-06 1.01088e-06 0)
(1.57165e-06 1.03475e-06 0)
(1.59443e-06 1.05867e-06 2.92352e-21)
(1.15096e-06 6.23614e-07 0)
(1.16866e-06 6.45195e-07 0)
(1.18702e-06 6.66457e-07 0)
(1.20596e-06 6.8754e-07 0)
(1.22546e-06 7.08546e-07 0)
(1.24545e-06 7.29554e-07 0)
(1.2659e-06 7.50634e-07 0)
(1.28677e-06 7.71841e-07 0)
(1.30803e-06 7.93221e-07 0)
(1.32962e-06 8.14813e-07 0)
(1.35153e-06 8.36648e-07 0)
(1.37372e-06 8.58754e-07 0)
(1.39615e-06 8.81151e-07 0)
(1.4188e-06 9.03857e-07 0)
(1.44164e-06 9.2688e-07 0)
(1.46464e-06 9.50223e-07 0)
(1.48777e-06 9.73879e-07 0)
(1.51099e-06 9.97823e-07 0)
(1.53426e-06 1.02201e-06 0)
(1.55736e-06 1.04633e-06 2.94992e-21)
(1.09319e-06 6.05939e-07 0)
(1.11328e-06 6.2773e-07 0)
(1.13376e-06 6.49194e-07 0)
(1.15458e-06 6.70467e-07 0)
(1.17573e-06 6.91661e-07 0)
(1.19718e-06 7.12855e-07 0)
(1.21893e-06 7.34124e-07 0)
(1.24095e-06 7.55524e-07 0)
(1.26322e-06 7.77106e-07 0)
(1.28574e-06 7.98908e-07 0)
(1.30848e-06 8.20967e-07 0)
(1.33142e-06 8.43309e-07 0)
(1.35455e-06 8.65959e-07 0)
(1.37786e-06 8.88936e-07 0)
(1.40132e-06 9.12253e-07 0)
(1.42492e-06 9.3592e-07 0)
(1.44864e-06 9.59939e-07 0)
(1.47244e-06 9.84305e-07 0)
(1.4963e-06 1.009e-06 0)
(1.51988e-06 1.03394e-06 3.00167e-21)
(1.03003e-06 5.83988e-07 0)
(1.05289e-06 6.0636e-07 0)
(1.07587e-06 6.28379e-07 0)
(1.09891e-06 6.50163e-07 0)
(1.12206e-06 6.71842e-07 0)
(1.14531e-06 6.93492e-07 0)
(1.16866e-06 7.15199e-07 0)
(1.19213e-06 7.37021e-07 0)
(1.21572e-06 7.59014e-07 0)
(1.23942e-06 7.81222e-07 0)
(1.26324e-06 8.03683e-07 0)
(1.28718e-06 8.2643e-07 0)
(1.31124e-06 8.4949e-07 0)
(1.33542e-06 8.72888e-07 0)
(1.3597e-06 8.96643e-07 0)
(1.38409e-06 9.20775e-07 0)
(1.40857e-06 9.45299e-07 0)
(1.43312e-06 9.70232e-07 0)
(1.4577e-06 9.95586e-07 0)
(1.48194e-06 1.02131e-06 3.07812e-21)
(9.62689e-07 5.57643e-07 0)
(9.88588e-07 5.80976e-07 0)
(1.01433e-06 6.03911e-07 0)
(1.03987e-06 6.26535e-07 0)
(1.06527e-06 6.49004e-07 0)
(1.09056e-06 6.71391e-07 0)
(1.11577e-06 6.93793e-07 0)
(1.14092e-06 7.16274e-07 0)
(1.16603e-06 7.38896e-07 0)
(1.19114e-06 7.6171e-07 0)
(1.21624e-06 7.84761e-07 0)
(1.24137e-06 8.08084e-07 0)
(1.26653e-06 8.31716e-07 0)
(1.29174e-06 8.55685e-07 0)
(1.317e-06 8.80021e-07 0)
(1.34231e-06 9.04752e-07 0)
(1.36768e-06 9.29909e-07 0)
(1.39309e-06 9.55533e-07 0)
(1.41853e-06 9.81658e-07 0)
(1.44356e-06 1.00826e-06 3.17793e-21)
(8.92244e-07 5.27018e-07 0)
(9.21363e-07 5.51674e-07 0)
(9.50063e-07 5.7587e-07 0)
(9.78272e-07 5.99651e-07 0)
(1.00613e-06 6.23202e-07 0)
(1.03364e-06 6.46595e-07 0)
(1.06088e-06 6.69941e-07 0)
(1.08788e-06 6.93311e-07 0)
(1.1147e-06 7.16776e-07 0)
(1.14136e-06 7.40395e-07 0)
(1.1679e-06 7.64218e-07 0)
(1.19436e-06 7.88291e-07 0)
(1.22075e-06 8.12652e-07 0)
(1.24711e-06 8.37341e-07 0)
(1.27346e-06 8.62393e-07 0)
(1.2998e-06 8.8785e-07 0)
(1.32615e-06 9.13755e-07 0)
(1.35252e-06 9.40168e-07 0)
(1.3789e-06 9.67144e-07 0)
(1.40486e-06 9.94695e-07 3.29945e-21)
(8.19794e-07 4.9231e-07 0)
(8.52207e-07 5.18622e-07 0)
(8.8396e-07 5.44399e-07 0)
(9.1495e-07 5.69636e-07 0)
(9.45367e-07 5.94545e-07 0)
(9.75223e-07 6.19206e-07 0)
(1.00462e-06 6.43736e-07 0)
(1.0336e-06 6.68219e-07 0)
(1.06223e-06 6.92736e-07 0)
(1.09057e-06 7.17352e-07 0)
(1.11866e-06 7.42128e-07 0)
(1.14654e-06 7.67115e-07 0)
(1.17426e-06 7.9236e-07 0)
(1.20186e-06 8.17909e-07 0)
(1.22937e-06 8.43807e-07 0)
(1.25681e-06 8.70103e-07 0)
(1.28422e-06 8.96853e-07 0)
(1.31161e-06 9.24132e-07 0)
(1.33899e-06 9.52013e-07 0)
(1.36599e-06 9.80539e-07 3.44066e-21)
(7.46423e-07 4.53878e-07 0)
(7.82092e-07 4.82143e-07 0)
(8.16902e-07 5.0977e-07 0)
(8.50706e-07 5.36729e-07 0)
(8.83726e-07 5.63235e-07 0)
(9.15985e-07 5.89391e-07 0)
(9.47597e-07 6.15321e-07 0)
(9.78625e-07 6.41122e-07 0)
(1.00915e-06 6.66883e-07 0)
(1.03923e-06 6.9268e-07 0)
(1.06893e-06 7.1858e-07 0)
(1.0983e-06 7.44642e-07 0)
(1.12741e-06 7.70919e-07 0)
(1.1563e-06 7.97465e-07 0)
(1.18502e-06 8.24329e-07 0)
(1.21361e-06 8.5157e-07 0)
(1.24211e-06 8.7925e-07 0)
(1.27056e-06 9.07456e-07 0)
(1.29899e-06 9.36271e-07 0)
(1.32712e-06 9.65772e-07 3.59933e-21)
(6.73114e-07 4.12233e-07 0)
(7.1186e-07 4.42655e-07 0)
(7.49603e-07 4.72316e-07 0)
(7.86186e-07 5.01226e-07 0)
(8.21799e-07 5.29546e-07 0)
(8.56484e-07 5.57407e-07 0)
(8.90345e-07 5.84932e-07 0)
(9.23459e-07 6.12235e-07 0)
(9.55909e-07 6.39414e-07 0)
(9.87773e-07 6.66554e-07 0)
(1.01912e-06 6.93731e-07 0)
(1.05003e-06 7.21012e-07 0)
(1.08056e-06 7.48456e-07 0)
(1.11077e-06 7.76121e-07 0)
(1.14072e-06 8.04061e-07 0)
(1.17048e-06 8.32339e-07 0)
(1.20008e-06 8.61022e-07 0)
(1.2296e-06 8.902e-07 0)
(1.25909e-06 9.19957e-07 0)
(1.28841e-06 9.50419e-07 3.77296e-21)
(6.08122e-07 3.74193e-07 0)
(6.49148e-07 4.06471e-07 0)
(6.89068e-07 4.37784e-07 0)
(7.27795e-07 4.68343e-07 0)
(7.65444e-07 4.98241e-07 0)
(8.02067e-07 5.27615e-07 0)
(8.37748e-07 5.56581e-07 0)
(8.72562e-07 5.85251e-07 0)
(9.06595e-07 6.13726e-07 0)
(9.39925e-07 6.42095e-07 0)
(9.72632e-07 6.70436e-07 0)
(1.00479e-06 6.98819e-07 0)
(1.03648e-06 7.27306e-07 0)
(1.06776e-06 7.55955e-07 0)
(1.09871e-06 7.84822e-07 0)
(1.12939e-06 8.13967e-07 0)
(1.15987e-06 8.43454e-07 0)
(1.19023e-06 8.73369e-07 0)
(1.22055e-06 9.03789e-07 0)
(1.25085e-06 9.34883e-07 3.91837e-21)
(1.24542e-06 6.46747e-07 -2.95641e-21)
(1.25994e-06 6.69061e-07 -2.93947e-21)
(1.27559e-06 6.90986e-07 -2.9227e-21)
(1.29227e-06 7.12647e-07 -2.90612e-21)
(1.30986e-06 7.34149e-07 -2.88972e-21)
(1.32827e-06 7.55574e-07 -2.87348e-21)
(1.3474e-06 7.76995e-07 -2.85739e-21)
(1.36718e-06 7.98469e-07 -2.84145e-21)
(1.38752e-06 8.20048e-07 -2.82564e-21)
(1.40837e-06 8.41771e-07 -2.80996e-21)
(1.42965e-06 8.63675e-07 -2.7944e-21)
(1.45131e-06 8.85787e-07 -2.77895e-21)
(1.47329e-06 9.08131e-07 -2.76362e-21)
(1.49553e-06 9.30722e-07 -2.74838e-21)
(1.51799e-06 9.53572e-07 -2.73326e-21)
(1.5406e-06 9.7668e-07 -2.71824e-21)
(1.5633e-06 1.00003e-06 -2.70333e-21)
(1.58604e-06 1.0236e-06 -2.68853e-21)
(1.60873e-06 1.04733e-06 -2.67384e-21)
(1.61648e-06 1.06203e-06 1.18184e-22)
(1.20231e-06 6.3703e-07 0)
(1.21808e-06 6.58801e-07 0)
(1.23477e-06 6.80235e-07 0)
(1.25228e-06 7.01465e-07 0)
(1.27054e-06 7.2259e-07 0)
(1.28947e-06 7.4369e-07 0)
(1.30901e-06 7.64835e-07 0)
(1.3291e-06 7.86078e-07 0)
(1.34968e-06 8.07466e-07 0)
(1.37069e-06 8.29039e-07 0)
(1.39208e-06 8.50829e-07 0)
(1.41381e-06 8.72863e-07 0)
(1.43583e-06 8.95162e-07 0)
(1.45809e-06 9.17742e-07 0)
(1.48056e-06 9.40611e-07 0)
(1.50319e-06 9.63769e-07 0)
(1.52595e-06 9.87204e-07 0)
(1.54878e-06 1.01088e-06 0)
(1.57165e-06 1.03475e-06 0)
(1.59443e-06 1.05867e-06 2.92352e-21)
(1.15096e-06 6.23614e-07 0)
(1.16866e-06 6.45195e-07 0)
(1.18702e-06 6.66457e-07 0)
(1.20596e-06 6.8754e-07 0)
(1.22546e-06 7.08546e-07 0)
(1.24545e-06 7.29554e-07 0)
(1.2659e-06 7.50634e-07 0)
(1.28677e-06 7.71841e-07 0)
(1.30803e-06 7.93221e-07 0)
(1.32962e-06 8.14813e-07 0)
(1.35153e-06 8.36648e-07 0)
(1.37372e-06 8.58754e-07 0)
(1.39615e-06 8.81151e-07 0)
(1.4188e-06 9.03857e-07 0)
(1.44164e-06 9.2688e-07 0)
(1.46464e-06 9.50223e-07 0)
(1.48777e-06 9.73879e-07 0)
(1.51099e-06 9.97823e-07 0)
(1.53426e-06 1.02201e-06 0)
(1.55736e-06 1.04633e-06 2.94992e-21)
(1.09319e-06 6.05939e-07 0)
(1.11328e-06 6.2773e-07 0)
(1.13376e-06 6.49194e-07 0)
(1.15458e-06 6.70467e-07 0)
(1.17573e-06 6.91661e-07 0)
(1.19718e-06 7.12855e-07 0)
(1.21893e-06 7.34124e-07 0)
(1.24095e-06 7.55524e-07 0)
(1.26322e-06 7.77106e-07 0)
(1.28574e-06 7.98908e-07 0)
(1.30848e-06 8.20967e-07 0)
(1.33142e-06 8.43309e-07 0)
(1.35455e-06 8.65959e-07 0)
(1.37786e-06 8.88936e-07 0)
(1.40132e-06 9.12253e-07 0)
(1.42492e-06 9.3592e-07 0)
(1.44864e-06 9.59939e-07 0)
(1.47244e-06 9.84305e-07 0)
(1.4963e-06 1.009e-06 0)
(1.51988e-06 1.03394e-06 3.00167e-21)
(1.03003e-06 5.83988e-07 0)
(1.05289e-06 6.0636e-07 0)
(1.07587e-06 6.28379e-07 0)
(1.09891e-06 6.50163e-07 0)
(1.12206e-06 6.71842e-07 0)
(1.14531e-06 6.93492e-07 0)
(1.16866e-06 7.15199e-07 0)
(1.19213e-06 7.37021e-07 0)
(1.21572e-06 7.59014e-07 0)
(1.23942e-06 7.81222e-07 0)
(1.26324e-06 8.03683e-07 0)
(1.28718e-06 8.2643e-07 0)
(1.31124e-06 8.4949e-07 0)
(1.33542e-06 8.72888e-07 0)
(1.3597e-06 8.96643e-07 0)
(1.38409e-06 9.20775e-07 0)
(1.40857e-06 9.45299e-07 0)
(1.43312e-06 9.70232e-07 0)
(1.4577e-06 9.95586e-07 0)
(1.48194e-06 1.02131e-06 3.07812e-21)
(9.62689e-07 5.57643e-07 0)
(9.88588e-07 5.80976e-07 0)
(1.01433e-06 6.03911e-07 0)
(1.03987e-06 6.26535e-07 0)
(1.06527e-06 6.49004e-07 0)
(1.09056e-06 6.71391e-07 0)
(1.11577e-06 6.93793e-07 0)
(1.14092e-06 7.16274e-07 0)
(1.16603e-06 7.38896e-07 0)
(1.19114e-06 7.6171e-07 0)
(1.21624e-06 7.84761e-07 0)
(1.24137e-06 8.08084e-07 0)
(1.26653e-06 8.31716e-07 0)
(1.29174e-06 8.55685e-07 0)
(1.317e-06 8.80021e-07 0)
(1.34231e-06 9.04752e-07 0)
(1.36768e-06 9.29909e-07 0)
(1.39309e-06 9.55533e-07 0)
(1.41853e-06 9.81658e-07 0)
(1.44356e-06 1.00826e-06 3.17793e-21)
(8.92244e-07 5.27018e-07 0)
(9.21363e-07 5.51674e-07 0)
(9.50063e-07 5.7587e-07 0)
(9.78272e-07 5.99651e-07 0)
(1.00613e-06 6.23202e-07 0)
(1.03364e-06 6.46595e-07 0)
(1.06088e-06 6.69941e-07 0)
(1.08788e-06 6.93311e-07 0)
(1.1147e-06 7.16776e-07 0)
(1.14136e-06 7.40395e-07 0)
(1.1679e-06 7.64218e-07 0)
(1.19436e-06 7.88291e-07 0)
(1.22075e-06 8.12652e-07 0)
(1.24711e-06 8.37341e-07 0)
(1.27346e-06 8.62393e-07 0)
(1.2998e-06 8.8785e-07 0)
(1.32615e-06 9.13755e-07 0)
(1.35252e-06 9.40168e-07 0)
(1.3789e-06 9.67144e-07 0)
(1.40486e-06 9.94695e-07 3.29945e-21)
(8.19794e-07 4.9231e-07 0)
(8.52207e-07 5.18622e-07 0)
(8.8396e-07 5.44399e-07 0)
(9.1495e-07 5.69636e-07 0)
(9.45367e-07 5.94545e-07 0)
(9.75223e-07 6.19206e-07 0)
(1.00462e-06 6.43736e-07 0)
(1.0336e-06 6.68219e-07 0)
(1.06223e-06 6.92736e-07 0)
(1.09057e-06 7.17352e-07 0)
(1.11866e-06 7.42128e-07 0)
(1.14654e-06 7.67115e-07 0)
(1.17426e-06 7.9236e-07 0)
(1.20186e-06 8.17909e-07 0)
(1.22937e-06 8.43807e-07 0)
(1.25681e-06 8.70103e-07 0)
(1.28422e-06 8.96853e-07 0)
(1.31161e-06 9.24132e-07 0)
(1.33899e-06 9.52013e-07 0)
(1.36599e-06 9.80539e-07 3.44066e-21)
(7.46423e-07 4.53878e-07 0)
(7.82092e-07 4.82143e-07 0)
(8.16902e-07 5.0977e-07 0)
(8.50706e-07 5.36729e-07 0)
(8.83726e-07 5.63235e-07 0)
(9.15985e-07 5.89391e-07 0)
(9.47597e-07 6.15321e-07 0)
(9.78625e-07 6.41122e-07 0)
(1.00915e-06 6.66883e-07 0)
(1.03923e-06 6.9268e-07 0)
(1.06893e-06 7.1858e-07 0)
(1.0983e-06 7.44642e-07 0)
(1.12741e-06 7.70919e-07 0)
(1.1563e-06 7.97465e-07 0)
(1.18502e-06 8.24329e-07 0)
(1.21361e-06 8.5157e-07 0)
(1.24211e-06 8.7925e-07 0)
(1.27056e-06 9.07456e-07 0)
(1.29899e-06 9.36271e-07 0)
(1.32712e-06 9.65772e-07 3.59933e-21)
(6.73114e-07 4.12233e-07 0)
(7.1186e-07 4.42655e-07 0)
(7.49603e-07 4.72316e-07 0)
(7.86186e-07 5.01226e-07 0)
(8.21799e-07 5.29546e-07 0)
(8.56484e-07 5.57407e-07 0)
(8.90345e-07 5.84932e-07 0)
(9.23459e-07 6.12235e-07 0)
(9.55909e-07 6.39414e-07 0)
(9.87773e-07 6.66554e-07 0)
(1.01912e-06 6.93731e-07 0)
(1.05003e-06 7.21012e-07 0)
(1.08056e-06 7.48456e-07 0)
(1.11077e-06 7.76121e-07 0)
(1.14072e-06 8.04061e-07 0)
(1.17048e-06 8.32339e-07 0)
(1.20008e-06 8.61022e-07 0)
(1.2296e-06 8.902e-07 0)
(1.25909e-06 9.19957e-07 0)
(1.28841e-06 9.50419e-07 3.77296e-21)
(6.08122e-07 3.74193e-07 0)
(6.49148e-07 4.06471e-07 0)
(6.89068e-07 4.37784e-07 0)
(7.27795e-07 4.68343e-07 0)
(7.65444e-07 4.98241e-07 0)
(8.02067e-07 5.27615e-07 0)
(8.37748e-07 5.56581e-07 0)
(8.72562e-07 5.85251e-07 0)
(9.06595e-07 6.13726e-07 0)
(9.39925e-07 6.42095e-07 0)
(9.72632e-07 6.70436e-07 0)
(1.00479e-06 6.98819e-07 0)
(1.03648e-06 7.27306e-07 0)
(1.06776e-06 7.55955e-07 0)
(1.09871e-06 7.84822e-07 0)
(1.12939e-06 8.13967e-07 0)
(1.15987e-06 8.43454e-07 0)
(1.19023e-06 8.73369e-07 0)
(1.22055e-06 9.03789e-07 0)
(1.25085e-06 9.34883e-07 3.91837e-21)
(5.11782e-07 3.11196e-07 0)
(5.61e-07 3.47754e-07 0)
(6.02789e-07 3.80811e-07 0)
(6.43463e-07 4.12866e-07 0)
(6.83001e-07 4.44235e-07 0)
(7.21471e-07 4.74979e-07 0)
(7.58912e-07 5.05211e-07 0)
(7.95394e-07 5.35031e-07 0)
(8.3098e-07 5.64534e-07 0)
(8.65746e-07 5.93809e-07 0)
(8.99764e-07 6.22935e-07 0)
(9.3311e-07 6.51986e-07 0)
(9.65858e-07 6.81022e-07 0)
(9.98082e-07 7.10103e-07 0)
(1.02985e-06 7.39281e-07 0)
(1.06125e-06 7.68608e-07 0)
(1.09233e-06 7.98135e-07 0)
(1.12319e-06 8.27919e-07 0)
(1.1539e-06 8.58031e-07 0)
(1.18457e-06 8.88531e-07 0)
(1.21527e-06 9.19579e-07 3.98235e-21)
(4.77454e-07 2.91749e-07 0)
(5.25019e-07 3.27751e-07 0)
(5.66486e-07 3.6085e-07 0)
(6.06987e-07 3.93136e-07 0)
(6.46466e-07 4.24854e-07 0)
(6.84969e-07 4.56031e-07 0)
(7.22507e-07 4.86748e-07 0)
(7.59134e-07 5.17081e-07 0)
(7.94894e-07 5.47104e-07 0)
(8.29849e-07 5.76888e-07 0)
(8.64062e-07 6.06498e-07 0)
(8.97597e-07 6.35995e-07 0)
(9.30524e-07 6.65432e-07 0)
(9.62911e-07 6.94857e-07 0)
(9.94828e-07 7.24316e-07 0)
(1.02635e-06 7.53851e-07 0)
(1.05754e-06 7.83505e-07 0)
(1.0885e-06 8.13319e-07 0)
(1.1193e-06 8.43347e-07 0)
(1.15005e-06 8.73625e-07 0)
(1.18086e-06 9.04264e-07 3.99744e-21)
(4.47049e-07 2.73128e-07 0)
(4.92826e-07 3.08551e-07 0)
(5.33535e-07 3.41533e-07 0)
(5.73495e-07 3.73904e-07 0)
(6.12576e-07 4.05847e-07 0)
(6.50806e-07 4.37352e-07 0)
(6.88168e-07 4.68469e-07 0)
(7.24693e-07 4.99245e-07 0)
(7.60408e-07 5.29733e-07 0)
(7.95361e-07 5.59983e-07 0)
(8.296e-07 5.90044e-07 0)
(8.63181e-07 6.19964e-07 0)
(8.96165e-07 6.49784e-07 0)
(9.28613e-07 6.79542e-07 0)
(9.60592e-07 7.09273e-07 0)
(9.92171e-07 7.39007e-07 0)
(1.02342e-06 7.68776e-07 0)
(1.05443e-06 7.98607e-07 0)
(1.08528e-06 8.2853e-07 0)
(1.11609e-06 8.58559e-07 0)
(1.14695e-06 8.88749e-07 4.00726e-21)
(4.19983e-07 2.5548e-07 0)
(4.63872e-07 2.90202e-07 0)
(5.03574e-07 3.2293e-07 0)
(5.42724e-07 3.55265e-07 0)
(5.81148e-07 3.87326e-07 0)
(6.1886e-07 4.19066e-07 0)
(6.55815e-07 4.50502e-07 0)
(6.92028e-07 4.81652e-07 0)
(7.27507e-07 5.12545e-07 0)
(7.62286e-07 5.43212e-07 0)
(7.964e-07 5.73685e-07 0)
(8.29894e-07 6.03995e-07 0)
(8.6282e-07 6.34172e-07 0)
(8.95232e-07 6.64241e-07 0)
(9.27191e-07 6.94225e-07 0)
(9.58762e-07 7.24145e-07 0)
(9.90014e-07 7.54014e-07 0)
(1.02102e-06 7.83849e-07 0)
(1.05189e-06 8.1365e-07 0)
(1.08273e-06 8.43409e-07 0)
(1.11361e-06 8.73135e-07 4.01144e-21)
(3.95771e-07 2.38847e-07 0)
(4.37738e-07 2.72808e-07 0)
(4.76251e-07 3.05176e-07 0)
(5.14389e-07 3.37369e-07 0)
(5.51956e-07 3.69443e-07 0)
(5.88953e-07 4.01321e-07 0)
(6.25312e-07 4.32988e-07 0)
(6.61035e-07 4.64434e-07 0)
(6.96115e-07 4.95665e-07 0)
(7.30571e-07 5.26691e-07 0)
(7.64425e-07 5.57526e-07 0)
(7.97714e-07 5.88185e-07 0)
(8.30479e-07 6.18684e-07 0)
(8.62767e-07 6.49035e-07 0)
(8.94632e-07 6.7925e-07 0)
(9.26132e-07 7.09334e-07 0)
(9.57332e-07 7.39289e-07 0)
(9.88307e-07 7.69111e-07 0)
(1.01914e-06 7.98777e-07 0)
(1.04997e-06 8.28266e-07 0)
(1.08083e-06 8.5754e-07 4.00966e-21)
(3.73912e-07 2.2322e-07 0)
(4.13979e-07 2.56372e-07 0)
(4.51188e-07 2.88301e-07 0)
(4.88179e-07 3.20265e-07 0)
(5.24744e-07 3.52266e-07 0)
(5.60874e-07 3.84197e-07 0)
(5.96489e-07 4.16014e-07 0)
(6.31578e-07 4.47684e-07 0)
(6.66122e-07 4.79186e-07 0)
(7.00127e-07 5.10511e-07 0)
(7.33607e-07 5.41654e-07 0)
(7.66588e-07 5.72615e-07 0)
(7.991e-07 6.03395e-07 0)
(8.31185e-07 6.33994e-07 0)