/*--------------------------------*- C++ -*----------------------------------*\
  =========                 |
  \\      /  F ield         | OpenFOAM: The Open Source CFD Toolbox
   \\    /   O peration     | Website:  https://openfoam.org
    \\  /    A nd           | Version:  9
     \\/     M anipulation  |
\*---------------------------------------------------------------------------*/
FoamFile
{
    format      ascii;
    class       volScalarField;
    location    "1";
    object      sigmaEq;
}
// * * * * * * * * * * * * * * * * * * * * * * * * * * * * * * * * * * * * * //

dimensions      [1 -1 -2 0 0 0 0];

internalField   nonuniform List<scalar> 
1000
(
173574
163536
160440
160087
159284
158013
156254
154037
151766
149012
202844
183253
174145
169904
166505
163392
160229
156992
153630
150450
231294
202327
186857
178282
171939
166710
161963
157516
153139
149264
258320
220487
198548
185312
175727
168172
161716
156016
150653
146117
283040
237272
209000
190944
177918
167883
159645
152663
146382
141180
305536
252557
218134
195209
178640
166070
156048
147810
140683
134837
324514
265442
225107
197546
177662
162772
151171
141844
134027
127606
342117
275847
229539
197898
175226
158515
145746
135650
127389
120551
354563
279743
227948
193898
170318
153114
140110
129827
121481
114435
369328
273502
220841
188072
166046
149641
137120
127016
118740
111571
2445.51
2118.88
5163.29
11242.4
18291.5
25714
32985.2
39955.6
46361.4
52326.6
2166.51
7383.98
16730.7
26004.6
34326.9
41761.8
48284.2
54148.8
59180.5
63959.4
5921.79
18675.4
30643.8
41364
50361.6
57855.3
63983.8
69165
73232.5
77150.8
14490.8
32741.6
46284.2
57530.3
66516.4
73707.3
79323.7
83860.8
87116
90338.8
27374.3
48812.9
63135.1
74322.8
82781.5
89294.8
94165.5
97929.9
100361
102886
44446.9
66230.4
80377.8
91028.7
98632.7
104233
108202
111091
112679
114469
65305.3
84665.2
97556.3
107170
113655
118174
121134
123076
123815
124823
89407.9
103853
114318
122336
127443
130743
132634
133589
133528
133703
116023
123561
130469
136298
139748
141688
142441
142378
141550
140935
144367
143547
145866
148885
150356
150754
150277
149120
147702
145971
57677.2
62309.8
66601.6
70475.3
73979.5
77127.2
79951.9
82472.3
84715.5
86698.2
88439.5
89951.4
91244.5
92326.3
93200.2
93872.1
94339.1
94620.6
94710.6
94669.2
67620.5
70358.1
73121.3
75665.4
78062
80275.5
82323.8
84196.3
85905.7
87450.2
88839.1
90074.8
91162.8
92106.5
92907.4
93569.5
94084.4
94454.8
94640.5
94635.7
79345.3
80323.4
81571.3
82728.1
83920.2
85077.1
86221
87317.3
88371.8
89366.3
90302.4
91171.3
91972.1
92701.1
93354.2
93926.2
94396.4
94750.4
94904.3
94838.2
91304.7
90788.9
90721.5
90633.9
90706.5
90843.3
91088.2
91387.7
91752.9
92151.7
92582.3
93027.4
93480
93928.9
94361.8
94766.1
95109.7
95369.5
95445.6
95326.8
102772
101004
99813.8
98650.9
97743.2
96957.2
96372.8
95915
95608.3
95411.6
95323.1
95320.4
95393
95523.4
95694.3
95886.7
96063.5
96199.8
96196.2
96052.3
113392
110577
108449
106366
104626
103032
101715
100570
99642.6
98881.2
98289.6
97840.1
97522.3
97316.3
97202.6
97160.6
97154.8
97159.6
97098.7
96969.2
122905
119242
116385
113527
111111
108822
106866
105110
103617
102334
101268
100392
99694.2
99156
98757.8
98479.3
98293.4
98175.7
98082.3
98001.9
131085
126763
123421
119915
116973
114130
111650
109385
107401
105655
104154
102877
101815
100953
100276
99765
99406.7
99178.2
99078.4
99078.1
137921
132984
129514
125541
122174
118878
115936
113232
110819
108669
106785
105153
103766
102609
101676
100952
100439
100116
100028
100125
143150
137961
134482
130460
126830
123281
119978
116904
114099
111564
109306
107322
105609
104157
102965
102026
101355
100937
100863
101068
145427
140565
136985
133117
129430
125830
122421
119208
116234
113510
111053
108864
106950
105308
103946
102861
102087
101610
101558
101852
141896
138993
135710
132316
128975
125667
122489
119450
116600
113956
111541
109366
107444
105781
104394
103285
102501
102036
102040
102424
139152
136739
134130
131150
128201
125180
122239
119378
116663
114113
111761
109622
107717
106058
104666
103555
102776
102327
102374
102814
135702
133937
131896
129347
126790
124080
121407
118763
116227
113818
111577
109523
107681
106068
104711
103630
102874
102457
102549
103017
131735
130511
129006
126912
124773
122414
120048
117662
115345
113120
111031
109103
107362
105833
104538
103514
102778
102438
102388
103034
127456
126724
125706
124049
122311
120307
118258
116151
114080
112068
110165
108396
106792
105377
104182
103228
102575
102232
102343
102788
122967
122657
122069
120826
119472
117823
116099
114287
112480
110706
109014
107432
105992
104718
103642
102783
102197
101882
101981
102392
118356
118408
118199
117338
116343
115039
113637
112124
110594
109074
107613
106240
104987
103876
102939
102190
101680
101406
101489
101835
113675
114029
114149
113635
112974
112001
110915
109705
108460
107206
105993
104846
103798
102870
102088
101466
101043
100812
100875
101145
108945
109553
109957
109758
109408
108753
107976
107069
106114
105137
104183
103277
102449
101720
101109
100627
100302
100126
100166
100352
104167
104988
105642
105731
105672
105324
104853
104248
103589
102896
102211
101559
100966
100448
100022
99693.8
99479.2
99365.8
99390.3
99493.1
99323.8
100330
101207
101567
101788
101740
101573
101276
100917
100516
100112
99724
99375.6
99080.1
98850.4
98687.9
98596.3
98558.6
98577.8
98606.8
94381.7
95558.1
96645.1
97268.5
97767.4
98023.3
98165.4
98182.4
98134.6
98036.8
97922.4
97807.9
97713.5
97649.6
97624.9
97637.5
97679.7
97731.4
97761.6
97731.8
89300.6
90650.2
91948.6
92842.2
93628.2
94199.5
94663.5
95009.5
95285
95502.7
95688.5
95857.5
96023.5
96197.3
96382.3
96575.3
96760.6
96913.1
96973.6
96907.3
84030.1
85575
87104.6
88291.7
89389.1
90299.2
91109
91804.2
92422.7
92971.6
93470.7
93930.7
94363.9
94776.7
95171.6
95544.4
95875.3
96136.7
96246.8
96170.6
78536.7
80322.3
82122.7
83644.9
85092
86376.3
87563.5
88635.8
89619.8
90517.3
91342.5
92101.4
92803
93452.6
94052
94596.9
95067.9
95436.7
95612.9
95553.3
72778.2
74880.2
77017.8
78938.7
80792.4
82500.8
84107.3
85591.4
86968.4
88235.2
89399.6
90464.5
91435.1
92314.8
93104.9
93803.9
94395.8
94857.2
95105
95086.4
66806.2
69329.2
71891.9
74289.8
76615.3
78801.5
80869.5
82797.5
84590.2
86241.6
87753.8
89126.1
90360.1
91457.9
92420.7
93246.9
93928.5
94450.4
94752.6
94782.5
60666.3
63758.7
66867.7
69841.1
72717.2
75439.5
78013.1
80414.4
82643.8
84691.2
86556.4
88235.4
89728.2
91032.1
92145
93065.1
93786.1
94306.2
94600.4
94656.7
54768.6
58571.5
62326.4
65938
69407.6
72687.1
75773.9
78646.1
81300.6
83729.2
85930.3
87899.5
89632.9
91125.4
92368.1
93353.7
94068.9
94519.9
94699.2
94685.3
105537
108398
114316
121268
128566
135134
140426
144036
145955
145731
99999.5
102757
108335
115023
122321
129244
135261
139828
142771
143415
95013.7
97694.5
102925
109192
116142
122890
129009
134077
137962
140263
90435.2
93088.9
98070.1
104016
110702
117320
123459
128735
132881
136095
86132.8
88768.6
93518.5
99127.5
105484
111875
117936
123391
127762
131592
82073.3
84715.3
89292.4
94622.3
100678
106819
112695
118151
122555
126770
78175.7
80829.6
85259.5
90335.8
96102.7
101993
107669
113076
117452
121838
74414.4
77086.2
81397.3
86253.5
91753.1
97388.2
102834
108122
112427
116864
70746.5
73434.8
77643
82301.3
87555
92943.5
98161.3
103296
107504
111900
67152.9
69851.6
73966.2
78442.5
83464.4
88609.2
93598.3
98551.3
102652
106957
63614.4
66310.9
70330.3
74629.3
79427.7
84332.2
89097.2
93852.5
97838.1
102022
60123.8
62799.1
66709.5
70823.7
75394.9
80055.6
84596.7
89145.8
93012.7
97062.4
56686.3
59308.1
63076.6
66980.5
71308.5
75714.8
80029.7
84367.6
88115.4
92029.8
53320.9
55839.1
59408.2
63056.1
67108.3
71241.3
75323.5
79449.5
83081.7
86867.8
50086.5
52408.4
55667
58978.7
62701.4
66536.4
70380
74299.4
77829.8
81507.6
47064.6
49024.7
51806.7
54676.1
58002.4
61510.7
65112.5
68839
72292.5
75893.3
44468.9
45716.1
47695.5
49954
52807.7
55977.2
59359
62936.1
66365.9
69950.5
42443.3
42339.2
43159.5
44671.3
47008.8
49853.6
53068.1
56565.3
60053
63704
41680.5
38573.8
37550.3
38173.2
40085.5
42760.1
45975.9
49563.6
53270.8
57139.1
40938.3
32838.5
30519.5
30405.2
32167.3
34901.2
38351
42254.7
46384.9
50657.7
)
;

boundaryField
{
    left
    {
        type            calculated;
        value           nonuniform List<scalar> 
30
(
104939
99361.2
94344.6
89734
85407.4
81329.7
77422.5
73660.9
70005.5
66437.6
62941.8
59514
56163.6
52914.4
49834.2
47028.4
44783.1
43511.7
44834.1
49641.1
388820
266235
214652
184666
164426
148795
136629
126612
118336
111069
)
;
    }
    right
    {
        type            calculated;
        value           nonuniform List<scalar> 
30
(
94649.7
94636.1
94829.2
95314.4
96039.1
96959.5
97998.8
99084.2
100141
101097
101884
102468
102859
103062
103043
102820
102425
101861
101162
100360
99492.1
98597.8
97716.9
96888.8
96150.6
95536.1
95074.7
94777.5
94659.3
94664.2
)
;
    }
    down
    {
        type            calculated;
        value           nonuniform List<scalar> 
30
(
2206.9
1916.51
3560.17
9466.91
16643
24256.6
31734.4
38892.4
45466.1
51563.5
57053
61837.6
66238.2
70192.4
73760.8
76956.8
79819.7
82370.1
84637.2
86638.5
88395.1
89919.1
91221.7
92311
93190.2
93865.6
94335.3
94617.9
94709.9
94678.6
)
;
    }
    up
    {
        type            calculated;
        value           nonuniform List<scalar> 
30
(
40064.5
32595.3
30426.4
30304.2
32042.4
34754.8
38191.3
42090
46218.9
50498.5
54617.3
58437.7
62212.8
65841.1
69328
72621.9
75722
78605.8
81270.6
83708.1
85916.8
87891.6
89630.5
91126.2
92371.4
93358
94072.2
94521.8
94699.1
94690.1
)
;
    }
    hole
    {
        type            calculated;
        value           nonuniform List<scalar> 
20
(
172842
203034
232268
259926
285128
308003
327284
345263
358193
372508
2011.44
2093.41
2697.51
9980.65
22374.7
39512
60828.7
85690.7
113251
142623
)
;
    }
    frontAndBack
    {
        type            empty;
    }
}


// ************************************************************************* //
