/*--------------------------------*- C++ -*----------------------------------*\
  =========                 |
  \\      /  F ield         | OpenFOAM: The Open Source CFD Toolbox
   \\    /   O peration     | Website:  https://openfoam.org
    \\  /    A nd           | Version:  9
     \\/     M anipulation  |
\*---------------------------------------------------------------------------*/
FoamFile
{
    format      ascii;
    class       volSymmTensorField;
    location    "1";
    object      sigma;
}
// * * * * * * * * * * * * * * * * * * * * * * * * * * * * * * * * * * * * * //

dimensions      [1 -1 -2 0 0 0 0];

internalField   nonuniform List<symmTensor> 
1000
(
(124723 -85145.9 -7.24864e-11 71740.1 -7.85454e-11 19029.9)
(145810 -65134 -6.4545e-11 38647.6 -6.42395e-11 18718.1)
(156136 -49727.2 -5.69934e-11 23008.6 -5.34729e-11 18646.3)
(160425 -38076.8 -5.13745e-11 11125.1 -4.53427e-11 18243.2)
(161831 -28791.9 -4.65456e-11 4138.44 -3.89276e-11 17913.6)
(160990 -21521.5 -4.2749e-11 -953.951 -3.39201e-11 17494.2)
(159210 -15643.2 -3.95717e-11 -4237.1 -2.98943e-11 17110.8)
(156598 -10969.4 -3.70284e-11 -6564.5 -2.67044e-11 16710.4)
(153915 -7106.96 -3.48734e-11 -8083.31 -2.40791e-11 16358.8)
(150427 -3883.48 -3.31311e-11 -9515.91 -2.1889e-11 15930.8)
(158222 -94829.9 -7.77359e-11 72587.1 -8.4964e-11 22305.2)
(171630 -67231.5 -6.49175e-11 40884.3 -6.56109e-11 21398.9)
(176855 -47777.7 -5.47128e-11 26458 -5.21667e-11 20947.3)
(177102 -33794.9 -4.76163e-11 15114.3 -4.24934e-11 20205.6)
(175398 -23238.2 -4.1973e-11 8608.25 -3.52446e-11 19616.8)
(172018 -15331.8 -3.7799e-11 3713.05 -2.98223e-11 18968.4)
(168162 -9195.31 -3.44852e-11 559.984 -2.56332e-11 18393.6)
(163843 -4524.01 -3.19994e-11 -1865.58 -2.24488e-11 17818.7)
(159559 -769.323 -2.99451e-11 -3351.06 -1.99027e-11 17312.3)
(154879 2268.93 -2.84362e-11 -5328.93 -1.78286e-11 16725.1)
(194209 -100971 -8.12101e-11 70059.9 -8.89114e-11 25592)
(197886 -67210.4 -6.40729e-11 42234 -6.55344e-11 24069.4)
(196880 -44494.1 -5.1534e-11 30312.2 -4.99742e-11 23220.2)
(192389 -28684.6 -4.31825e-11 20231.2 -3.91174e-11 22123.2)
(187168 -17234.4 -3.69099e-11 14612.9 -3.13e-11 21263.7)
(181006 -8978.95 -3.25115e-11 10141.6 -2.56628e-11 20377.6)
(174969 -2821.33 -2.91918e-11 7256.89 -2.14732e-11 19610)
(168867 1683.86 -2.68527e-11 4835.26 -1.8407e-11 18859.9)
(163136 5150.16 -2.50112e-11 3382.49 -1.60607e-11 18212.6)
(157214 8012.14 -2.36957e-11 1077.02 -1.41024e-11 17477.9)
(231465 -102701 -8.23026e-11 64668.9 -8.9819e-11 28815.6)
(223973 -64828.1 -6.18554e-11 42786.7 -6.38513e-11 26678.9)
(215883 -39973 -4.75372e-11 34499.4 -4.69602e-11 25426.8)
(206088 -23047.7 -3.82956e-11 26314.2 -3.5415e-11 23962.2)
(197017 -11199.6 -3.16651e-11 21910.2 -2.73714e-11 22820.9)
(187913 -2940 -2.72417e-11 18005.2 -2.17547e-11 21690)
(179631 2986.16 -2.40773e-11 15404.2 -1.77356e-11 20722.7)
(171800 7167.55 -2.19852e-11 12980.4 -1.48932e-11 19801.2)
(164689 10217.3 -2.04561e-11 11435.7 -1.28301e-11 19009.2)
(157761 12749.5 -1.94068e-11 8929.58 -1.1093e-11 18158.6)
(268257 -99259.3 -8.04619e-11 57093.7 -8.71976e-11 31862.9)
(249093 -59762.1 -5.80592e-11 42660.9 -6.03494e-11 29160.4)
(233415 -34194.2 -4.2734e-11 38935.9 -4.31107e-11 27516.8)
(217960 -17074.1 -3.3111e-11 33180.2 -3.15104e-11 25684.2)
(204848 -5472.3 -2.64945e-11 30260.4 -2.3681e-11 24258.5)
(192751 2348.84 -2.23134e-11 27027.4 -1.83856e-11 22882.8)
(182276 7734.31 -1.94991e-11 24710.8 -1.47449e-11 21719.1)
(172820 11386.6 -1.77873e-11 22253.3 -1.22635e-11 20632.4)
(164498 13878.7 -1.66742e-11 20506.7 -1.05754e-11 19702.9)
(156713 15960.5 -1.59664e-11 17786.2 -9.13932e-12 18749.2)
(303631 -90484.7 -7.54164e-11 48519.6 -8.09686e-11 34731.8)
(272808 -51838.4 -5.25031e-11 42363.5 -5.49255e-11 31510.6)
(249309 -27140.2 -3.70826e-11 43836.3 -3.84194e-11 29490.4)
(227969 -10950.8 -2.77563e-11 40790.2 -2.75288e-11 27281.3)
(210735 -368.811 -2.16351e-11 39436.2 -2.04366e-11 25564.3)
(195700 6503.1 -1.8026e-11 36835 -1.58049e-11 23942.9)
(183162 11028.2 -1.57785e-11 34702.2 -1.27547e-11 22585.3)
(172251 13960.4 -1.45797e-11 32121.6 -1.07606e-11 21342.3)
(162905 15799.3 -1.39588e-11 30052.8 -9.50833e-12 20283.7)
(154437 17350.1 -1.36431e-11 27093.5 -8.42641e-12 19241.6)
(335275 -75900.7 -6.67628e-11 39909.5 -7.08422e-11 37272.2)
(293928 -40528.9 -4.47906e-11 42440.1 -4.72401e-11 33658.3)
(262598 -18658.7 -3.0462e-11 49488.5 -3.2794e-11 31275.8)
(235478 -4800.64 -2.23281e-11 49114.9 -2.35545e-11 28688.3)
(214373 3826.61 -1.73253e-11 49119.4 -1.78229e-11 26682.6)
(196733 9170.91 -1.46865e-11 46918.1 -1.42378e-11 24826.4)
(182471 12518.1 -1.3235e-11 44753.6 -1.19857e-11 23289.9)
(170407 14571.5 -1.26662e-11 41902.8 -1.0581e-11 21907.7)
(160297 15720.6 -1.2574e-11 39390.6 -9.78573e-12 20736.1)
(151338 16718.9 -1.2666e-11 36156.4 -9.07107e-12 19621.4)
(364975 -55635.7 -5.4157e-11 33665.1 -5.69536e-11 39840.1)
(312539 -25437.8 -3.4341e-11 44928.6 -3.70741e-11 35769)
(273201 -8727.04 -2.26353e-11 57289.3 -2.62513e-11 32971.2)
(240657 985.206 -1.69816e-11 58717.6 -1.98631e-11 29961.9)
(216137 6653.45 -1.38592e-11 59252 -1.61473e-11 27642.4)
(196424 9972.34 -1.25918e-11 56848.2 -1.39281e-11 25554.3)
(180882 11967.8 -1.21059e-11 54221.7 -1.25798e-11 23848.5)
(168036 13127.8 -1.2205e-11 50867.4 -1.17675e-11 22345.7)
(157444 13679.2 -1.25953e-11 47788 -1.1363e-11 21080)
(148198 14207.3 -1.30413e-11 44255.7 -1.0959e-11 19911.4)
(388650 -27585.2 -3.59049e-11 32579.1 -3.79648e-11 42262.4)
(324695 -6691.07 -2.07683e-11 53318 -2.46067e-11 37720.2)
(277597 1247.67 -1.43148e-11 68915.4 -1.97901e-11 34349.7)
(241124 4768.49 -1.27761e-11 69854.7 -1.75715e-11 30877.4)
(214890 6844.28 -1.21799e-11 69158.8 -1.62515e-11 28272.8)
(194375 7973.92 -1.25162e-11 65567.6 -1.54814e-11 26001.6)
(178448 8755.03 -1.29736e-11 61935.2 -1.49287e-11 24173.7)
(165391 9233.32 -1.3627e-11 57862.7 -1.45591e-11 22591.2)
(154672 9447.94 -1.43318e-11 54180.5 -1.4368e-11 21265)
(145333 9709.34 -1.49908e-11 50393.8 -1.4138e-11 20066.3)
(418062 17360.9 -3.30743e-12 53003.6 -8.0796e-12 46990.3)
(329659 18186.2 -5.44527e-13 79891.5 -8.45733e-12 40388.1)
(277177 10528.9 -5.40979e-12 87648.8 -1.39761e-11 35791.5)
(239979 5967.22 -9.87487e-12 83359.2 -1.70797e-11 31797.4)
(213739 4648.48 -1.21674e-11 78134.5 -1.79403e-11 28825.9)
(193346 4237.55 -1.38777e-11 72075 -1.81496e-11 26369.1)
(177498 4446.56 -1.49639e-11 66785.5 -1.79435e-11 24419.5)
(164472 4749.24 -1.58606e-11 61889.7 -1.76732e-11 22776.3)
(153729 5006.23 -1.66205e-11 57694.3 -1.74418e-11 21409.2)
(144326 5264.68 -1.72976e-11 53818.6 -1.72121e-11 20197.5)
(-656.136 293.497 -3.25402e-11 -341.878 -1.98255e-11 1877.55)
(166.437 -576.484 -3.30093e-11 66.0998 -2.04175e-11 1983.11)
(4023.67 -2091.93 -3.39269e-11 -196.505 -2.14177e-11 2330.25)
(10437.8 -3343.32 -3.4611e-11 -428.741 -2.22318e-11 2931.53)
(17976.1 -4135.39 -3.49604e-11 -561.477 -2.27351e-11 3653.45)
(25954.9 -4595.24 -3.50771e-11 -628.376 -2.30146e-11 4425.64)
(33795.6 -4786.2 -3.50176e-11 -646.322 -2.3115e-11 5189.88)
(41313 -4815.34 -3.48564e-11 -623.491 -2.31084e-11 5926.64)
(48206.6 -4694.93 -3.46169e-11 -614.571 -2.30031e-11 6602.41)
(54643.3 -4602.18 -3.43906e-11 -510.718 -2.29203e-11 7240.4)
(597.503 -560.714 -3.30329e-11 -203.832 -2.03993e-11 2004.86)
(5769.11 -3846.73 -3.45734e-11 2489.33 -2.26544e-11 2692.74)
(13367.4 -7596.87 -3.67538e-11 2682.7 -2.51559e-11 3425.29)
(21516.8 -10505.5 -3.85366e-11 1930.46 -2.70674e-11 4145.74)
(29702.2 -12324.7 -3.96281e-11 1153.16 -2.82449e-11 4875.12)
(37493.7 -13357.1 -4.02167e-11 445.088 -2.88957e-11 5576.55)
(44706.2 -13747.9 -4.03852e-11 -110.492 -2.91202e-11 6237.29)
(51386.6 -13749.3 -4.02942e-11 -508.17 -2.90885e-11 6860.45)
(57261.8 -13379.8 -3.99757e-11 -852.01 -2.88108e-11 7411.49)
(62847.6 -13087 -3.96647e-11 -891.724 -2.85929e-11 7956.79)
(2101.04 -3417.22 -3.44382e-11 2161.21 -2.23708e-11 2312.03)
(11355.7 -9963.59 -3.78649e-11 5452.43 -2.68197e-11 3422.58)
(21999.3 -14639.8 -4.06352e-11 5199.38 -2.99234e-11 4412.94)
(31813.4 -17783.8 -4.27124e-11 3302.1 -3.1961e-11 5207.77)
(40802.8 -19533.3 -4.39111e-11 1463.44 -3.30642e-11 5935.8)
(48705.8 -20364.1 -4.45127e-11 -146.49 -3.35582e-11 6581.13)
(55614.9 -20485.3 -4.46271e-11 -1386.88 -3.35867e-11 7162.01)
(61766.2 -20174.3 -4.4429e-11 -2284.71 -3.3335e-11 7697.69)
(66884.6 -19466.3 -4.39668e-11 -2966.44 -3.28245e-11 8151.4)
(71853.5 -18876.6 -4.35087e-11 -3176.38 -3.24051e-11 8625.46)
(5290.4 -8007.54 -3.63735e-11 7869.6 -2.55804e-11 3025.8)
(18926.6 -17396.9 -4.18146e-11 9253.35 -3.18835e-11 4401.16)
(32060.5 -22322.3 -4.48702e-11 7843.91 -3.51193e-11 5545.72)
(43274.6 -25066.1 -4.68558e-11 4723.76 -3.68543e-11 6387.49)
(52914 -26206 -4.78095e-11 1894.57 -3.75222e-11 7108.11)
(60916.2 -26415.3 -4.81482e-11 -558.079 -3.75782e-11 7703.41)
(67560.3 -25965.1 -4.80111e-11 -2462.58 -3.72078e-11 8211.87)
(73249.5 -25130.5 -4.75723e-11 -3872.98 -3.65936e-11 8667)
(77670 -23966.5 -4.68978e-11 -4942.88 -3.57696e-11 9026.12)
(82091.8 -22991.5 -4.62438e-11 -5381.82 -3.50876e-11 9431.86)
(10798.8 -14570.9 -3.90601e-11 16395.2 -3.01748e-11 4166.73)
(29105.5 -25526 -4.60862e-11 13426.4 -3.74147e-11 5658.38)
(44284.1 -29940.4 -4.91087e-11 9895.9 -4.02507e-11 6845.51)
(56430.7 -31730.8 -5.0714e-11 5217.54 -4.13046e-11 7666.8)
(66308.5 -31826.4 -5.1163e-11 1355.87 -4.12452e-11 8339.45)
(74118.6 -31087.8 -5.10267e-11 -1874.08 -4.06458e-11 8863.48)
(80308 -29831.9 -5.04768e-11 -4340.21 -3.97218e-11 9290.3)
(85410.6 -28305.9 -4.96762e-11 -6159.07 -3.86347e-11 9661.71)
(89077.8 -26597.9 -4.872e-11 -7519.4 -3.74407e-11 9928.79)
(92911.1 -25156.6 -4.78075e-11 -8114.22 -3.64435e-11 10268.3)
(19373.5 -23276.6 -4.2691e-11 27094.8 -3.62503e-11 5757.93)
(42207.3 -33784.6 -5.03044e-11 18023.3 -4.30326e-11 7232.68)
(58961.9 -36794 -5.28327e-11 11759.9 -4.48543e-11 8376.25)
(71536.5 -37161.8 -5.37942e-11 5380.22 -4.49101e-11 9119.94)
(81212.4 -35949.3 -5.35692e-11 552.233 -4.39485e-11 9708.47)
(88483.4 -34107.1 -5.28471e-11 -3331.31 -4.25934e-11 10137.6)
(93961.1 -31954.1 -5.18121e-11 -6232.34 -4.10582e-11 10467.9)
(98278 -29683.6 -5.06034e-11 -8348.31 -3.94659e-11 10745)
(101071 -27419.1 -4.93472e-11 -9923.83 -3.78954e-11 10914)
(104197 -25488.9 -4.8155e-11 -10613.2 -3.65695e-11 11180.5)
(31631.8 -34035.1 -4.73923e-11 38738.4 -4.37157e-11 7767.18)
(58168.9 -41807.3 -5.42857e-11 22741.4 -4.84842e-11 9097.49)
(75834.5 -42456.5 -5.57705e-11 13470.9 -4.86448e-11 10118.1)
(88241.5 -40947.1 -5.58221e-11 5336.89 -4.73977e-11 10725)
(97241.3 -38225.2 -5.47921e-11 -377.77 -4.5402e-11 11190.3)
(103590 -35201.7 -5.34261e-11 -4801.07 -4.32426e-11 11496.2)
(108076 -32134.6 -5.1881e-11 -8011.37 -4.10885e-11 11712.3)
(111375 -29136.5 -5.02637e-11 -10320.3 -3.90057e-11 11880.1)
(113167 -26356.8 -4.8723e-11 -12020.2 -3.70893e-11 11945.3)
(115421 -23955.5 -4.72585e-11 -12757.6 -3.54482e-11 12125.9)
(48125.2 -46449.3 -5.30912e-11 50121.4 -5.22748e-11 10159.8)
(76835.4 -49264 -5.78507e-11 27412.1 -5.35443e-11 11227.1)
(94507 -46652.5 -5.77099e-11 15325.3 -5.14454e-11 12056.7)
(106069 -42875.2 -5.65914e-11 5592.81 -4.86379e-11 12475.1)
(113910 -38515.9 -5.4663e-11 -850.204 -4.55276e-11 12782.9)
(118967 -34307.7 -5.26369e-11 -5678.99 -4.25662e-11 12939.8)
(122200 -30380.2 -5.06057e-11 -9091.21 -3.98327e-11 13023.7)
(124269 -26740.5 -4.86241e-11 -11497.2 -3.73203e-11 13068.2)
(124956 -23538.1 -4.68556e-11 -13293.9 -3.51211e-11 13020.7)
(126169 -20730.8 -4.51557e-11 -14025.3 -3.32104e-11 13102.8)
(69173.6 -59787.9 -5.95104e-11 60017.9 -6.14054e-11 12878.9)
(97922.1 -55844.6 -6.08531e-11 31756.2 -5.79985e-11 13574.5)
(114467 -49259.5 -5.85618e-11 17454.5 -5.31783e-11 14152.8)
(124424 -42928.1 -5.6056e-11 6459.1 -4.86283e-11 14335.7)
(130614 -36872.6 -5.3165e-11 -479.18 -4.43708e-11 14455.9)
(134020 -31533.8 -5.04994e-11 -5569.19 -4.06482e-11 14439)
(135764 -26839.5 -4.80264e-11 -9056.11 -3.74022e-11 14376.8)
(136386 -22694.7 -4.57664e-11 -11522.4 -3.45535e-11 14278.6)
(135919 -19180.7 -4.38285e-11 -13334.4 -3.21483e-11 14119.2)
(135882 -16045.2 -4.19789e-11 -14251 -3.0017e-11 14067.3)
(94815.9 -73074.2 -6.61826e-11 67456.1 -7.04282e-11 15861.3)
(121061 -61242.6 -6.3139e-11 35568.3 -6.16372e-11 16090.3)
(135172 -50268.2 -5.83104e-11 20002.5 -5.38423e-11 16364.3)
(142699 -41248.7 -5.42707e-11 8251.14 -4.74744e-11 16270.2)
(146722 -33521 -5.0397e-11 1112.27 -4.20945e-11 16174.6)
(148132 -27145.4 -4.71312e-11 -4060.72 -3.76792e-11 15963.2)
(148156 -21808.8 -4.42856e-11 -7526.3 -3.40076e-11 15738.8)
(147191 -17317.8 -4.18306e-11 -9920.33 -3.09332e-11 15493.2)
(145578 -13681.9 -3.98607e-11 -11844.4 -2.84475e-11 15213.9)
(144111 -10554.3 -3.8008e-11 -12505.7 -2.63324e-11 15041.4)
(60393.5 -4273.17 -3.40459e-11 -509.019 -2.26784e-11 7805.15)
(65452.3 -3818.27 -3.362e-11 -400.176 -2.23568e-11 8311.25)
(70096.1 -3418.42 -3.32434e-11 -319.578 -2.20729e-11 8774.24)
(74263 -3054.79 -3.29045e-11 -259.688 -2.18147e-11 9188.78)
(78025.1 -2717.09 -3.25918e-11 -200.859 -2.15755e-11 9563.5)
(81390.1 -2414 -3.23129e-11 -157.534 -2.13606e-11 9897.92)
(84405.9 -2135.9 -3.20584e-11 -116.439 -2.11636e-11 10197.9)
(87089.7 -1884.93 -3.18303e-11 -84.4761 -2.0986e-11 10464.5)
(89475.3 -1654.94 -3.16242e-11 -56.6546 -2.08233e-11 10701.5)
(91579.9 -1444.33 -3.14368e-11 -34.9921 -2.06745e-11 10910.4)
(93426.1 -1248.55 -3.12657e-11 -17.1523 -2.05366e-11 11093.6)
(95026.5 -1065.06 -3.11093e-11 -4.51585 -2.04077e-11 11252.4)
(96393.4 -890.399 -3.09649e-11 4.29783 -2.02855e-11 11387.9)
(97534.9 -721.748 -3.08299e-11 9.07633 -2.01682e-11 11501)
(98454.2 -557.507 -3.07038e-11 8.86395 -2.00544e-11 11592)
(99158.8 -396.741 -3.05853e-11 5.4659 -1.99435e-11 11661.8)
(99645.5 -241.989 -3.0476e-11 -1.75494 -1.98374e-11 11709.9)
(99938 -101.536 -3.03811e-11 -6.9582 -1.97419e-11 11739)
(100034 7.37914 -3.03089e-11 -5.47155 -1.96682e-11 11749.3)
(100027 33.1712 -3.02843e-11 50.1714 -1.96522e-11 11753)
(67325.4 -12190.8 -3.90296e-11 -1145.3 -2.79682e-11 8381.57)
(71006 -10982.3 -3.81708e-11 -1129.69 -2.71421e-11 8750.9)
(74569 -9910.67 -3.73902e-11 -1039.22 -2.64101e-11 9113.47)
(77745.1 -8908.52 -3.66694e-11 -990.692 -2.57255e-11 9434.54)
(80695.1 -7968.38 -3.59875e-11 -901.6 -2.50845e-11 9736.12)
(83348.3 -7116.84 -3.53728e-11 -840.116 -2.45033e-11 10006)
(85773.7 -6328.38 -3.48022e-11 -767.802 -2.39656e-11 10254)
(87952.7 -5611.28 -3.42848e-11 -711.628 -2.34764e-11 10476.3)
(89920.9 -4949.78 -3.38089e-11 -657.896 -2.30256e-11 10677.3)
(91678.8 -4341.06 -3.33729e-11 -615.208 -2.26106e-11 10856.5)
(93245.6 -3774.03 -3.29694e-11 -579.741 -2.22242e-11 11016.3)
(94627.7 -3242.29 -3.25939e-11 -553.088 -2.18619e-11 11157.1)
(95836.3 -2737.94 -3.2241e-11 -533.018 -2.15186e-11 11280.2)
(96878.4 -2254.57 -3.19064e-11 -518.364 -2.119e-11 11386.5)
(97759.9 -1787.78 -3.15863e-11 -505.409 -2.08731e-11 11476.8)
(98490.5 -1337.82 -3.12794e-11 -487.357 -2.05679e-11 11552.7)
(99068.9 -909.375 -3.09875e-11 -454.332 -2.02782e-11 11614.7)
(99514.7 -520.891 -3.0718e-11 -381.805 -2.00169e-11 11666.4)
(99807.5 -197.487 -3.04826e-11 -238.45 -1.98016e-11 11708.1)
(100000 -25.8966 -3.03199e-11 63.445 -1.96922e-11 11751)
(75208.1 -17541.7 -4.26346e-11 -3519.48 -3.14869e-11 8936.5)
(77513.3 -15905.4 -4.15281e-11 -3458.2 -3.03788e-11 9177.65)
(80021.3 -14431.9 -4.04829e-11 -3161.3 -2.9385e-11 9455.37)
(82182.4 -13060.4 -3.95261e-11 -2960.92 -2.84588e-11 9691.15)
(84304.2 -11752.9 -3.85981e-11 -2677.5 -2.75778e-11 9929.02)
(86211.2 -10562.2 -3.77594e-11 -2453.87 -2.67747e-11 10140.5)
(88013.6 -9447.35 -3.69689e-11 -2219.09 -2.60235e-11 10342.1)
(89650.3 -8426.63 -3.62492e-11 -2023.8 -2.53351e-11 10523.8)
(91164.3 -7478.47 -3.5581e-11 -1844.34 -2.46958e-11 10691.9)
(92537.6 -6601.94 -3.49665e-11 -1696.11 -2.41042e-11 10843.4)
(93788.6 -5783.94 -3.43962e-11 -1571.86 -2.35521e-11 10980.6)
(94914.9 -5017.66 -3.38656e-11 -1473.85 -2.30345e-11 11103.4)
(95925.7 -4292.81 -3.33685e-11 -1397.82 -2.2545e-11 11212.9)
(96824.9 -3602.84 -3.28984e-11 -1339.74 -2.20788e-11 11309.9)
(97617.1 -2941.6 -3.24505e-11 -1291.84 -2.16319e-11 11395.5)
(98309.4 -2306.96 -3.2022e-11 -1239.28 -2.12037e-11 11471.5)
(98896 -1700.51 -3.16092e-11 -1161.23 -2.07951e-11 11538.8)
(99391.4 -1131.35 -3.12115e-11 -1015.01 -2.04136e-11 11602.2)
(99748.1 -614.704 -3.08304e-11 -741.998 -2.0071e-11 11661.3)
(100016 -174.368 -3.04628e-11 -237.282 -1.97854e-11 11728.7)
(84341.5 -21285.1 -4.51778e-11 -5843.58 -3.39205e-11 9628.41)
(85201.6 -19418.1 -4.3964e-11 -5819.1 -3.26613e-11 9726.95)
(86630.3 -17693.2 -4.27591e-11 -5366.63 -3.15058e-11 9912.62)
(87710.1 -16115.1 -4.16832e-11 -5084.01 -3.04463e-11 10050.3)
(88948.7 -14579.8 -4.06059e-11 -4646.46 -2.94186e-11 10214.9)
(90038 -13180.4 -3.96334e-11 -4296.25 -2.8481e-11 10357.4)
(91151.6 -11854.2 -3.87016e-11 -3921.08 -2.7593e-11 10503.8)
(92177.3 -10633.5 -3.78484e-11 -3600.71 -2.67751e-11 10636.6)
(93173.1 -9490.92 -3.705e-11 -3302.85 -2.60096e-11 10764.2)
(94099.4 -8430.37 -3.6312e-11 -3050.33 -2.52982e-11 10881.1)
(94974.9 -7437.31 -3.5624e-11 -2833.71 -2.46317e-11 10989.9)
(95787.8 -6505.72 -3.4983e-11 -2657.11 -2.40059e-11 11089)
(96543.8 -5625.45 -3.43817e-11 -2514.72 -2.3414e-11 11179.7)
(97241.1 -4788.74 -3.3814e-11 -2401.31 -2.28509e-11 11262.2)
(97880 -3987.99 -3.32734e-11 -2305.31 -2.23119e-11 11337.3)
(98462.7 -3217.43 -3.27538e-11 -2209.85 -2.17934e-11 11406.7)
(98975.9 -2473.47 -3.22478e-11 -2088.58 -2.12936e-11 11471.1)
(99429.1 -1750.76 -3.17462e-11 -1894.89 -2.08102e-11 11535)
(99758.2 -1053.7 -3.1242e-11 -1569.21 -2.03474e-11 11596.6)
(100022 -332.461 -3.0686e-11 -1006.62 -1.98738e-11 11669.9)
(94063.3 -23161.5 -4.65871e-11 -8598.33 -3.50854e-11 10357.7)
(93433.8 -21294.2 -4.54153e-11 -8618.03 -3.38305e-11 10307.3)
(93813.8 -19474.2 -4.414e-11 -7952.49 -3.26192e-11 10407.1)
(93797.8 -17865.5 -4.30553e-11 -7575.36 -3.15455e-11 10445)
(94159.7 -16252.8 -4.19196e-11 -6954.1 -3.0473e-11 10538.4)
(94416.9 -14788.3 -4.08998e-11 -6452.73 -2.94979e-11 10611.4)
(94828.8 -13379.6 -3.99055e-11 -5909.2 -2.85609e-11 10702.4)
(95221.5 -12075.2 -3.89897e-11 -5436.08 -2.76924e-11 10785.4)
(95672.8 -10843.6 -3.81235e-11 -4992.31 -2.68722e-11 10871.5)
(96122.3 -9693.65 -3.7319e-11 -4609.19 -2.61054e-11 10952.3)
(96588.1 -8611.71 -3.65652e-11 -4276.28 -2.53831e-11 11030.4)
(97050 -7593.26 -3.58614e-11 -3999.87 -2.47024e-11 11103.4)
(97510 -6628.67 -3.51996e-11 -3773.69 -2.40567e-11 11172)
(97959.9 -5709.64 -3.45752e-11 -3592.53 -2.34408e-11 11235.9)
(98395.2 -4827.23 -3.3979e-11 -3444.72 -2.28488e-11 11295.7)
(98813.6 -3970.75 -3.34018e-11 -3311.03 -2.22738e-11 11352.5)
(99196.6 -3131.1 -3.28344e-11 -3166.08 -2.17108e-11 11406.6)
(99550.5 -2286.78 -3.22565e-11 -2966.12 -2.11458e-11 11462.1)
(99805.9 -1436.71 -3.16595e-11 -2658.92 -2.05799e-11 11516.1)
(100025 -469.44 -3.0957e-11 -2152.19 -1.99397e-11 11582.4)
(104234 -23306.8 -4.68398e-11 -11087.5 -3.50896e-11 11162.8)
(102059 -21678.9 -4.58805e-11 -11256.9 -3.39979e-11 10948.2)
(101420 -19909 -4.46322e-11 -10405.7 -3.28286e-11 10962.2)
(100294 -18427.8 -4.36475e-11 -9986.11 -3.18454e-11 10893.8)
(99783.4 -16868.9 -4.25443e-11 -9223.41 -3.08155e-11 10912.2)
(99201 -15458.6 -4.15596e-11 -8602.31 -2.98826e-11 10911.8)
(98899.8 -14076.6 -4.05772e-11 -7921.11 -2.89693e-11 10943.3)
(98644.2 -12786 -3.96634e-11 -7314.29 -2.81155e-11 10973)
(98530.7 -11555.6 -3.87904e-11 -6739.18 -2.73011e-11 11013.8)
(98479.4 -10397 -3.79722e-11 -6232.23 -2.65331e-11 11055)
(98508.5 -9299.82 -3.72005e-11 -5785.6 -2.58047e-11 11099.1)
(98588.5 -8260.92 -3.64762e-11 -5407.78 -2.51138e-11 11142.6)
(98717.3 -7271.86 -3.5793e-11 -5095.27 -2.4455e-11 11185.5)
(98882.3 -6324.51 -3.51457e-11 -4844.34 -2.38225e-11 11227.1)
(99074.6 -5408.96 -3.45261e-11 -4645.18 -2.32103e-11 11267.2)
(99287.2 -4510.78 -3.39225e-11 -4483.35 -2.26088e-11 11306.3)
(99500.8 -3616.07 -3.3324e-11 -4336.6 -2.20091e-11 11344.3)
(99714.6 -2689.83 -3.27027e-11 -4171.48 -2.13888e-11 11384)
(99872.5 -1729.24 -3.20508e-11 -3948.37 -2.07467e-11 11422.9)
(100020 -574.212 -3.1255e-11 -3596.36 -1.9977e-11 11471.7)
(114377 -21721.2 -4.5925e-11 -13166.4 -3.39386e-11 12007.9)
(110668 -20592.1 -4.53644e-11 -13613.1 -3.31815e-11 11618.8)
(109088 -19025.7 -4.4249e-11 -12648.3 -3.21552e-11 11548.1)
(106889 -17821.8 -4.34667e-11 -12234.3 -3.13622e-11 11372.5)
(105540 -16456.2 -4.24932e-11 -11388.5 -3.04673e-11 11313.9)
(104151 -15213.4 -4.16186e-11 -10668 -2.96524e-11 11241)
(103149 -13965.1 -4.07191e-11 -9871.06 -2.88343e-11 11211.8)
(102260 -12777.2 -3.98658e-11 -9138.2 -2.80547e-11 11188.4)
(101582 -11628.5 -3.90375e-11 -8438.68 -2.73001e-11 11182.9)
(101029 -10531.7 -3.82508e-11 -7810.94 -2.65783e-11 11183.8)
(100611 -9483.03 -3.75031e-11 -7253.4 -2.58866e-11 11192.3)
(100296 -8481.02 -3.67963e-11 -6777.3 -2.52245e-11 11204.3)
(100076 -7520.7 -3.61264e-11 -6381.96 -2.45882e-11 11219.2)
(99934 -6594.45 -3.54887e-11 -6066.52 -2.39724e-11 11235.5)
(99858.3 -5691.87 -3.48767e-11 -5825.85 -2.33706e-11 11252.4)
(99838.3 -4795.56 -3.4278e-11 -5649.73 -2.27714e-11 11269.9)
(99857.4 -3888.83 -3.36797e-11 -5523.84 -2.21642e-11 11287.4)
(99906.7 -2927.84 -3.30512e-11 -5427.85 -2.15193e-11 11305.9)
(99953.1 -1908.45 -3.23856e-11 -5335.89 -2.08352e-11 11324.3)
(100010 -639.427 -3.15555e-11 -5209.05 -1.99838e-11 11348.1)
(124085 -18524.6 -4.38679e-11 -14457.2 -3.17229e-11 12881.1)
(118957 -18148.1 -4.38844e-11 -15306.3 -3.14682e-11 12317.7)
(116531 -16948 -4.30312e-11 -14400.5 -3.06899e-11 12157.2)
(113364 -16123.1 -4.25212e-11 -14030.8 -3.01546e-11 11881)
(111216 -15073.8 -4.17722e-11 -13218.7 -2.94746e-11 11739.6)
(109088 -14085.9 -4.10727e-11 -12470.7 -2.88344e-11 11594.9)
(107412 -13066.9 -4.03296e-11 -11637 -2.81738e-11 11501)
(105921 -12065.6 -3.95981e-11 -10832.3 -2.75237e-11 11422.9)
(104693 -11077.9 -3.88717e-11 -10049.3 -2.68814e-11 11368.8)
(103647 -10113.5 -3.81657e-11 -9325.62 -2.62526e-11 11327.9)
(102785 -9176.47 -3.7484e-11 -8670.49 -2.564e-11 11299.5)
(102073 -8267.6 -3.68304e-11 -8100.15 -2.5044e-11 11279.2)
(101498 -7385.59 -3.62049e-11 -7621.07 -2.44635e-11 11265.2)
(101040 -6524.7 -3.56059e-11 -7238.79 -2.38945e-11 11255.2)
(100686 -5676.36 -3.50283e-11 -6954.53 -2.33312e-11 11248)
(100421 -4822.15 -3.44605e-11 -6767.32 -2.27615e-11 11242)
(100234 -3944.82 -3.38905e-11 -6671.21 -2.21741e-11 11236.9)
(100106 -2995.19 -3.32874e-11 -6663.36 -2.15357e-11 11231.4)
(100038 -1971.26 -3.2647e-11 -6731.85 -2.08448e-11 11226.4)
(99997.4 -663.749 -3.18382e-11 -6874.19 -1.99618e-11 11220.4)
(133037 -14030.2 -4.08345e-11 -14703.8 -2.86606e-11 13768.2)
(126637 -14541.4 -4.15212e-11 -16022.1 -2.8997e-11 13038.9)
(123437 -13955.5 -4.11531e-11 -15584.2 -2.86241e-11 12763.1)
(119494 -13582.2 -4.09657e-11 -15325 -2.83927e-11 12399.6)
(116586 -12976.7 -4.05391e-11 -14643.3 -2.80113e-11 12170.9)
(113826 -12303.9 -4.00542e-11 -13889.5 -2.75857e-11 11962.7)
(111530 -11565.5 -3.95012e-11 -13039.9 -2.71163e-11 11807.5)
(109497 -10788.4 -3.89172e-11 -12185.4 -2.66203e-11 11678.6)
(107759 -9995.4 -3.83182e-11 -11344.9 -2.61123e-11 11577.8)
(106255 -9197.98 -3.77184e-11 -10555.6 -2.55989e-11 11495.9)
(104971 -8406.85 -3.71289e-11 -9833.95 -2.50874e-11 11430.3)
(103875 -7626.54 -3.65555e-11 -9199.94 -2.45808e-11 11376.5)
(102952 -6858.92 -3.60025e-11 -8665.07 -2.40797e-11 11331.8)
(102179 -6100.26 -3.54694e-11 -8240.31 -2.35816e-11 11293.6)
(101544 -5343.34 -3.4953e-11 -7933.43 -2.30816e-11 11259.8)
(101027 -4571.18 -3.44445e-11 -7753.54 -2.25679e-11 11228.2)
(100628 -3766.95 -3.39335e-11 -7704.27 -2.20292e-11 11198.3)
(100317 -2879.86 -3.33907e-11 -7800.43 -2.14308e-11 11166.5)
(100129 -1909.92 -3.28166e-11 -8044.45 -2.07731e-11 11136.2)
(99984.3 -645.04 -3.20833e-11 -8476.37 -1.99124e-11 11097.8)
(140422 -8278.82 -3.69155e-11 -14195.1 -2.4775e-11 14567.8)
(133970 -9402.98 -3.79493e-11 -15232 -2.55307e-11 13850.6)
(129890 -9684.96 -3.82984e-11 -15692.8 -2.57244e-11 13414.8)
(125526 -9819.67 -3.85005e-11 -15780.8 -2.58285e-11 12980.3)
(121863 -9804.3 -3.85338e-11 -15515.4 -2.58373e-11 12642.3)
(118513 -9612.39 -3.84067e-11 -14995.5 -2.57319e-11 12355.4)
(115591 -9296.34 -3.81606e-11 -14286.4 -2.55461e-11 12125.4)
(113007 -8874.98 -3.78235e-11 -13480.8 -2.529e-11 11936.6)
(110757 -8378.78 -3.74238e-11 -12629.5 -2.49837e-11 11784.4)
(108794 -7830.34 -3.69852e-11 -11789.1 -2.46409e-11 11659.8)
(107094 -7248.48 -3.6527e-11 -10993.5 -2.42736e-11 11557.9)
(105626 -6646.31 -3.60628e-11 -10276 -2.38901e-11 11472.7)
(104366 -6032.51 -3.56024e-11 -9659.32 -2.34956e-11 11400.4)
(103290 -5408.82 -3.51513e-11 -9164.96 -2.30911e-11 11336.8)
(102383 -4772.57 -3.47099e-11 -8809.06 -2.26742e-11 11279.4)
(101622 -4110.26 -3.42742e-11 -8612.77 -2.22357e-11 11224.3)
(101014 -3408.8 -3.38384e-11 -8591.69 -2.17661e-11 11171.2)
(100520 -2620.74 -3.33779e-11 -8779.28 -2.12333e-11 11113.9)
(100213 -1748.62 -3.28954e-11 -9193.09 -2.06378e-11 11058.4)
(99965.3 -590.248 -3.22793e-11 -9914.44 -1.98426e-11 10987.3)
(144526 -3607.52 -3.35951e-11 -12645.4 -2.1652e-11 15118.2)
(138600 -4202.07 -3.42861e-11 -13728.7 -2.20484e-11 14452.5)
(133957 -5297.23 -3.52634e-11 -14791.4 -2.27776e-11 13910.4)
(129477 -5832.05 -3.57829e-11 -15254.1 -2.31427e-11 13433.6)
(125513 -6223.34 -3.61276e-11 -15272 -2.34197e-11 13041.9)
(121874 -6418.72 -3.62939e-11 -14998.8 -2.35704e-11 12705.3)
(118636 -6460.95 -3.63135e-11 -14478.1 -2.36224e-11 12427.8)
(115727 -6373.95 -3.62199e-11 -13815.8 -2.35893e-11 12194.1)
(113153 -6181.25 -3.60374e-11 -13066 -2.34862e-11 12000.5)
(110873 -5907.42 -3.57923e-11 -12292.3 -2.33276e-11 11838)
(108869 -5571.32 -3.55042e-11 -11537.1 -2.3126e-11 11701.5)
(107112 -5189.25 -3.51902e-11 -10840.7 -2.28912e-11 11585.1)
(105583 -4772.57 -3.4863e-11 -10233.5 -2.263e-11 11484.4)
(104257 -4327.43 -3.45327e-11 -9746.07 -2.23465e-11 11394.7)
(103124 -3854.48 -3.4203e-11 -9402.71 -2.204e-11 11313)
(102157 -3345.99 -3.38745e-11 -9234.14 -2.17051e-11 11234.6)
(101372 -2792.73 -3.35455e-11 -9267.16 -2.13348e-11 11159.1)
(100721 -2158.62 -3.32028e-11 -9551.38 -2.09038e-11 11078.1)
(100307 -1448.07 -3.28501e-11 -10118 -2.04139e-11 10999.5)
(99960.4 -487.08 -3.24011e-11 -11085 -1.97459e-11 10898.7)
(142191 952.999 -3.046e-11 -10870.6 -1.86318e-11 15055.1)
(137552 302.317 -3.13508e-11 -13165.2 -1.90334e-11 14423)
(133306 -1028.85 -3.24756e-11 -14273.4 -1.99188e-11 13914.7)
(129253 -1907.92 -3.32323e-11 -14905.2 -2.05106e-11 13464.5)
(125599 -2615.39 -3.37901e-11 -15039.3 -2.09966e-11 13092.2)
(122194 -3128.56 -3.41702e-11 -14874.5 -2.13577e-11 12768.2)
(119116 -3474.42 -3.43952e-11 -14453.5 -2.16111e-11 12496.8)
(116303 -3678.21 -3.44992e-11 -13879.8 -2.17717e-11 12263.8)
(113773 -3761.07 -3.45032e-11 -13206.3 -2.18518e-11 12066.8)
(111493 -3745.7 -3.44333e-11 -12497.1 -2.18658e-11 11897.6)
(109457 -3650.28 -3.43077e-11 -11795.2 -2.1825e-11 11752.4)
(107645 -3491.79 -3.41448e-11 -11142.8 -2.17397e-11 11625.7)
(106045 -3281.84 -3.39574e-11 -10573.9 -2.16174e-11 11513.8)
(104637 -3029 -3.37565e-11 -10121.9 -2.14625e-11 11412.1)
(103418 -2736.07 -3.35498e-11 -9816.11 -2.12767e-11 11318)
(102366 -2401.44 -3.33411e-11 -9692.87 -2.10579e-11 11226.6)
(101503 -2018.03 -3.31321e-11 -9784.94 -2.0801e-11 11137.8)
(100781 -1564.6 -3.29185e-11 -10149.6 -2.04901e-11 11042.7)
(100325 -1049.83 -3.27103e-11 -10830.1 -2.01294e-11 10949.9)
(99942.1 -348.097 -3.24525e-11 -11954.3 -1.96327e-11 10832)
(140384 5509.51 -2.72737e-11 -8838.9 -1.56183e-11 15063.1)
(136127 4490.25 -2.84489e-11 -11498.9 -1.62581e-11 14438.2)
(132562 2933.38 -2.9742e-11 -12858.3 -1.72874e-11 13976)
(128844 1779.01 -3.07112e-11 -13773.6 -1.80564e-11 13535.2)
(125502 809.071 -3.1468e-11 -14150.1 -1.87124e-11 13173.2)
(122290 28.4939 -3.20498e-11 -14206.1 -1.92479e-11 12849.5)
(119356 -578.355 -3.2467e-11 -13972 -1.96721e-11 12576.2)
(116629 -1038.2 -3.27578e-11 -13557.8 -2.00009e-11 12337.8)
(114147 -1367.48 -3.29389e-11 -13015.3 -2.02437e-11 12134)
(111883 -1587.59 -3.30357e-11 -12412.9 -2.0414e-11 11956.7)
(109839 -1715.21 -3.30662e-11 -11796.4 -2.05213e-11 11802.8)
(108000 -1766.53 -3.30484e-11 -11212.6 -2.05758e-11 11666.8)
(106360 -1753.83 -3.29966e-11 -10699.3 -2.05849e-11 11545.3)
(104904 -1687.41 -3.29236e-11 -10295.1 -2.05545e-11 11434)
(103629 -1572.62 -3.28382e-11 -10034.2 -2.04878e-11 11330)
(102523 -1412.92 -3.27502e-11 -9956.96 -2.03861e-11 11228.7)
(101608 -1205.78 -3.26635e-11 -10105.2 -2.02466e-11 11129.3)
(100841 -946.66 -3.25852e-11 -10534.1 -2.0065e-11 11023.6)
(100358 -640.496 -3.25229e-11 -11293.4 -1.98431e-11 10920.8)
(99938.2 -207.911 -3.24553e-11 -12532.3 -1.95248e-11 10788.7)
(137341 9026.05 -2.48286e-11 -7118.22 -1.33018e-11 14919.6)
(133667 7991.56 -2.60467e-11 -10064.9 -1.39435e-11 14329.9)
(130729 6370.54 -2.73917e-11 -11586.5 -1.50097e-11 13916.3)
(127442 5093.09 -2.84595e-11 -12690.8 -1.58558e-11 13502.4)
(124488 3954.1 -2.93415e-11 -13235.8 -1.66203e-11 13164.5)
(121565 2984.83 -3.00618e-11 -13449.4 -1.72782e-11 12855.9)
(118867 2174.85 -3.0627e-11 -13358.9 -1.78351e-11 12593.4)
(116317 1506.66 -3.10663e-11 -13074.4 -1.83002e-11 12361.1)
(113969 968.368 -3.13958e-11 -12646.3 -1.86808e-11 12160.3)
(111800 542.464 -3.16374e-11 -12143.5 -1.89866e-11 11983.4)
(109822 215.319 -3.18067e-11 -11612.3 -1.92261e-11 11828)
(108024 -28.0348 -3.19224e-11 -11101.4 -1.94081e-11 11689.2)
(106405 -199.893 -3.19974e-11 -10650.5 -1.95398e-11 11563.9)
(104955 -311.347 -3.20462e-11 -10300.2 -1.96282e-11 11448)
(103679 -370.147 -3.20795e-11 -10086.6 -1.96771e-11 11338.9)
(102564 -386.852 -3.2111e-11 -10054.7 -1.9693e-11 11232.2)
(101635 -356.783 -3.21441e-11 -10243.5 -1.96719e-11 11127.2)
(100863 -302.794 -3.22031e-11 -10714.9 -1.96274e-11 11016.3)
(100372 -201.363 -3.22821e-11 -11540.3 -1.95418e-11 10906.4)
(99934.6 -52.3569 -3.24055e-11 -12835.1 -1.94133e-11 10766.5)
(133559 11923.6 -2.28028e-11 -5442.18 -1.14037e-11 14696.3)
(130477 10882 -2.40273e-11 -8492.94 -1.20454e-11 14156.5)
(128157 9279.69 -2.53626e-11 -10113.3 -1.30948e-11 13796)
(125339 7953.34 -2.64762e-11 -11379.6 -1.39682e-11 13415.4)
(122811 6721.47 -2.74326e-11 -12081.4 -1.47901e-11 13106.7)
(120226 5631.79 -2.82478e-11 -12456.5 -1.55243e-11 12818.1)
(117815 4678.42 -2.89207e-11 -12515.2 -1.6173e-11 12571.4)