/*--------------------------------*- C++ -*----------------------------------*\
  =========                 |
  \\      /  F ield         | OpenFOAM: The Open Source CFD Toolbox
   \\    /   O peration     | Website:  https://openfoam.org
    \\  /    A nd           | Version:  9
     \\/     M anipulation  |
\*---------------------------------------------------------------------------*/
FoamFile
{
    format      ascii;
    class       volVectorField;
    location    "15";
    object      D;
}
// * * * * * * * * * * * * * * * * * * * * * * * * * * * * * * * * * * * * * //

dimensions      [0 1 0 0 0 0 0];

internalField   nonuniform List<vector> 
1000
(
(1.01653e-05 3.4225e-06 0)
(9.48643e-06 3.77695e-06 0)
(8.99156e-06 4.07747e-06 0)
(8.6332e-06 4.31156e-06 0)
(8.37726e-06 4.51395e-06 0)
(8.19628e-06 4.68794e-06 0)
(8.07352e-06 4.84474e-06 0)
(7.99526e-06 4.98755e-06 0)
(7.9508e-06 5.12079e-06 0)
(7.93465e-06 5.24712e-06 0)
(9.16413e-06 3.08808e-06 0)
(8.45798e-06 3.34385e-06 0)
(7.94696e-06 3.57182e-06 0)
(7.57827e-06 3.7466e-06 0)
(7.31561e-06 3.90042e-06 0)
(7.12915e-06 4.03259e-06 0)
(7.00123e-06 4.15247e-06 0)
(6.91722e-06 4.26212e-06 0)
(6.86613e-06 4.36386e-06 0)
(6.84052e-06 4.46315e-06 0)
(8.13852e-06 2.75108e-06 0)
(7.4264e-06 2.9032e-06 0)
(6.91352e-06 3.05513e-06 0)
(6.54525e-06 3.17044e-06 0)
(6.28395e-06 3.27642e-06 0)
(6.09838e-06 3.36865e-06 0)
(5.97029e-06 3.45397e-06 0)
(5.88466e-06 3.53311e-06 0)
(5.83043e-06 3.60635e-06 0)
(5.79976e-06 3.67983e-06 0)
(7.09712e-06 2.41509e-06 0)
(6.39946e-06 2.46417e-06 0)
(5.89919e-06 2.53921e-06 0)
(5.54249e-06 2.59699e-06 0)
(5.29107e-06 2.65746e-06 0)
(5.11315e-06 2.71279e-06 0)
(4.99036e-06 2.76684e-06 0)
(4.90749e-06 2.81875e-06 0)
(4.85413e-06 2.8671e-06 0)
(4.82168e-06 2.91757e-06 0)
(6.04461e-06 2.08845e-06 0)
(5.38044e-06 2.03979e-06 0)
(4.90782e-06 2.03835e-06 0)
(4.5749e-06 2.04227e-06 0)
(4.34242e-06 2.06118e-06 0)
(4.17934e-06 2.08414e-06 0)
(4.06727e-06 2.11151e-06 0)
(3.99146e-06 2.14058e-06 0)
(3.9423e-06 2.16844e-06 0)
(3.91097e-06 2.19951e-06 0)
(4.98348e-06 1.77494e-06 0)
(4.37189e-06 1.63104e-06 0)
(3.94214e-06 1.56216e-06 0)
(3.64582e-06 1.51887e-06 0)
(3.44195e-06 1.50353e-06 0)
(3.30092e-06 1.50068e-06 0)
(3.20488e-06 1.50756e-06 0)
(3.14007e-06 1.51938e-06 0)
(3.09802e-06 1.53206e-06 0)
(3.07015e-06 1.54841e-06 0)
(3.91037e-06 1.47456e-06 0)
(3.36769e-06 1.24359e-06 0)
(3.00146e-06 1.12028e-06 0)
(2.75521e-06 1.04096e-06 0)
(2.59015e-06 1.00167e-06 0)
(2.47802e-06 9.81741e-07 0)
(2.40272e-06 9.75593e-07 0)
(2.35211e-06 9.76534e-07 0)
(2.31931e-06 9.79801e-07 0)
(2.29667e-06 9.86503e-07 0)
(2.84269e-06 1.16953e-06 0)
(2.37592e-06 8.75132e-07 0)
(2.09204e-06 7.18921e-07 0)
(1.9083e-06 6.22155e-07 0)
(1.79045e-06 5.73197e-07 0)
(1.71201e-06 5.47242e-07 0)
(1.66026e-06 5.36557e-07 0)
(1.62553e-06 5.33419e-07 0)
(1.60299e-06 5.33025e-07 0)
(1.58664e-06 5.35232e-07 0)
(1.73071e-06 8.36729e-07 0)
(1.38853e-06 5.21773e-07 0)
(1.21086e-06 3.63995e-07 0)
(1.1019e-06 2.78223e-07 0)
(1.0371e-06 2.37354e-07 0)
(9.94711e-07 2.17338e-07 0)
(9.67326e-07 2.09741e-07 0)
(9.48659e-07 2.07843e-07 0)
(9.36313e-07 2.07829e-07 0)
(9.26602e-07 2.0917e-07 0)
(6.03996e-07 4.34724e-07 0)
(4.41589e-07 1.99102e-07 0)
(3.86781e-07 9.6095e-08 0)
(3.57222e-07 5.42641e-08 0)
(3.39873e-07 3.70121e-08 0)
(3.28074e-07 3.08843e-08 0)
(3.20207e-07 2.9767e-08 0)
(3.14537e-07 3.06944e-08 0)
(3.10604e-07 3.1912e-08 0)
(3.07162e-07 3.33379e-08 0)
(1.79166e-05 5.53764e-06 0)
(1.7887e-05 6.22573e-06 0)
(1.78666e-05 6.86683e-06 0)
(1.78673e-05 7.45376e-06 0)
(1.78942e-05 7.99258e-06 0)
(1.79493e-05 8.48999e-06 0)
(1.80329e-05 8.95375e-06 0)
(1.81432e-05 9.3906e-06 0)
(1.82792e-05 9.80581e-06 0)
(1.84376e-05 1.02053e-05 0)
(1.73545e-05 5.49207e-06 0)
(1.72749e-05 6.17814e-06 0)
(1.72207e-05 6.81141e-06 0)
(1.71967e-05 7.38652e-06 0)
(1.72055e-05 7.91091e-06 0)
(1.72455e-05 8.39173e-06 0)
(1.73154e-05 8.83745e-06 0)
(1.74119e-05 9.25517e-06 0)
(1.75337e-05 9.65042e-06 0)
(1.7676e-05 1.00299e-05 0)
(1.67584e-05 5.39977e-06 0)
(1.66195e-05 6.08403e-06 0)
(1.65193e-05 6.7044e-06 0)
(1.64589e-05 7.26096e-06 0)
(1.6439e-05 7.76502e-06 0)
(1.64548e-05 8.22466e-06 0)
(1.65034e-05 8.64897e-06 0)
(1.658e-05 9.04513e-06 0)
(1.66827e-05 9.41888e-06 0)
(1.68051e-05 9.77714e-06 0)
(1.61142e-05 5.26563e-06 0)
(1.59089e-05 5.94654e-06 0)
(1.57552e-05 6.55109e-06 0)
(1.56517e-05 7.085e-06 0)
(1.55965e-05 7.56458e-06 0)
(1.55823e-05 7.99909e-06 0)
(1.56048e-05 8.39847e-06 0)
(1.56574e-05 8.77e-06 0)
(1.57378e-05 9.11966e-06 0)
(1.58376e-05 9.45427e-06 0)
(1.54147e-05 5.09092e-06 0)
(1.51365e-05 5.76303e-06 0)
(1.49256e-05 6.3468e-06 0)
(1.47767e-05 6.85283e-06 0)
(1.46842e-05 7.30308e-06 0)
(1.46384e-05 7.70812e-06 0)
(1.46332e-05 8.07888e-06 0)
(1.46606e-05 8.42258e-06 0)
(1.47177e-05 8.74553e-06 0)
(1.47945e-05 9.05408e-06 0)
(1.46588e-05 4.8797e-06 0)
(1.43036e-05 5.53374e-06 0)
(1.40343e-05 6.09071e-06 0)
(1.38401e-05 6.56402e-06 0)
(1.37108e-05 6.98098e-06 0)
(1.36337e-05 7.35302e-06 0)
(1.36013e-05 7.69209e-06 0)
(1.36038e-05 8.0052e-06 0)
(1.36381e-05 8.29905e-06 0)
(1.36926e-05 8.57921e-06 0)
(1.38486e-05 4.63521e-06 0)
(1.34154e-05 5.25869e-06 0)
(1.30889e-05 5.78121e-06 0)
(1.28514e-05 6.21653e-06 0)
(1.26875e-05 6.59637e-06 0)
(1.25814e-05 6.93234e-06 0)
(1.25237e-05 7.23717e-06 0)
(1.25034e-05 7.51748e-06 0)
(1.25165e-05 7.78032e-06 0)
(1.25505e-05 8.03029e-06 0)
(1.29883e-05 4.36198e-06 0)
(1.24797e-05 4.94047e-06 0)
(1.20998e-05 5.42002e-06 0)
(1.18228e-05 5.81217e-06 0)
(1.16278e-05 6.15152e-06 0)
(1.1496e-05 6.44899e-06 0)
(1.1416e-05 6.71776e-06 0)
(1.13756e-05 6.96371e-06 0)
(1.13699e-05 7.19423e-06 0)
(1.13861e-05 7.41245e-06 0)
(1.20834e-05 4.0649e-06 0)
(1.15063e-05 4.58316e-06 0)
(1.1079e-05 5.01095e-06 0)
(1.07677e-05 5.35478e-06 0)
(1.05464e-05 5.65063e-06 0)
(1.03931e-05 5.90778e-06 0)
(1.02944e-05 6.13927e-06 0)
(1.02374e-05 6.35019e-06 0)
(1.02156e-05 6.54746e-06 0)
(1.02172e-05 6.73349e-06 0)
(1.11403e-05 3.74939e-06 0)
(1.05053e-05 4.1926e-06 0)
(1.00389e-05 4.56043e-06 0)
(9.70007e-06 4.85134e-06 0)
(9.45809e-06 5.10133e-06 0)
(9.28805e-06 5.31704e-06 0)
(9.17487e-06 5.511e-06 0)
(9.10493e-06 5.68685e-06 0)
(9.07029e-06 5.85138e-06 0)
(9.06157e-06 6.00317e-06 0)
(1.86269e-05 1.05896e-05 0)
(1.88443e-05 1.0971e-05 0)
(1.90783e-05 1.13463e-05 0)
(1.93272e-05 1.17173e-05 0)
(1.95895e-05 1.20859e-05 0)
(1.98639e-05 1.24531e-05 0)
(2.01491e-05 1.28202e-05 0)
(2.0444e-05 1.3188e-05 0)
(2.07475e-05 1.35573e-05 0)
(2.10586e-05 1.39288e-05 0)
(2.13765e-05 1.43031e-05 0)
(2.17003e-05 1.46806e-05 0)
(2.20292e-05 1.50616e-05 0)
(2.23623e-05 1.54466e-05 0)
(2.26991e-05 1.58357e-05 0)
(2.30386e-05 1.6229e-05 0)
(2.33802e-05 1.66264e-05 0)
(2.37232e-05 1.70277e-05 0)
(2.40668e-05 1.74322e-05 0)
(2.44104e-05 1.78386e-05 0)
(1.78733e-05 1.03997e-05 0)
(1.81175e-05 1.07747e-05 0)
(1.83748e-05 1.11441e-05 0)
(1.8643e-05 1.15098e-05 0)
(1.89219e-05 1.18739e-05 0)
(1.92101e-05 1.22372e-05 0)
(1.9507e-05 1.26012e-05 0)
(1.98116e-05 1.29665e-05 0)
(2.01233e-05 1.3334e-05 0)
(2.04413e-05 1.37043e-05 0)
(2.0765e-05 1.40778e-05 0)
(2.10936e-05 1.44551e-05 0)
(2.14267e-05 1.48365e-05 0)
(2.17637e-05 1.52224e-05 0)
(2.2104e-05 1.56128e-05 0)
(2.2447e-05 1.60079e-05 0)
(2.27923e-05 1.64077e-05 0)
(2.31393e-05 1.68119e-05 0)
(2.34874e-05 1.72197e-05 0)
(2.3836e-05 1.76302e-05 0)
(1.70133e-05 1.0136e-05 0)
(1.72921e-05 1.05117e-05 0)
(1.75802e-05 1.08819e-05 0)
(1.78752e-05 1.12483e-05 0)
(1.81776e-05 1.16134e-05 0)
(1.84862e-05 1.19778e-05 0)
(1.8801e-05 1.23431e-05 0)
(1.91214e-05 1.271e-05 0)
(1.94469e-05 1.30794e-05 0)
(1.97771e-05 1.34517e-05 0)
(2.01116e-05 1.38276e-05 0)
(2.04501e-05 1.42076e-05 0)
(2.07921e-05 1.4592e-05 0)
(2.11374e-05 1.49811e-05 0)
(2.14855e-05 1.53752e-05 0)
(2.18361e-05 1.57745e-05 0)
(2.21889e-05 1.61788e-05 0)
(2.25433e-05 1.65882e-05 0)
(2.28991e-05 1.70023e-05 0)
(2.32552e-05 1.74204e-05 0)
(1.60595e-05 9.80429e-06 0)
(1.63793e-05 1.01861e-05 0)
(1.6705e-05 1.05626e-05 0)
(1.70328e-05 1.09346e-05 0)
(1.73648e-05 1.13053e-05 0)
(1.76997e-05 1.1675e-05 0)
(1.8038e-05 1.20455e-05 0)
(1.83792e-05 1.24175e-05 0)
(1.87236e-05 1.2792e-05 0)
(1.90707e-05 1.31695e-05 0)
(1.94207e-05 1.35508e-05 0)
(1.97732e-05 1.39361e-05 0)
(2.01282e-05 1.43261e-05 0)
(2.04855e-05 1.4721e-05 0)
(2.0845e-05 1.51211e-05 0)
(2.12065e-05 1.55268e-05 0)
(2.15698e-05 1.59381e-05 0)
(2.19345e-05 1.63552e-05 0)
(2.23004e-05 1.67782e-05 0)
(2.26664e-05 1.72068e-05 0)
(1.50326e-05 9.39828e-06 0)
(1.53982e-05 9.79233e-06 0)
(1.57664e-05 1.01814e-05 0)
(1.61318e-05 1.05646e-05 0)
(1.64981e-05 1.0946e-05 0)
(1.68635e-05 1.13257e-05 0)
(1.72295e-05 1.17058e-05 0)
(1.75957e-05 1.20869e-05 0)
(1.79627e-05 1.24702e-05 0)
(1.83305e-05 1.28563e-05 0)
(1.86992e-05 1.3246e-05 0)
(1.90691e-05 1.36397e-05 0)
(1.94401e-05 1.40379e-05 0)
(1.98123e-05 1.44412e-05 0)
(2.01859e-05 1.48498e-05 0)
(2.05607e-05 1.52642e-05 0)
(2.09368e-05 1.56848e-05 0)
(2.13138e-05 1.61119e-05 0)
(2.16918e-05 1.6546e-05 0)
(2.20696e-05 1.69873e-05 0)
(1.39492e-05 8.92032e-06 0)
(1.43642e-05 9.33236e-06 0)
(1.47787e-05 9.73981e-06 0)
(1.51851e-05 1.01393e-05 0)
(1.5589e-05 1.05364e-05 0)
(1.59884e-05 1.09306e-05 0)
(1.63854e-05 1.13245e-05 0)
(1.67797e-05 1.17186e-05 0)
(1.71724e-05 1.21143e-05 0)
(1.75636e-05 1.25123e-05 0)
(1.79538e-05 1.29135e-05 0)
(1.83435e-05 1.33184e-05 0)
(1.87329e-05 1.37276e-05 0)
(1.91222e-05 1.41418e-05 0)
(1.95118e-05 1.45613e-05 0)
(1.99018e-05 1.49867e-05 0)
(2.02924e-05 1.54187e-05 0)
(2.06834e-05 1.58577e-05 0)
(2.10749e-05 1.63047e-05 0)
(2.14663e-05 1.67603e-05 0)
(1.28273e-05 8.37132e-06 0)
(1.32935e-05 8.8071e-06 0)
(1.37564e-05 9.23859e-06 0)
(1.42061e-05 9.65978e-06 0)
(1.465e-05 1.00772e-05 0)
(1.50857e-05 1.04905e-05 0)
(1.55159e-05 1.09021e-05 0)
(1.59406e-05 1.13131e-05 0)
(1.63611e-05 1.17247e-05 0)
(1.67778e-05 1.2138e-05 0)
(1.71915e-05 1.25537e-05 0)
(1.76028e-05 1.29727e-05 0)
(1.80123e-05 1.33957e-05 0)
(1.84203e-05 1.38232e-05 0)
(1.88274e-05 1.4256e-05 0)
(1.92339e-05 1.46946e-05 0)
(1.96402e-05 1.51398e-05 0)
(2.00463e-05 1.55924e-05 0)
(2.04525e-05 1.60539e-05 0)
(2.08586e-05 1.65248e-05 0)
(1.16837e-05 7.75618e-06 0)
(1.22012e-05 8.22114e-06 0)
(1.27132e-05 8.6812e-06 0)
(1.32072e-05 9.12898e-06 0)
(1.36921e-05 9.57107e-06 0)
(1.41655e-05 1.00076e-05 0)
(1.46303e-05 1.04411e-05 0)
(1.50869e-05 1.08726e-05 0)
(1.55367e-05 1.13036e-05 0)
(1.59804e-05 1.17353e-05 0)
(1.6419e-05 1.21686e-05 0)
(1.68533e-05 1.26045e-05 0)
(1.7284e-05 1.30437e-05 0)
(1.77118e-05 1.34869e-05 0)
(1.81374e-05 1.3935e-05 0)
(1.85613e-05 1.43887e-05 0)
(1.8984e-05 1.48489e-05 0)
(1.9406e-05 1.53166e-05 0)
(1.98276e-05 1.57934e-05 0)
(2.02492e-05 1.62803e-05 0)
(1.05356e-05 7.08069e-06 0)
(1.1103e-05 7.58052e-06 0)
(1.16628e-05 8.07266e-06 0)
(1.22013e-05 8.55157e-06 0)
(1.27272e-05 9.02186e-06 0)
(1.32387e-05 9.48517e-06 0)
(1.37386e-05 9.94356e-06 0)
(1.42276e-05 1.03988e-05 0)
(1.47073e-05 1.08522e-05 0)
(1.51787e-05 1.13053e-05 0)
(1.56429e-05 1.1759e-05 0)
(1.61008e-05 1.22145e-05 0)
(1.65534e-05 1.26725e-05 0)
(1.70017e-05 1.31339e-05 0)
(1.74462e-05 1.35995e-05 0)
(1.7888e-05 1.40702e-05 0)
(1.83276e-05 1.45471e-05 0)
(1.87658e-05 1.5031e-05 0)
(1.92032e-05 1.5524e-05 0)
(1.96407e-05 1.6027e-05 0)
(9.39634e-06 6.35522e-06 0)
(1.00111e-05 6.89347e-06 0)
(1.06137e-05 7.41875e-06 0)
(1.11957e-05 7.93208e-06 0)
(1.17617e-05 8.43437e-06 0)
(1.23115e-05 8.92804e-06 0)
(1.2847e-05 9.41491e-06 0)
(1.33691e-05 9.89688e-06 0)
(1.38794e-05 1.03756e-05 0)
(1.43791e-05 1.08526e-05 0)
(1.48693e-05 1.13292e-05 0)
(1.53513e-05 1.18064e-05 0)
(1.58262e-05 1.22853e-05 0)
(1.62951e-05 1.27667e-05 0)
(1.67589e-05 1.32517e-05 0)
(1.72186e-05 1.37409e-05 0)
(1.76751e-05 1.42357e-05 0)
(1.81295e-05 1.47369e-05 0)
(1.85826e-05 1.52465e-05 0)
(1.90359e-05 1.57656e-05 0)
(8.51718e-06 5.8112e-06 0)
(9.15829e-06 6.3774e-06 0)
(9.78337e-06 6.92142e-06 0)
(1.0389e-05 7.45439e-06 0)
(1.09778e-05 7.97626e-06 0)
(1.15497e-05 8.4893e-06 0)
(1.21062e-05 8.99521e-06 0)
(1.26484e-05 9.49564e-06 0)
(1.31774e-05 9.99215e-06 0)
(1.36945e-05 1.04861e-05 0)
(1.4201e-05 1.09788e-05 0)
(1.46979e-05 1.14712e-05 0)
(1.51865e-05 1.19644e-05 0)
(1.56679e-05 1.24592e-05 0)
(1.61432e-05 1.29564e-05 0)
(1.66134e-05 1.3457e-05 0)
(1.70797e-05 1.39618e-05 0)
(1.75433e-05 1.4472e-05 0)
(1.80051e-05 1.4989e-05 0)
(1.84674e-05 1.55139e-05 0)
(7.9302e-06 5.48567e-06 0)
(8.57142e-06 6.05184e-06 0)
(9.19671e-06 6.60034e-06 0)
(9.80437e-06 7.13934e-06 0)
(1.03961e-05 7.66865e-06 0)
(1.09718e-05 8.18985e-06 0)
(1.15326e-05 8.70428e-06 0)
(1.20793e-05 9.21327e-06 0)
(1.26129e-05 9.71812e-06 0)
(1.31345e-05 1.022e-05 0)
(1.36451e-05 1.07199e-05 0)
(1.4146e-05 1.12189e-05 0)
(1.4638e-05 1.17177e-05 0)
(1.51225e-05 1.22173e-05 0)
(1.56004e-05 1.27183e-05 0)
(1.60728e-05 1.32214e-05 0)
(1.6541e-05 1.37275e-05 0)
(1.70062e-05 1.42374e-05 0)
(1.74694e-05 1.47524e-05 0)
(1.79333e-05 1.52732e-05 0)
(7.41203e-06 5.17311e-06 0)
(8.04171e-06 5.73763e-06 0)
(8.66061e-06 6.28773e-06 0)
(9.26361e-06 6.8304e-06 0)
(9.85294e-06 7.36507e-06 0)
(1.04275e-05 7.89272e-06 0)
(1.09884e-05 8.41435e-06 0)
(1.15359e-05 8.93089e-06 0)
(1.20708e-05 9.44332e-06 0)
(1.25941e-05 9.95256e-06 0)
(1.31065e-05 1.04595e-05 0)
(1.36092e-05 1.09648e-05 0)
(1.4103e-05 1.14693e-05 0)
(1.45891e-05 1.19736e-05 0)
(1.50685e-05 1.24783e-05 0)
(1.55423e-05 1.29839e-05 0)
(1.60116e-05 1.34912e-05 0)
(1.64778e-05 1.40006e-05 0)
(1.6942e-05 1.45131e-05 0)
(1.7407e-05 1.50291e-05 0)
(6.9476e-06 4.87208e-06 0)
(7.56219e-06 5.43206e-06 0)
(8.16996e-06 5.98168e-06 0)
(8.76395e-06 6.52651e-06 0)
(9.34663e-06 7.06526e-06 0)
(9.91617e-06 7.59836e-06 0)
(1.04735e-05 8.12633e-06 0)
(1.10185e-05 8.6497e-06 0)
(1.15518e-05 9.16916e-06 0)
(1.20741e-05 9.68533e-06 0)
(1.25861e-05 1.01988e-05 0)
(1.30887e-05 1.07103e-05 0)
(1.35827e-05 1.12202e-05 0)
(1.4069e-05 1.1729e-05 0)
(1.45487e-05 1.22373e-05 0)
(1.50229e-05 1.27453e-05 0)
(1.54926e-05 1.32535e-05 0)
(1.59593e-05 1.37624e-05 0)
(1.6424e-05 1.42722e-05 0)
(1.68896e-05 1.4783e-05 0)
(6.53161e-06 4.58577e-06 0)
(7.12768e-06 5.13952e-06 0)
(7.72051e-06 5.68686e-06 0)
(8.30183e-06 6.23201e-06 0)
(8.87431e-06 6.77315e-06 0)
(9.43551e-06 7.31021e-06 0)
(9.98617e-06 7.84322e-06 0)
(1.05258e-05 8.37235e-06 0)
(1.10551e-05 8.89791e-06 0)
(1.15741e-05 9.42026e-06 0)
(1.20837e-05 9.93978e-06 0)
(1.25843e-05 1.04568e-05 0)
(1.30769e-05 1.09718e-05 0)
(1.35623e-05 1.14849e-05 0)
(1.40413e-05 1.19965e-05 0)
(1.45149e-05 1.25068e-05 0)
(1.49843e-05 1.30158e-05 0)
(1.54505e-05 1.35239e-05 0)
(1.59156e-05 1.40305e-05 0)
(1.63815e-05 1.4536e-05 0)
(6.15604e-06 4.31402e-06 0)
(6.73173e-06 4.85996e-06 0)
(7.30711e-06 5.40346e-06 0)
(7.87325e-06 5.94746e-06 0)
(8.43285e-06 6.48961e-06 0)
(8.98308e-06 7.02937e-06 0)
(9.52454e-06 7.5663e-06 0)
(1.00565e-05 8.10017e-06 0)
(1.05794e-05 8.63096e-06 0)
(1.10932e-05 9.15872e-06 0)
(1.15985e-05 9.68359e-06 0)
(1.20957e-05 1.02057e-05 0)
(1.25855e-05 1.07252e-05 0)
(1.30687e-05 1.12422e-05 0)
(1.3546e-05 1.17569e-05 0)
(1.40184e-05 1.22691e-05 0)
(1.44868e-05 1.27788e-05 0)
(1.49526e-05 1.32857e-05 0)
(1.54166e-05 1.37895e-05 0)
(1.58817e-05 1.42899e-05 0)
(5.8144e-06 4.05704e-06 0)
(6.36855e-06 4.59424e-06 0)
(6.92471e-06 5.13278e-06 0)
(7.47381e-06 5.67436e-06 0)
(8.01847e-06 6.21624e-06 0)
(8.55569e-06 6.75747e-06 0)
(9.08592e-06 7.29715e-06 0)
(9.60826e-06 7.83469e-06 0)
(1.01229e-05 8.36975e-06 0)
(1.06298e-05 8.90207e-06 0)
(1.11292e-05 9.43153e-06 0)
(1.16216e-05 9.95805e-06 0)
(1.21075e-05 1.04816e-05 0)
(1.25875e-05 1.1002e-05 0)
(1.30622e-05 1.15193e-05 0)
(1.35326e-05 1.20331e-05 0)
(1.39994e-05 1.25433e-05 0)
(1.4464e-05 1.30493e-05 0)
(1.49269e-05 1.35502e-05 0)
(1.53908e-05 1.40457e-05 0)
(5.50029e-06 3.8142e-06 0)
(6.03233e-06 4.34207e-06 0)
(6.56821e-06 4.8748e-06 0)
(7.09902e-06 5.41299e-06 0)
(7.6273e-06 5.95358e-06 0)
(8.14997e-06 6.49524e-06 0)
(8.66738e-06 7.03664e-06 0)
(9.17853e-06 7.57688e-06 0)
(9.68345e-06 8.11527e-06 0)
(1.0182e-05 8.6513e-06 0)
(1.06743e-05 9.18458e-06 0)
(1.11608e-05 9.71481e-06 0)
(1.16416e-05 1.02417e-05 0)
(1.21175e-05 1.07651e-05 0)
(1.25889e-05 1.12846e-05 0)
(1.30567e-05 1.17998e-05 0)
(1.35213e-05 1.23103e-05 0)
(1.39841e-05 1.28153e-05 0)
(1.44456e-05 1.33136e-05 0)
(1.4908e-05 1.38045e-05 0)
(5.20802e-06 3.58478e-06 0)
(5.71774e-06 4.10314e-06 0)
(6.23269e-06 4.62956e-06 0)
(6.74441e-06 5.16366e-06 0)
(7.25526e-06 5.70214e-06 0)
(7.76226e-06 6.24333e-06 0)
(8.26567e-06 6.78554e-06 0)
(8.76441e-06 7.32756e-06 0)
(9.25845e-06 7.86839e-06 0)
(9.74751e-06 8.40727e-06 0)
(1.02317e-05 8.94358e-06 0)
(1.07112e-05 9.4768e-06 0)
(1.11862e-05 1.00065e-05 0)
(1.16573e-05 1.05322e-05 0)
(1.21247e-05 1.10535e-05 0)
(1.25892e-05 1.15698e-05 0)
(1.30513e-05 1.20804e-05 0)
(1.3512e-05 1.25845e-05 0)
(1.39716e-05 1.30805e-05 0)
(1.44322e-05 1.35676e-05 0)
(4.93232e-06 3.3679e-06 0)
(5.41971e-06 3.87686e-06 0)
(5.91342e-06 4.39673e-06 0)
(6.40552e-06 4.92628e-06 0)
(6.89826e-06 5.46206e-06 0)
(7.3888e-06 6.00205e-06 0)
(7.87733e-06 6.54427e-06 0)
(8.36278e-06 7.08724e-06 0)
(8.84504e-06 7.62969e-06 0)
(9.32378e-06 8.17061e-06 0)
(9.79901e-06 8.70917e-06 0)
(1.02708e-05 9.24465e-06 0)
(1.07393e-05 9.77644e-06 0)
(1.12049e-05 1.03039e-05 0)
(1.16679e-05 1.08266e-05 0)
(1.21287e-05 1.13436e-05 0)
(1.25879e-05 1.18542e-05 0)
(1.30461e-05 1.23575e-05 0)
(1.35036e-05 1.28516e-05 0)
(1.39619e-05 1.33356e-05 0)
(4.66834e-06 3.1627e-06 0)
(5.13348e-06 3.66263e-06 0)
(5.60578e-06 4.17594e-06 0)
(6.07798e-06 4.7007e-06 0)
(6.55216e-06 5.23332e-06 0)
(7.0257e-06 5.77154e-06 0)
(7.49876e-06 6.31309e-06 0)
(7.97029e-06 6.85628e-06 0)
(8.44015e-06 7.39957e-06 0)
(8.90794e-06 7.94177e-06 0)
(9.37363e-06 8.48182e-06 0)
(9.83717e-06 9.01886e-06 0)
(1.02987e-05 9.5521e-06 0)
(1.07584e-05 1.00808e-05 0)
(1.12165e-05 1.06043e-05 0)
(1.16733e-05 1.11218e-05 0)
(1.21292e-05 1.16323e-05 0)
(1.25847e-05 1.21348e-05 0)
(1.30399e-05 1.26275e-05 0)
(1.34958e-05 1.31093e-05 0)
(4.41152e-06 2.96848e-06 0)
(4.85449e-06 3.45988e-06 0)
(5.30531e-06 3.96677e-06 0)
(5.75743e-06 4.48665e-06 0)
(6.21279e-06 5.01583e-06 0)
(6.66902e-06 5.55181e-06 0)
(7.12624e-06 6.09212e-06 0)
(7.58348e-06 6.63485e-06 0)
(8.04053e-06 7.17829e-06 0)
(8.497e-06 7.72103e-06 0)
(8.95277e-06 8.26186e-06 0)
(9.40773e-06 8.79976e-06 0)
(9.86192e-06 9.33381e-06 0)
(1.03154e-05 9.86319e-06 0)
(1.07684e-05 1.03871e-05 0)
(1.1221e-05 1.09046e-05 0)
(1.16735e-05 1.14149e-05 0)
(1.21261e-05 1.19168e-05 0)
(1.25789e-05 1.24085e-05 0)
(1.30322e-05 1.2889e-05 0)
(4.15749e-06 2.78455e-06 0)
(4.57828e-06 3.26804e-06 0)
(5.00757e-06 3.76878e-06 0)
(5.43952e-06 4.2838e-06 0)
(5.87593e-06 4.80934e-06 0)
(6.3147e-06 5.34271e-06 0)
(6.75592e-06 5.88129e-06 0)
(7.1987e-06 6.42298e-06 0)
(7.64279e-06 6.9659e-06 0)
(8.08779e-06 7.5085e-06 0)
(8.5335e-06 8.04942e-06 0)
(8.97975e-06 8.58752e-06 0)
(9.42648e-06 9.12176e-06 0)
(9.87368e-06 9.65124e-06 0)
(1.03214e-05 1.01751e-05 0)
(1.07697e-05 1.06924e-05 0)
(1.12187e-05 1.12023e-05 0)
(1.16683e-05 1.17036e-05 0)
(1.21186e-05 1.21948e-05 0)
(1.25694e-05 1.26749e-05 0)
(3.90191e-06 2.61064e-06 0)
(4.30043e-06 3.08687e-06 0)
(4.7081e-06 3.58174e-06 0)
(5.11983e-06 4.09196e-06 0)
(5.53727e-06 4.61369e-06 0)
(5.95859e-06 5.14412e-06 0)
(6.38385e-06 5.68049e-06 0)
(6.81221e-06 6.22057e-06 0)
(7.24342e-06 6.76235e-06 0)
(7.67702e-06 7.30416e-06 0)
(8.11276e-06 7.84451e-06 0)
(8.55039e-06 8.38216e-06 0)
(8.98976e-06 8.916e-06 0)
(9.43075e-06 9.44503e-06 0)
(9.87328e-06 9.96835e-06 0)
(1.03173e-05 1.04851e-05 0)
(1.07628e-05 1.09944e-05 0)
(1.12096e-05 1.14953e-05 0)
(1.16574e-05 1.19864e-05 0)
(1.21057e-05 1.24669e-05 0)
(3.64028e-06 2.44627e-06 0)
(4.0163e-06 2.91586e-06 0)
(4.40223e-06 3.40516e-06 0)
(4.79374e-06 3.91064e-06 0)
(5.19231e-06 4.42843e-06 0)
(5.59634e-06 4.95562e-06 0)
(6.00588e-06 5.48935e-06 0)
(6.42012e-06 6.0273e-06 0)
(6.83876e-06 6.56735e-06 0)
(7.2613e-06 7.10775e-06 0)
(7.68742e-06 7.64691e-06 0)
(8.11678e-06 8.18352e-06 0)
(8.54911e-06 8.71638e-06 0)
(8.98418e-06 9.24447e-06 0)
(9.4218e-06 9.76685e-06 0)
(9.86178e-06 1.02827e-05 0)
(1.03039e-05 1.07912e-05 0)
(1.07479e-05 1.12916e-05 0)
(1.11935e-05 1.17829e-05 0)
(1.16395e-05 1.22645e-05 0)
(3.36798e-06 2.29198e-06 0)
(3.72116e-06 2.75539e-06 0)
(4.08519e-06 3.23925e-06 0)
(4.45655e-06 3.73994e-06 0)
(4.83645e-06 4.25353e-06 0)
(5.22355e-06 4.77708e-06 0)
(5.6178e-06 5.30766e-06 0)
(6.01844e-06 5.84289e-06 0)
(6.4251e-06 6.3806e-06 0)
(6.83721e-06 6.91895e-06 0)
(7.25434e-06 7.4563e-06 0)
(7.67605e-06 7.99127e-06 0)
(8.10194e-06 8.52261e-06 0)
(8.53165e-06 9.04926e-06 0)
(8.96484e-06 9.5703e-06 0)
(9.40119e-06 1.00849e-05 0)
(9.84037e-06 1.05924e-05 0)
(1.02819e-05 1.10923e-05 0)
(1.07254e-05 1.15838e-05 0)
(1.11695e-05 1.2067e-05 0)
(3.0796e-06 2.14695e-06 0)
(3.40953e-06 2.60455e-06 0)
(3.75156e-06 3.08306e-06 0)
(4.10293e-06 3.57885e-06 0)
(4.46456e-06 4.08798e-06 0)
(4.83531e-06 4.60751e-06 0)
(5.215e-06 5.13447e-06 0)
(5.60288e-06 5.66645e-06 0)
(5.99845e-06 6.20125e-06 0)
(6.40108e-06 6.73697e-06 0)
(6.8102e-06 7.27195e-06 0)
(7.22523e-06 7.80475e-06 0)
(7.64563e-06 8.3341e-06 0)
(8.07086e-06 8.85891e-06 0)
(8.50044e-06 9.37826e-06 0)
(8.93387e-06 9.89137e-06 0)
(9.37067e-06 1.03977e-05 0)
(9.81025e-06 1.08968e-05 0)
(1.0252e-05 1.13886e-05 0)
(1.06947e-05 1.18735e-05 0)
(2.76982e-06 2.01346e-06 0)
(3.07605e-06 2.46511e-06 0)
(3.39605e-06 2.9379e-06 0)
(3.72776e-06 3.42828e-06 0)
(4.07174e-06 3.93234e-06 0)
(4.42697e-06 4.44714e-06 0)
(4.79312e-06 4.96974e-06 0)
(5.16938e-06 5.49773e-06 0)
(5.55511e-06 6.02886e-06 0)
(5.94955e-06 6.56125e-06 0)
(6.35197e-06 7.0932e-06 0)
(6.76164e-06 7.62324e-06 0)
(7.17784e-06 8.15009e-06 0)
(7.59985e-06 8.67264e-06 0)
(8.02698e-06 9.18997e-06 0)
(8.45854e-06 9.70133e-06 0)
(8.89385e-06 1.02062e-05 0)
(9.33218e-06 1.07045e-05 0)
(9.77279e-06 1.11964e-05 0)
(1.02145e-05 1.16828e-05 0)
(2.43081e-06 1.88831e-06 0)
(2.71305e-06 2.33391e-06 0)
(3.01125e-06 2.8007e-06 0)
(3.32396e-06 3.28528e-06 0)
(3.65131e-06 3.78382e-06 0)
(3.99231e-06 4.2934e-06 0)
(4.3464e-06 4.81111e-06 0)
(4.71266e-06 5.33455e-06 0)
(5.09027e-06 5.8615e-06 0)
(5.4783e-06 6.39004e-06 0)
(5.87586e-06 6.91849e-06 0)
(6.282e-06 7.44537e-06 0)
(6.69582e-06 7.96937e-06 0)
(7.11639e-06 8.48939e-06 0)
(7.5428e-06 9.0045e-06 0)
(7.9741e-06 9.51396e-06 0)
(8.40938e-06 1.00173e-05 0)
(8.84765e-06 1.05146e-05 0)
(9.28803e-06 1.10062e-05 0)
(9.72932e-06 1.14937e-05 0)
(2.05817e-06 1.77886e-06 0)
(2.31626e-06 2.21697e-06 0)
(2.59319e-06 2.67627e-06 0)
(2.88782e-06 3.1536e-06 0)
(3.19985e-06 3.6452e-06 0)
(3.52817e-06 4.14821e-06 0)
(3.87198e-06 4.65976e-06 0)
(4.23014e-06 5.17746e-06 0)
(4.60163e-06 5.69913e-06 0)
(4.98531e-06 6.22285e-06 0)
(5.38007e-06 6.74693e-06 0)
(5.78479e-06 7.2699e-06 0)
(6.19834e-06 7.79047e-06 0)
(6.61958e-06 8.30751e-06 0)
(7.04734e-06 8.82012e-06 0)
(7.48041e-06 9.32758e-06 0)
(7.91758e-06 9.82946e-06 0)
(8.35747e-06 1.03257e-05 0)
(8.79896e-06 1.0817e-05 0)
(9.24055e-06 1.13047e-05 0)
(2.96908e-07 3.18708e-08 0)
(8.96705e-07 1.97265e-07 0)
(1.53424e-06 5.06011e-07 0)
(2.21776e-06 9.37373e-07 0)
(2.96049e-06 1.47963e-06 0)
(3.76658e-06 2.11341e-06 0)
(4.63923e-06 2.81806e-06 0)
(5.57691e-06 3.57194e-06 0)
(6.57678e-06 4.35324e-06 0)
(7.63356e-06 5.14405e-06 0)
(2.79656e-07 2.85115e-08 0)
(8.45236e-07 1.77178e-07 0)
(1.44486e-06 4.57503e-07 0)
(2.08491e-06 8.52716e-07 0)
(2.77744e-06 1.35399e-06 0)
(3.5263e-06 1.94507e-06 0)
(4.33479e-06 2.60801e-06 0)
(5.20153e-06 3.32375e-06 0)
(6.12327e-06 4.07133e-06 0)
(7.09453e-06 4.83655e-06 0)
(2.64144e-07 2.4517e-08 0)
(7.99045e-07 1.56805e-07 0)
(1.36512e-06 4.10572e-07 0)
(1.96662e-06 7.7206e-07 0)
(2.61431e-06 1.23465e-06 0)
(3.31144e-06 1.78458e-06 0)
(4.06156e-06 2.40624e-06 0)
(4.86414e-06 3.08321e-06 0)
(5.71795e-06 3.79647e-06 0)
(6.61707e-06 4.53592e-06 0)
(2.49953e-07 1.98803e-08 0)
(7.56968e-07 1.36355e-07 0)
(1.29334e-06 3.66153e-07 0)
(1.86142e-06 6.9767e-07 0)
(2.47078e-06 1.12591e-06 0)
(3.12384e-06 1.63902e-06 0)
(3.82391e-06 2.22306e-06 0)
(4.57005e-06 2.86339e-06 0)
(5.3624e-06 3.54197e-06 0)
(6.19379e-06 4.25006e-06 0)
(2.36684e-07 1.45462e-08 0)
(7.17687e-07 1.15095e-07 0)
(1.2268e-06 3.22171e-07 0)
(1.76459e-06 6.25776e-07 0)
(2.33964e-06 1.02211e-06 0)
(2.95355e-06 1.50084e-06 0)
(3.60962e-06 2.04953e-06 0)
(4.3065e-06 2.65517e-06 0)
(5.04576e-06 3.30128e-06 0)
(5.81792e-06 3.97898e-06 0)
(2.24232e-07 8.61279e-09 0)
(6.80877e-07 9.31801e-08 0)
(1.16489e-06 2.78877e-07 0)
(1.67523e-06 5.56875e-07 0)
(2.21962e-06 9.2423e-07 0)
(2.79878e-06 1.37172e-06 0)
(3.41587e-06 1.88798e-06 0)
(4.06894e-06 2.46108e-06 0)
(4.76085e-06 3.07599e-06 0)
(5.4806e-06 3.72325e-06 0)
(2.12342e-07 2.04934e-09 0)
(6.45755e-07 7.02884e-08 0)
(1.10612e-06 2.35341e-07 0)
(1.59096e-06 4.8925e-07 0)
(2.10728e-06 8.29698e-07 0)
(2.65504e-06 1.24832e-06 0)
(3.23732e-06 1.73472e-06 0)
(3.85157e-06 2.27773e-06 0)
(4.50155e-06 2.8638e-06 0)
(5.17517e-06 3.48242e-06 0)
(2.00923e-07 -5.05568e-09 0)
(6.12029e-07 4.65242e-08 0)
(1.04991e-06 1.916e-07 0)
(1.51082e-06 4.22856e-07 0)
(2.00114e-06 7.3841e-07 0)
(2.52011e-06 1.13049e-06 0)
(3.07073e-06 1.58944e-06 0)
(3.64999e-06 2.1046e-06 0)
(4.26224e-06 2.66376e-06 0)
(4.89502e-06 3.25558e-06 0)
(1.89824e-07 -1.27019e-08 0)
(5.79262e-07 2.17587e-08 0)
(9.9547e-07 1.47242e-07 0)
(1.43353e-06 3.56907e-07 0)
(1.89933e-06 6.49176e-07 0)
(2.39151e-06 1.0167e-06 0)
(2.91295e-06 1.45042e-06 0)
(3.46037e-06 1.94003e-06 0)
(4.03835e-06 2.47445e-06 0)
(4.63462e-06 3.04166e-06 0)
(1.78969e-07 -2.08416e-08 0)
(5.47207e-07 -3.95712e-09 0)
(9.42315e-07 1.02227e-07 0)
(1.35832e-06 2.91247e-07 0)
(1.80063e-06 5.61687e-07 0)
(2.26742e-06 9.06459e-07 0)
(2.76146e-06 1.31696e-06 0)
(3.27938e-06 1.78311e-06 0)
(3.82575e-06 2.29477e-06 0)
(4.3889e-06 2.83953e-06 0)
(1.68268e-07 -2.9478e-08 0)
(5.15604e-07 -3.06848e-08 0)
(8.89972e-07 5.63591e-08 0)
(1.28438e-06 2.255e-07 0)
(1.70385e-06 4.75372e-07 0)
(2.14617e-06 7.99022e-07 0)
(2.61401e-06 1.18816e-06 0)
(3.10407e-06 1.63287e-06 0)
(3.62079e-06 2.12371e-06 0)
(4.15336e-06 2.64815e-06 0)
(1.57663e-07 -3.85895e-08 0)
(4.8429e-07 -5.84222e-08 0)
(8.38115e-07 9.58205e-09 0)
(1.21115e-06 1.5956e-07 0)
(1.60802e-06 3.90041e-07 0)
(2.0263e-06 6.94084e-07 0)
(2.46857e-06 1.06357e-06 0)
(2.93178e-06 1.48869e-06 0)
(3.42012e-06 1.96056e-06 0)
(3.92385e-06 2.46669e-06 0)
(1.47116e-07 -4.82007e-08 0)
(4.53195e-07 -8.72603e-08 0)
(7.86534e-07 -3.82546e-08 0)
(1.13814e-06 9.32285e-08 0)
(1.5123e-06 3.05436e-07 0)
(1.90648e-06 5.91311e-07 0)
(2.32327e-06 9.42766e-07 0)
(2.75998e-06 1.35006e-06 0)
(3.22056e-06 1.8047e-06 0)
(3.69643e-06 2.29441e-06 0)
(1.36626e-07 -5.83895e-08 0)
(4.22365e-07 -1.17302e-07 0)
(7.35152e-07 -8.71948e-08 0)
(1.06503e-06 2.65704e-08 0)
(1.41593e-06 2.21686e-07 0)
(1.78547e-06 4.90837e-07 0)
(2.17628e-06 8.25828e-07 0)
(2.58622e-06 1.21696e-06 0)
(3.01899e-06 1.65602e-06 0)
(3.46725e-06 2.13105e-06 0)
(1.26286e-07 -6.93063e-08 0)
(3.92167e-07 -1.48806e-07 0)
(6.84232e-07 -1.37474e-07 0)
(9.9172e-07 -4.05699e-08 0)
(1.31832e-06 1.38704e-07 0)
(1.66204e-06 3.92583e-07 0)
(2.02574e-06 7.1264e-07 0)
(2.40792e-06 1.08919e-06 0)
(2.81213e-06 1.51423e-06 0)
(3.23228e-06 1.97617e-06 0)
(1.16292e-07 -8.14527e-08 0)
(3.63207e-07 -1.82141e-07 0)
(6.34218e-07 -1.88994e-07 0)
(9.18226e-07 -1.07586e-07 0)
(1.21886e-06 5.74296e-08 0)
(1.53493e-06 2.97646e-07 0)
(1.86968e-06 6.04314e-07 0)
(2.22242e-06 9.67779e-07 0)
(2.59659e-06 1.38022e-06 0)
(2.98741e-06 1.8305e-06 0)
(1.07378e-07 -9.54292e-08 0)
(3.37378e-07 -2.18058e-07 0)
(5.86675e-07 -2.42256e-07 0)
(8.45199e-07 -1.74814e-07 0)
(1.11714e-06 -2.23474e-08 0)
(1.40269e-06 2.05819e-07 0)
(1.70572e-06 5.00594e-07 0)
(2.02646e-06 8.52354e-07 0)
(2.36828e-06 1.25349e-06 0)
(2.72772e-06 1.69334e-06 0)
(1.01108e-07 -1.13805e-07 0)
(3.16876e-07 -2.57694e-07 0)
(5.43109e-07 -2.96185e-07 0)
(7.72949e-07 -2.39574e-07 0)
(1.01245e-06 -9.71863e-08 0)
(1.26362e-06 1.20813e-07 0)
(1.53129e-06 4.0513e-07 0)
(1.81665e-06 7.46368e-07 0)
(2.12305e-06 1.13717e-06 0)
(2.44832e-06 1.56748e-06 0)
(1.05095e-07 -1.38492e-07 0)
(3.09902e-07 -3.0248e-07 0)
(5.08739e-07 -3.51799e-07 0)
(7.03299e-07 -3.03418e-07 0)
(9.03946e-07 -1.68968e-07 0)
(1.11497e-06 4.03945e-08 0)
(1.3422e-06 3.15422e-07 0)
(1.58759e-06 6.47051e-07 0)
(1.85452e-06 1.0283e-06 0)
(2.14183e-06 1.44973e-06 0)
(1.35449e-07 -1.83088e-07 0)
(3.21607e-07 -3.53413e-07 0)
(4.86032e-07 -4.02017e-07 0)
(6.36e-07 -3.55369e-07 0)
(7.90395e-07 -2.2604e-07 0)
(9.54659e-07 -2.39086e-08 0)
(1.1358e-06 2.4243e-07 0)
(1.33611e-06 5.64699e-07 0)
(1.55905e-06 9.36358e-07 0)
(1.80405e-06 1.34869e-06 0)
)
;

boundaryField
{
    left
    {
        type            fixedDisplacement;
        value           uniform (0 0 0);
    }
    right
    {
        type            solidTraction;
        tractionSeries  
{
        file            "$FOAM_CASE/constant/timeVsTraction";
        outOfBounds     clamp;
}
        pressure        uniform 0;
        secondOrder     false;
        setEffectiveTraction false;
        relaxationFactor 1;
        value           nonuniform List<vector> 
30
(
(2.45815e-05 1.80413e-05 -9.89048e-21)
(2.40081e-05 1.78349e-05 -9.94964e-21)
(2.34296e-05 1.763e-05 -1.00558e-20)
(2.28445e-05 1.74227e-05 -1.02021e-20)
(2.22527e-05 1.72107e-05 -1.0389e-20)
(2.16557e-05 1.69919e-05 -1.0617e-20)
(2.10554e-05 1.67649e-05 -1.0888e-20)
(2.04545e-05 1.65291e-05 -1.12036e-20)
(1.98555e-05 1.62845e-05 -1.15655e-20)
(1.9261e-05 1.60316e-05 -1.19756e-20)
(1.86987e-05 1.57828e-05 -1.21872e-20)
(1.81654e-05 1.55383e-05 -1.21448e-20)
(1.76397e-05 1.529e-05 -1.2117e-20)
(1.71226e-05 1.50394e-05 -1.2103e-20)
(1.66145e-05 1.4788e-05 -1.21053e-20)
(1.61144e-05 1.45376e-05 -1.21229e-20)
(1.5623e-05 1.42891e-05 -1.21532e-20)
(1.51395e-05 1.40442e-05 -1.21961e-20)
(1.46626e-05 1.38041e-05 -1.22493e-20)
(1.41912e-05 1.35697e-05 -1.23105e-20)
(1.37238e-05 1.33417e-05 -1.23773e-20)
(1.32589e-05 1.31206e-05 -1.24468e-20)
(1.27948e-05 1.29065e-05 -1.25157e-20)
(1.23298e-05 1.26993e-05 -1.25811e-20)
(1.18625e-05 1.24985e-05 -1.26394e-20)
(1.13916e-05 1.23032e-05 -1.26885e-20)