/*--------------------------------*- C++ -*----------------------------------*\
  =========                 |
  \\      /  F ield         | OpenFOAM: The Open Source CFD Toolbox
   \\    /   O peration     | Website:  https://openfoam.org
    \\  /    A nd           | Version:  9
     \\/     M anipulation  |
\*---------------------------------------------------------------------------*/
FoamFile
{
    format      ascii;
    class       volVectorField;
    location    "15";
    object      D_0;
}
// * * * * * * * * * * * * * * * * * * * * * * * * * * * * * * * * * * * * * //

dimensions      [0 1 0 0 0 0 0];

internalField   nonuniform List<vector> 
1000
(
(9.47146e-06 3.18291e-06 0)
(8.83783e-06 3.515e-06 0)
(8.37661e-06 3.79505e-06 0)
(8.04307e-06 4.01368e-06 0)
(7.805e-06 4.20246e-06 0)
(7.63691e-06 4.36483e-06 0)
(7.52305e-06 4.51113e-06 0)
(7.45067e-06 4.64437e-06 0)
(7.40976e-06 4.76867e-06 0)
(7.39521e-06 4.88651e-06 0)
(8.53619e-06 2.87062e-06 0)
(7.87777e-06 3.11109e-06 0)
(7.40191e-06 3.32316e-06 0)
(7.05915e-06 3.48654e-06 0)
(6.81497e-06 3.63011e-06 0)
(6.64195e-06 3.75355e-06 0)
(6.52336e-06 3.8655e-06 0)
(6.44568e-06 3.9679e-06 0)
(6.39863e-06 4.0629e-06 0)
(6.37528e-06 4.15559e-06 0)
(7.57992e-06 2.55599e-06 0)
(6.91558e-06 2.7e-06 0)
(6.43814e-06 2.84129e-06 0)
(6.09602e-06 2.94908e-06 0)
(5.85324e-06 3.0482e-06 0)
(5.68115e-06 3.13443e-06 0)
(5.56246e-06 3.21426e-06 0)
(5.4833e-06 3.28827e-06 0)
(5.43333e-06 3.35676e-06 0)
(5.40526e-06 3.42544e-06 0)
(6.60892e-06 2.24445e-06 0)
(5.95741e-06 2.291e-06 0)
(5.49231e-06 2.36091e-06 0)
(5.16132e-06 2.41452e-06 0)
(4.92791e-06 2.47139e-06 0)
(4.76305e-06 2.52314e-06 0)
(4.64932e-06 2.57391e-06 0)
(4.57273e-06 2.62255e-06 0)
(4.52355e-06 2.66788e-06 0)
(4.49378e-06 2.71512e-06 0)
(5.62654e-06 1.94372e-06 0)
(5.0063e-06 1.89356e-06 0)
(4.56827e-06 1.89464e-06 0)
(4.2595e-06 1.89735e-06 0)
(4.04407e-06 1.91594e-06 0)
(3.89302e-06 1.93746e-06 0)
(3.78932e-06 1.96346e-06 0)
(3.71926e-06 1.99081e-06 0)
(3.67395e-06 2.01708e-06 0)
(3.64516e-06 2.04624e-06 0)
(4.63644e-06 1.65388e-06 0)
(4.06479e-06 1.51287e-06 0)
(3.66885e-06 1.45156e-06 0)
(3.39394e-06 1.41008e-06 0)
(3.20549e-06 1.39686e-06 0)
(3.07485e-06 1.3943e-06 0)
(2.98606e-06 1.40121e-06 0)
(2.92613e-06 1.41245e-06 0)
(2.88735e-06 1.42456e-06 0)
(2.8617e-06 1.43998e-06 0)
(3.63324e-06 1.37364e-06 0)
(3.12929e-06 1.15315e-06 0)
(2.79276e-06 1.0405e-06 0)
(2.56453e-06 9.6584e-07 0)
(2.41233e-06 9.30148e-07 0)
(2.30846e-06 9.11669e-07 0)
(2.2389e-06 9.06349e-07 0)
(2.19207e-06 9.07396e-07 0)
(2.16181e-06 9.10657e-07 0)
(2.14093e-06 9.17034e-07 0)
(2.62725e-06 1.08808e-06 0)
(2.2053e-06 8.10801e-07 0)
(1.94594e-06 6.66962e-07 0)
(1.77619e-06 5.76874e-07 0)
(1.66779e-06 5.31924e-07 0)
(1.59509e-06 5.07889e-07 0)
(1.5473e-06 4.98196e-07 0)
(1.51513e-06 4.95377e-07 0)
(1.4943e-06 4.95137e-07 0)
(1.4792e-06 4.97264e-07 0)
(1.59122e-06 7.77318e-07 0)
(1.28768e-06 4.86211e-07 0)
(1.12637e-06 3.38407e-07 0)
(1.02589e-06 2.58794e-07 0)
(9.66321e-07 2.20533e-07 0)
(9.26978e-07 2.01848e-07 0)
(9.01661e-07 1.94734e-07 0)
(8.8434e-07 1.92941e-07 0)
(8.72921e-07 1.92927e-07 0)
(8.63932e-07 1.94173e-07 0)
(5.55285e-07 4.02291e-07 0)
(4.0959e-07 1.8769e-07 0)
(3.59667e-07 8.98849e-08 0)
(3.32551e-07 5.11356e-08 0)
(3.16619e-07 3.46014e-08 0)
(3.05702e-07 2.88026e-08 0)
(2.98443e-07 2.76467e-08 0)
(2.93193e-07 2.84623e-08 0)
(2.89562e-07 2.95656e-08 0)
(2.86379e-07 3.08762e-08 0)
(1.67037e-05 5.15763e-06 0)
(1.6676e-05 5.79946e-06 0)
(1.66569e-05 6.39745e-06 0)
(1.66575e-05 6.9449e-06 0)
(1.66825e-05 7.44743e-06 0)
(1.67338e-05 7.91129e-06 0)
(1.68116e-05 8.34373e-06 0)
(1.69145e-05 8.751e-06 0)
(1.70413e-05 9.13808e-06 0)
(1.7189e-05 9.51046e-06 0)
(1.61796e-05 5.11515e-06 0)
(1.61053e-05 5.75511e-06 0)
(1.60546e-05 6.34581e-06 0)
(1.60321e-05 6.88223e-06 0)
(1.60403e-05 7.3713e-06 0)
(1.60775e-05 7.81967e-06 0)
(1.61427e-05 8.23527e-06 0)
(1.62327e-05 8.62472e-06 0)
(1.63463e-05 8.99317e-06 0)
(1.6479e-05 9.3469e-06 0)
(1.56237e-05 5.02907e-06 0)
(1.54941e-05 5.66737e-06 0)
(1.54005e-05 6.24604e-06 0)
(1.53441e-05 6.76517e-06 0)
(1.53255e-05 7.23526e-06 0)
(1.53402e-05 7.66388e-06 0)
(1.53855e-05 8.0595e-06 0)
(1.5457e-05 8.42884e-06 0)
(1.55528e-05 8.77726e-06 0)
(1.5667e-05 9.1112e-06 0)
(1.5023e-05 4.90396e-06 0)
(1.48313e-05 5.53917e-06 0)
(1.46878e-05 6.10311e-06 0)
(1.45913e-05 6.60109e-06 0)
(1.45397e-05 7.04834e-06 0)
(1.45265e-05 7.45353e-06 0)
(1.45475e-05 7.82591e-06 0)
(1.45966e-05 8.17227e-06 0)
(1.46716e-05 8.49821e-06 0)
(1.47648e-05 8.81009e-06 0)
(1.43705e-05 4.741e-06 0)
(1.41109e-05 5.36806e-06 0)
(1.3914e-05 5.9126e-06 0)
(1.3775e-05 6.38458e-06 0)
(1.36888e-05 6.80449e-06 0)
(1.36461e-05 7.18217e-06 0)
(1.36413e-05 7.52785e-06 0)
(1.36669e-05 7.84826e-06 0)
(1.37202e-05 8.14929e-06 0)
(1.3792e-05 8.43687e-06 0)
(1.36655e-05 4.54397e-06 0)
(1.3334e-05 5.15424e-06 0)
(1.30826e-05 5.67378e-06 0)
(1.29013e-05 6.11526e-06 0)
(1.27807e-05 6.50409e-06 0)
(1.27089e-05 6.851e-06 0)
(1.26787e-05 7.16712e-06 0)
(1.26813e-05 7.45899e-06 0)
(1.27134e-05 7.73288e-06 0)
(1.27644e-05 7.99399e-06 0)
(1.29097e-05 4.31587e-06 0)
(1.25052e-05 4.89771e-06 0)
(1.22005e-05 5.38511e-06 0)
(1.19789e-05 5.79116e-06 0)
(1.18261e-05 6.14536e-06 0)
(1.17273e-05 6.45862e-06 0)
(1.16736e-05 6.7428e-06 0)
(1.16549e-05 7.00409e-06 0)
(1.16674e-05 7.24907e-06 0)
(1.16993e-05 7.48204e-06 0)
(1.2107e-05 4.06096e-06 0)
(1.16321e-05 4.6009e-06 0)
(1.12775e-05 5.0482e-06 0)
(1.10192e-05 5.41398e-06 0)
(1.08374e-05 5.7304e-06 0)
(1.07147e-05 6.00776e-06 0)
(1.06403e-05 6.25831e-06 0)
(1.0603e-05 6.48757e-06 0)
(1.0598e-05 6.70243e-06 0)
(1.06134e-05 6.90581e-06 0)
(1.12626e-05 3.78366e-06 0)
(1.07236e-05 4.26753e-06 0)
(1.03249e-05 4.66649e-06 0)
(1.00347e-05 4.98723e-06 0)
(9.82856e-06 5.26308e-06 0)
(9.6859e-06 5.50286e-06 0)
(9.59422e-06 5.71867e-06 0)
(9.54144e-06 5.91531e-06 0)
(9.52153e-06 6.09919e-06 0)
(9.52343e-06 6.27259e-06 0)
(1.03821e-05 3.48906e-06 0)
(9.78913e-06 3.90317e-06 0)
(9.35419e-06 4.24605e-06 0)
(9.03847e-06 4.51749e-06 0)
(8.8132e-06 4.75057e-06 0)
(8.65513e-06 4.95175e-06 0)
(8.55007e-06 5.13261e-06 0)
(8.48535e-06 5.29659e-06 0)
(8.45352e-06 5.44999e-06 0)
(8.44586e-06 5.5915e-06 0)
(1.73656e-05 9.86866e-06 0)
(1.75683e-05 1.02242e-05 0)
(1.77866e-05 1.0574e-05 0)
(1.80187e-05 1.09197e-05 0)
(1.82634e-05 1.12632e-05 0)
(1.85193e-05 1.16054e-05 0)
(1.87854e-05 1.19474e-05 0)
(1.90605e-05 1.22902e-05 0)
(1.93436e-05 1.26344e-05 0)
(1.96339e-05 1.29806e-05 0)
(1.99305e-05 1.33293e-05 0)
(2.02325e-05 1.36811e-05 0)
(2.05394e-05 1.40362e-05 0)
(2.08502e-05 1.4395e-05 0)
(2.11644e-05 1.47576e-05 0)
(2.14812e-05 1.51241e-05 0)
(2.17999e-05 1.54945e-05 0)
(2.21199e-05 1.58685e-05 0)
(2.24405e-05 1.62455e-05 0)
(2.27611e-05 1.66242e-05 0)
(1.66631e-05 9.69155e-06 0)
(1.68908e-05 1.00411e-05 0)
(1.71308e-05 1.03853e-05 0)
(1.7381e-05 1.07262e-05 0)
(1.76412e-05 1.10654e-05 0)
(1.791e-05 1.1404e-05 0)
(1.8187e-05 1.17432e-05 0)
(1.84712e-05 1.20836e-05 0)
(1.8762e-05 1.24261e-05 0)
(1.90586e-05 1.27711e-05 0)
(1.93606e-05 1.31192e-05 0)
(1.96672e-05 1.34708e-05 0)
(1.9978e-05 1.38262e-05 0)
(2.02924e-05 1.41858e-05 0)
(2.06098e-05 1.45496e-05 0)
(2.09299e-05 1.49179e-05 0)
(2.12521e-05 1.52905e-05 0)
(2.15758e-05 1.56671e-05 0)
(2.19006e-05 1.60472e-05 0)
(2.22258e-05 1.64298e-05 0)
(1.58613e-05 9.44564e-06 0)
(1.61213e-05 9.79582e-06 0)
(1.63901e-05 1.01408e-05 0)
(1.66653e-05 1.04823e-05 0)
(1.69474e-05 1.08225e-05 0)
(1.72353e-05 1.11621e-05 0)
(1.7529e-05 1.15025e-05 0)
(1.78278e-05 1.18444e-05 0)
(1.81315e-05 1.21886e-05 0)
(1.84395e-05 1.25356e-05 0)
(1.87516e-05 1.28859e-05 0)
(1.90674e-05 1.324e-05 0)
(1.93865e-05 1.35982e-05 0)
(1.97086e-05 1.39608e-05 0)
(2.00334e-05 1.4328e-05 0)
(2.03605e-05 1.47001e-05 0)
(2.06897e-05 1.5077e-05 0)
(2.10204e-05 1.54585e-05 0)
(2.13523e-05 1.58444e-05 0)
(2.16846e-05 1.62342e-05 0)
(1.49719e-05 9.13632e-06 0)
(1.52702e-05 9.49218e-06 0)
(1.5574e-05 9.84307e-06 0)
(1.58799e-05 1.01898e-05 0)
(1.61896e-05 1.05352e-05 0)
(1.6502e-05 1.08797e-05 0)
(1.68176e-05 1.1225e-05 0)
(1.7136e-05 1.15717e-05 0)
(1.74573e-05 1.19206e-05 0)
(1.77811e-05 1.22724e-05 0)
(1.81076e-05 1.26276e-05 0)
(1.84365e-05 1.29867e-05 0)
(1.87677e-05 1.33501e-05 0)
(1.91011e-05 1.37181e-05 0)
(1.94365e-05 1.4091e-05 0)
(1.97738e-05 1.44691e-05 0)
(2.01127e-05 1.48524e-05 0)
(2.0453e-05 1.52411e-05 0)
(2.07944e-05 1.56353e-05 0)
(2.11359e-05 1.60348e-05 0)
(1.40142e-05 8.75768e-06 0)
(1.43554e-05 9.12496e-06 0)
(1.46989e-05 9.48758e-06 0)
(1.50398e-05 9.84466e-06 0)
(1.53815e-05 1.02001e-05 0)
(1.57224e-05 1.0554e-05 0)
(1.60639e-05 1.09082e-05 0)
(1.64056e-05 1.12633e-05 0)
(1.6748e-05 1.16205e-05 0)
(1.70911e-05 1.19803e-05 0)
(1.74351e-05 1.23434e-05 0)
(1.77801e-05 1.27102e-05 0)
(1.81263e-05 1.30814e-05 0)
(1.84736e-05 1.34571e-05 0)
(1.88221e-05 1.3838e-05 0)
(1.91718e-05 1.42242e-05 0)
(1.95227e-05 1.46161e-05 0)
(1.98745e-05 1.50141e-05 0)
(2.02271e-05 1.54187e-05 0)
(2.05797e-05 1.583e-05 0)
(1.30039e-05 8.31194e-06 0)
(1.33912e-05 8.69599e-06 0)
(1.37778e-05 9.07576e-06 0)
(1.4157e-05 9.4481e-06 0)
(1.45339e-05 9.81814e-06 0)
(1.49065e-05 1.01855e-05 0)
(1.52769e-05 1.05526e-05 0)
(1.56448e-05 1.09199e-05 0)
(1.60112e-05 1.12886e-05 0)
(1.63761e-05 1.16595e-05 0)
(1.67403e-05 1.20333e-05 0)
(1.71038e-05 1.24106e-05 0)
(1.74671e-05 1.2792e-05 0)
(1.78304e-05 1.31779e-05 0)
(1.81939e-05 1.35688e-05 0)
(1.85577e-05 1.39653e-05 0)
(1.89221e-05 1.43678e-05 0)
(1.9287e-05 1.4777e-05 0)
(1.96522e-05 1.51936e-05 0)
(2.00174e-05 1.56183e-05 0)
(1.19577e-05 7.79993e-06 0)
(1.23927e-05 8.20614e-06 0)
(1.28246e-05 8.60833e-06 0)
(1.32442e-05 9.00091e-06 0)
(1.36584e-05 9.38995e-06 0)
(1.40648e-05 9.77509e-06 0)
(1.44663e-05 1.01587e-05 0)
(1.48625e-05 1.05417e-05 0)
(1.52548e-05 1.09253e-05 0)
(1.56436e-05 1.13104e-05 0)
(1.60296e-05 1.16978e-05 0)
(1.64134e-05 1.20883e-05 0)
(1.67954e-05 1.24824e-05 0)
(1.71761e-05 1.28808e-05 0)
(1.75559e-05 1.32841e-05 0)
(1.79352e-05 1.36928e-05 0)
(1.83142e-05 1.41077e-05 0)
(1.86932e-05 1.45295e-05 0)
(1.90722e-05 1.49596e-05 0)
(1.94511e-05 1.53985e-05 0)
(1.08913e-05 7.22625e-06 0)
(1.13741e-05 7.65968e-06 0)
(1.18518e-05 8.08854e-06 0)
(1.23127e-05 8.50592e-06 0)
(1.27652e-05 8.91796e-06 0)
(1.32069e-05 9.32484e-06 0)
(1.36406e-05 9.72877e-06 0)
(1.40666e-05 1.01309e-05 0)
(1.44863e-05 1.05326e-05 0)
(1.49003e-05 1.09349e-05 0)
(1.53095e-05 1.13387e-05 0)
(1.57147e-05 1.17448e-05 0)
(1.61165e-05 1.21541e-05 0)
(1.65157e-05 1.25672e-05 0)
(1.69128e-05 1.29847e-05 0)
(1.73083e-05 1.34075e-05 0)
(1.77026e-05 1.38364e-05 0)
(1.80964e-05 1.42722e-05 0)
(1.84897e-05 1.47166e-05 0)
(1.88831e-05 1.51703e-05 0)
(9.82066e-06 6.59629e-06 0)
(1.03501e-05 7.06227e-06 0)
(1.08724e-05 7.52106e-06 0)
(1.13749e-05 7.96747e-06 0)
(1.18655e-05 8.40583e-06 0)
(1.23428e-05 8.83765e-06 0)
(1.28092e-05 9.26486e-06 0)
(1.32655e-05 9.68908e-06 0)
(1.37131e-05 1.01117e-05 0)
(1.41529e-05 1.05339e-05 0)
(1.45859e-05 1.09567e-05 0)
(1.50132e-05 1.13811e-05 0)
(1.54355e-05 1.18079e-05 0)
(1.58537e-05 1.22379e-05 0)
(1.62685e-05 1.26718e-05 0)
(1.66807e-05 1.31105e-05 0)
(1.70909e-05 1.35548e-05 0)
(1.74998e-05 1.40058e-05 0)
(1.79078e-05 1.44652e-05 0)
(1.83161e-05 1.4934e-05 0)
(8.75841e-06 5.91975e-06 0)
(9.332e-06 6.42157e-06 0)
(9.89422e-06 6.91127e-06 0)
(1.04373e-05 7.3898e-06 0)
(1.09653e-05 7.858e-06 0)
(1.14783e-05 8.31814e-06 0)
(1.19779e-05 8.77191e-06 0)
(1.24651e-05 9.2211e-06 0)
(1.29412e-05 9.66726e-06 0)
(1.34074e-05 1.01118e-05 0)
(1.38649e-05 1.05559e-05 0)
(1.43146e-05 1.10006e-05 0)
(1.47577e-05 1.14468e-05 0)
(1.51951e-05 1.18955e-05 0)
(1.56278e-05 1.23474e-05 0)
(1.60568e-05 1.28033e-05 0)
(1.64827e-05 1.32643e-05 0)
(1.69067e-05 1.37314e-05 0)
(1.73294e-05 1.42063e-05 0)
(1.77525e-05 1.46901e-05 0)
(7.939e-06 5.41246e-06 0)
(8.53709e-06 5.94034e-06 0)
(9.12025e-06 6.44751e-06 0)
(9.68531e-06 6.94434e-06 0)
(1.02346e-05 7.43079e-06 0)
(1.07682e-05 7.90899e-06 0)
(1.12875e-05 8.38051e-06 0)
(1.17933e-05 8.84691e-06 0)
(1.22869e-05 9.30963e-06 0)
(1.27694e-05 9.76997e-06 0)
(1.32419e-05 1.02291e-05 0)
(1.37056e-05 1.0688e-05 0)
(1.41615e-05 1.11475e-05 0)
(1.46106e-05 1.16086e-05 0)
(1.50541e-05 1.2072e-05 0)
(1.54928e-05 1.25384e-05 0)
(1.59279e-05 1.30089e-05 0)
(1.63605e-05 1.34843e-05 0)
(1.67914e-05 1.39661e-05 0)
(1.72227e-05 1.44553e-05 0)
(7.3922e-06 5.10896e-06 0)
(7.99035e-06 5.63676e-06 0)
(8.57367e-06 6.14808e-06 0)
(9.14057e-06 6.65051e-06 0)
(9.69263e-06 7.14388e-06 0)
(1.02297e-05 7.62967e-06 0)
(1.0753e-05 8.10914e-06 0)
(1.1263e-05 8.58351e-06 0)
(1.17609e-05 9.054e-06 0)
(1.22475e-05 9.52169e-06 0)
(1.2724e-05 9.98759e-06 0)
(1.31912e-05 1.04526e-05 0)
(1.36504e-05 1.09175e-05 0)
(1.41024e-05 1.1383e-05 0)
(1.45483e-05 1.18498e-05 0)
(1.49891e-05 1.23186e-05 0)
(1.54259e-05 1.27902e-05 0)
(1.586e-05 1.32654e-05 0)
(1.62922e-05 1.37453e-05 0)
(1.67251e-05 1.42306e-05 0)
(6.9096e-06 4.81759e-06 0)
(7.49694e-06 5.34382e-06 0)
(8.07428e-06 5.85658e-06 0)
(8.63679e-06 6.36241e-06 0)
(9.18659e-06 6.86076e-06 0)
(9.72262e-06 7.35255e-06 0)
(1.02459e-05 7.83871e-06 0)
(1.07567e-05 8.32011e-06 0)
(1.12558e-05 8.79767e-06 0)
(1.1744e-05 9.27225e-06 0)
(1.22221e-05 9.74463e-06 0)
(1.26911e-05 1.02156e-05 0)
(1.31519e-05 1.06857e-05 0)
(1.36054e-05 1.11556e-05 0)
(1.40527e-05 1.16259e-05 0)
(1.44948e-05 1.20971e-05 0)
(1.49326e-05 1.25697e-05 0)
(1.53677e-05 1.30445e-05 0)
(1.58008e-05 1.3522e-05 0)
(1.62347e-05 1.40028e-05 0)
(6.4771e-06 4.53701e-06 0)
(7.05034e-06 5.05896e-06 0)
(7.61727e-06 5.57123e-06 0)
(8.17136e-06 6.07904e-06 0)
(8.71493e-06 6.58117e-06 0)
(9.24627e-06 7.07802e-06 0)
(9.76621e-06 7.57008e-06 0)
(1.02747e-05 8.05784e-06 0)
(1.07723e-05 8.54194e-06 0)
(1.12596e-05 9.02296e-06 0)
(1.17373e-05 9.5015e-06 0)
(1.22062e-05 9.9781e-06 0)
(1.26671e-05 1.04533e-05 0)
(1.31209e-05 1.09274e-05 0)
(1.35685e-05 1.1401e-05 0)
(1.40109e-05 1.18745e-05 0)
(1.44492e-05 1.2348e-05 0)
(1.48846e-05 1.28222e-05 0)
(1.53182e-05 1.32972e-05 0)
(1.57526e-05 1.37732e-05 0)
(6.08974e-06 4.27017e-06 0)
(6.6457e-06 4.78626e-06 0)
(7.19868e-06 5.29637e-06 0)
(7.74095e-06 5.80445e-06 0)
(8.27499e-06 6.30878e-06 0)
(8.79853e-06 6.8093e-06 0)
(9.31226e-06 7.30604e-06 0)
(9.81575e-06 7.79915e-06 0)
(1.03095e-05 8.28893e-06 0)
(1.07938e-05 8.77571e-06 0)
(1.12692e-05 9.25985e-06 0)
(1.17363e-05 9.74168e-06 0)
(1.21959e-05 1.02215e-05 0)
(1.26488e-05 1.06997e-05 0)
(1.30957e-05 1.11764e-05 0)
(1.35376e-05 1.16519e-05 0)
(1.39756e-05 1.21262e-05 0)
(1.44107e-05 1.25996e-05 0)
(1.48446e-05 1.30717e-05 0)
(1.52793e-05 1.35427e-05 0)
(5.74004e-06 4.01691e-06 0)
(6.277e-06 4.52567e-06 0)
(6.8137e-06 5.03218e-06 0)
(7.3418e-06 5.53914e-06 0)
(7.86382e-06 6.04439e-06 0)
(8.37713e-06 6.54741e-06 0)
(8.88227e-06 7.04778e-06 0)
(9.37859e-06 7.54529e-06 0)
(9.86639e-06 8.03994e-06 0)
(1.03458e-05 8.53176e-06 0)
(1.08172e-05 9.02087e-06 0)
(1.12811e-05 9.50741e-06 0)
(1.17382e-05 9.99152e-06 0)
(1.2189e-05 1.04733e-05 0)
(1.26343e-05 1.09528e-05 0)
(1.30751e-05 1.14301e-05 0)
(1.35121e-05 1.19051e-05 0)
(1.39468e-05 1.23774e-05 0)
(1.43797e-05 1.28468e-05 0)
(1.48137e-05 1.33131e-05 0)
(5.42196e-06 3.77742e-06 0)
(5.93883e-06 4.278e-06 0)
(6.45761e-06 4.77983e-06 0)
(6.96982e-06 5.28452e-06 0)
(7.47792e-06 5.78949e-06 0)
(7.97909e-06 6.29385e-06 0)
(8.47376e-06 6.79677e-06 0)
(8.96108e-06 7.2977e-06 0)
(9.44122e-06 7.7963e-06 0)
(9.91413e-06 8.29236e-06 0)
(1.03801e-05 8.78574e-06 0)
(1.08396e-05 9.27638e-06 0)
(1.12929e-05 9.76422e-06 0)
(1.17408e-05 1.02492e-05 0)
(1.21837e-05 1.07312e-05 0)
(1.26226e-05 1.121e-05 0)
(1.30582e-05 1.16854e-05 0)
(1.34916e-05 1.21568e-05 0)
(1.39236e-05 1.26236e-05 0)
(1.43565e-05 1.30852e-05 0)
(5.12952e-06 3.5511e-06 0)
(5.62579e-06 4.04294e-06 0)
(6.12566e-06 4.53933e-06 0)
(6.62083e-06 5.04082e-06 0)
(7.11364e-06 5.54457e-06 0)
(7.60125e-06 6.04931e-06 0)
(8.08397e-06 6.55382e-06 0)
(8.56085e-06 7.05725e-06 0)
(9.03194e-06 7.55895e-06 0)
(9.49707e-06 8.05845e-06 0)
(9.95645e-06 8.55539e-06 0)
(1.04103e-05 9.04948e-06 0)
(1.0859e-05 9.54048e-06 0)
(1.1303e-05 1.00282e-05 0)
(1.17429e-05 1.05122e-05 0)
(1.21793e-05 1.09923e-05 0)
(1.26129e-05 1.14679e-05 0)
(1.30447e-05 1.19385e-05 0)
(1.34753e-05 1.24028e-05 0)
(1.39068e-05 1.28602e-05 0)
(4.85743e-06 3.33726e-06 0)
(5.3329e-06 3.82021e-06 0)
(5.81326e-06 4.3107e-06 0)
(6.29063e-06 4.80835e-06 0)
(6.76721e-06 5.31011e-06 0)
(7.24021e-06 5.8144e-06 0)
(7.70987e-06 6.31964e-06 0)
(8.17519e-06 6.82471e-06 0)
(8.63613e-06 7.32868e-06 0)
(9.09243e-06 7.83083e-06 0)
(9.54421e-06 8.33058e-06 0)
(9.99158e-06 8.82745e-06 0)
(1.04348e-05 9.32102e-06 0)
(1.08743e-05 9.81088e-06 0)
(1.13105e-05 1.02966e-05 0)
(1.17439e-05 1.07777e-05 0)
(1.21751e-05 1.12535e-05 0)
(1.26049e-05 1.17231e-05 0)
(1.30338e-05 1.21853e-05 0)
(1.34635e-05 1.2639e-05 0)
(4.60076e-06 3.13511e-06 0)
(5.05543e-06 3.60927e-06 0)
(5.516e-06 4.09363e-06 0)
(5.9751e-06 4.58702e-06 0)
(6.4348e-06 5.08623e-06 0)
(6.89245e-06 5.58938e-06 0)
(7.34824e-06 6.09462e-06 0)
(7.80117e-06 6.60057e-06 0)
(8.25113e-06 7.10604e-06 0)
(8.69781e-06 7.61008e-06 0)
(9.14123e-06 8.11192e-06 0)
(9.58143e-06 8.61089e-06 0)
(1.00186e-05 9.10642e-06 0)
(1.0453e-05 9.59795e-06 0)
(1.0885e-05 1.00849e-05 0)
(1.1315e-05 1.05667e-05 0)
(1.17434e-05 1.10425e-05 0)
(1.2171e-05 1.15113e-05 0)
(1.25979e-05 1.19717e-05 0)
(1.30255e-05 1.24226e-05 0)
(4.35501e-06 2.94382e-06 0)
(4.78896e-06 3.40953e-06 0)
(5.22959e-06 3.88776e-06 0)
(5.67014e-06 4.37667e-06 0)
(6.11254e-06 4.87293e-06 0)
(6.55436e-06 5.37441e-06 0)
(6.99573e-06 5.87902e-06 0)
(7.43569e-06 6.38515e-06 0)
(7.87408e-06 6.8914e-06 0)
(8.31056e-06 7.39662e-06 0)
(8.74507e-06 7.89985e-06 0)
(9.17759e-06 8.40026e-06 0)
(9.60822e-06 8.89714e-06 0)
(1.00371e-05 9.3898e-06 0)
(1.04646e-05 9.87757e-06 0)
(1.08908e-05 1.03597e-05 0)
(1.13162e-05 1.08354e-05 0)
(1.17412e-05 1.13036e-05 0)
(1.2166e-05 1.17626e-05 0)
(1.25914e-05 1.22114e-05 0)
(4.11594e-06 2.76273e-06 0)
(4.52923e-06 3.22048e-06 0)
(4.94986e-06 3.69271e-06 0)
(5.3717e-06 4.17706e-06 0)
(5.79657e-06 4.67009e-06 0)
(6.22225e-06 5.16948e-06 0)
(6.64886e-06 5.67292e-06 0)
(7.07549e-06 6.17862e-06 0)
(7.50196e-06 6.68499e-06 0)
(7.92788e-06 7.19071e-06 0)
(8.35314e-06 7.69466e-06 0)
(8.77766e-06 8.19587e-06 0)
(9.20145e-06 8.6935e-06 0)
(9.6246e-06 9.18676e-06 0)
(1.00473e-05 9.67491e-06 0)
(1.04696e-05 1.01572e-05 0)
(1.08918e-05 1.06326e-05 0)
(1.13141e-05 1.11002e-05 0)
(1.17366e-05 1.15583e-05 0)
(1.21596e-05 1.20059e-05 0)
(3.87946e-06 2.59121e-06 0)
(4.27211e-06 3.04159e-06 0)
(4.67267e-06 3.50806e-06 0)
(5.07571e-06 3.98787e-06 0)
(5.48293e-06 4.4775e-06 0)
(5.89234e-06 4.97445e-06 0)
(6.30404e-06 5.47626e-06 0)
(6.71719e-06 5.98098e-06 0)
(7.13158e-06 6.48686e-06 0)
(7.5468e-06 6.99245e-06 0)
(7.96269e-06 7.49648e-06 0)
(8.37908e-06 7.99787e-06 0)
(8.79593e-06 8.49567e-06 0)
(9.21321e-06 8.98903e-06 0)
(9.63097e-06 9.47711e-06 0)
(1.00493e-05 9.95914e-06 0)
(1.04682e-05 1.04342e-05 0)
(1.08878e-05 1.09013e-05 0)
(1.13079e-05 1.13589e-05 0)
(1.17285e-05 1.18062e-05 0)
(3.64155e-06 2.42902e-06 0)
(4.01345e-06 2.87261e-06 0)
(4.39387e-06 3.33361e-06 0)
(4.77808e-06 3.80893e-06 0)
(5.16762e-06 4.29501e-06 0)
(5.56077e-06 4.78921e-06 0)
(5.95759e-06 5.28896e-06 0)
(6.35731e-06 5.79217e-06 0)
(6.75968e-06 6.29699e-06 0)
(7.16428e-06 6.80183e-06 0)
(7.57088e-06 7.30532e-06 0)
(7.97923e-06 7.80629e-06 0)
(8.38921e-06 8.30371e-06 0)
(8.80069e-06 8.79665e-06 0)
(9.21362e-06 9.28426e-06 0)
(9.62795e-06 9.76575e-06 0)
(1.00436e-05 1.02403e-05 0)
(1.04605e-05 1.07069e-05 0)
(1.08783e-05 1.11645e-05 0)
(1.12966e-05 1.16121e-05 0)
(3.39802e-06 2.27569e-06 0)
(3.74896e-06 2.71309e-06 0)
(4.10912e-06 3.16889e-06 0)
(4.47449e-06 3.6398e-06 0)
(4.84644e-06 4.12219e-06 0)
(5.22348e-06 4.61336e-06 0)
(5.60564e-06 5.11064e-06 0)
(5.9922e-06 5.61187e-06 0)
(6.38285e-06 6.11507e-06 0)
(6.77714e-06 6.61859e-06 0)
(7.17477e-06 7.12098e-06 0)
(7.57541e-06 7.62097e-06 0)
(7.97882e-06 8.11748e-06 0)
(8.38478e-06 8.60953e-06 0)
(8.79312e-06 9.09627e-06 0)
(9.20367e-06 9.57691e-06 0)
(9.61623e-06 1.00507e-05 0)
(1.00305e-05 1.05169e-05 0)
(1.04462e-05 1.09746e-05 0)
(1.08624e-05 1.14233e-05 0)
(3.14455e-06 2.13174e-06 0)
(3.4742e-06 2.56337e-06 0)
(3.81397e-06 3.0141e-06 0)
(4.16055e-06 3.48053e-06 0)
(4.51511e-06 3.95901e-06 0)
(4.87636e-06 4.44679e-06 0)
(5.24428e-06 4.94114e-06 0)
(5.61815e-06 5.43983e-06 0)
(5.99763e-06 5.94085e-06 0)
(6.38219e-06 6.44246e-06 0)
(6.77143e-06 6.94315e-06 0)
(7.16494e-06 7.44161e-06 0)
(7.56234e-06 7.9367e-06 0)
(7.96331e-06 8.42742e-06 0)
(8.36752e-06 8.9129e-06 0)
(8.77467e-06 9.39239e-06 0)
(9.18446e-06 9.86525e-06 0)
(9.59647e-06 1.0331e-05 0)
(1.00102e-05 1.07889e-05 0)
(1.04247e-05 1.12391e-05 0)
(2.87612e-06 1.99639e-06 0)
(3.1841e-06 2.42262e-06 0)
(3.50336e-06 2.86836e-06 0)
(3.83131e-06 3.33023e-06 0)
(4.16883e-06 3.80455e-06 0)
(4.51484e-06 4.28858e-06 0)
(4.86918e-06 4.77955e-06 0)
(5.23115e-06 5.27522e-06 0)
(5.6003e-06 5.77351e-06 0)
(5.97601e-06 6.27268e-06 0)
(6.35778e-06 6.77116e-06 0)
(6.74506e-06 7.2676e-06 0)
(7.13734e-06 7.76083e-06 0)
(7.53413e-06 8.24983e-06 0)
(7.93497e-06 8.73373e-06 0)
(8.3394e-06 9.21182e-06 0)
(8.74696e-06 9.68354e-06 0)
(9.15712e-06 1.01486e-05 0)
(9.5693e-06 1.06068e-05 0)
(9.98236e-06 1.10586e-05 0)
(2.58776e-06 1.8718e-06 0)
(2.87366e-06 2.29248e-06 0)
(3.17237e-06 2.7329e-06 0)
(3.48199e-06 3.18972e-06 0)
(3.80305e-06 3.65932e-06 0)
(4.13459e-06 4.13894e-06 0)
(4.4763e-06 4.62585e-06 0)
(4.82743e-06 5.11779e-06 0)
(5.18739e-06 5.61267e-06 0)
(5.55547e-06 6.10873e-06 0)
(5.93099e-06 6.60438e-06 0)
(6.31327e-06 7.09826e-06 0)
(6.70163e-06 7.58916e-06 0)
(7.09541e-06 8.07605e-06 0)
(7.49396e-06 8.55807e-06 0)
(7.89664e-06 9.03452e-06 0)
(8.30282e-06 9.50494e-06 0)
(8.71181e-06 9.96917e-06 0)
(9.12292e-06 1.04275e-05 0)
(9.53506e-06 1.08806e-05 0)
(2.27218e-06 1.75496e-06 0)
(2.5357e-06 2.17002e-06 0)
(2.81408e-06 2.60484e-06 0)
(3.10599e-06 3.05627e-06 0)
(3.41153e-06 3.52072e-06 0)
(3.72979e-06 3.99548e-06 0)
(4.06025e-06 4.47783e-06 0)
(4.40206e-06 4.96554e-06 0)
(4.75444e-06 5.45651e-06 0)
(5.11654e-06 5.94899e-06 0)
(5.48751e-06 6.44138e-06 0)
(5.8665e-06 6.9323e-06 0)
(6.25264e-06 7.42055e-06 0)
(6.64507e-06 7.90509e-06 0)
(7.04294e-06 8.38504e-06 0)
(7.44538e-06 8.85972e-06 0)
(7.85153e-06 9.32872e-06 0)
(8.26046e-06 9.792e-06 0)
(8.67136e-06 1.02501e-05 0)
(9.08311e-06 1.07042e-05 0)
(1.92527e-06 1.65276e-06 0)
(2.16626e-06 2.06084e-06 0)
(2.4248e-06 2.48869e-06 0)
(2.69983e-06 2.93336e-06 0)
(2.99108e-06 3.39135e-06 0)
(3.29751e-06 3.85999e-06 0)
(3.61837e-06 4.3366e-06 0)
(3.95262e-06 4.81896e-06 0)
(4.29928e-06 5.30502e-06 0)
(4.65731e-06 5.79299e-06 0)
(5.02568e-06 6.28132e-06 0)
(5.40333e-06 6.7686e-06 0)
(5.78922e-06 7.25364e-06 0)
(6.18227e-06 7.7354e-06 0)
(6.58141e-06 8.21302e-06 0)
(6.98549e-06 8.68584e-06 0)
(7.39339e-06 9.15345e-06 0)
(7.80384e-06 9.61582e-06 0)
(8.21577e-06 1.00735e-05 0)
(8.6278e-06 1.05279e-05 0)
(2.76841e-07 2.95068e-08 0)
(8.36122e-07 1.83116e-07 0)
(1.43048e-06 4.70157e-07 0)
(2.06761e-06 8.71447e-07 0)
(2.75981e-06 1.37613e-06 0)
(3.511e-06 1.96625e-06 0)
(4.32421e-06 2.62259e-06 0)
(5.19806e-06 3.32502e-06 0)
(6.12996e-06 4.0532e-06 0)
(7.115e-06 4.79042e-06 0)
(2.60774e-07 2.6381e-08 0)
(7.88181e-07 1.64439e-07 0)
(1.34726e-06 4.2507e-07 0)
(1.94393e-06 7.92742e-07 0)
(2.58944e-06 1.25929e-06 0)
(3.28737e-06 1.80962e-06 0)
(4.04086e-06 2.42707e-06 0)
(4.84863e-06 3.09389e-06 0)
(5.70772e-06 3.79055e-06 0)
(6.61298e-06 4.5038e-06 0)
(2.46328e-07 2.26666e-08 0)
(7.4516e-07 1.45497e-07 0)
(1.273e-06 3.81439e-07 0)
(1.83381e-06 7.17742e-07 0)
(2.43759e-06 1.14828e-06 0)
(3.08739e-06 1.66029e-06 0)
(3.78655e-06 2.23925e-06 0)
(4.53456e-06 2.86989e-06 0)
(5.33036e-06 3.5345e-06 0)
(6.16837e-06 4.22363e-06 0)
(2.3311e-07 1.83528e-08 0)
(7.05966e-07 1.26472e-07 0)
(1.20616e-06 3.40119e-07 0)
(1.73585e-06 6.48537e-07 0)
(2.30397e-06 1.0471e-06 0)
(2.91276e-06 1.52482e-06 0)
(3.56533e-06 2.06872e-06 0)
(4.2608e-06 2.66519e-06 0)
(4.99935e-06 3.29742e-06 0)
(5.77426e-06 3.95725e-06 0)
(2.20751e-07 1.33903e-08 0)
(6.69377e-07 1.06688e-07 0)
(1.14418e-06 2.99195e-07 0)
(1.64569e-06 5.81635e-07 0)
(2.18188e-06 9.50497e-07 0)
(2.75424e-06 1.39619e-06 0)
(3.36585e-06 1.90715e-06 0)
(4.01547e-06 2.47128e-06 0)
(4.70458e-06 3.07321e-06 0)
(5.42432e-06 3.70467e-06 0)
(2.09151e-07 7.86848e-09 0)
(6.35088e-07 8.62888e-08 0)
(1.08652e-06 2.58894e-07 0)
(1.56247e-06 5.17496e-07 0)
(2.07013e-06 8.59377e-07 0)
(2.61015e-06 1.27597e-06 0)
(3.18549e-06 1.75672e-06 0)
(3.79432e-06 2.2905e-06 0)
(4.43935e-06 2.86334e-06 0)
(5.11028e-06 3.46639e-06 0)
(1.98074e-07 1.76113e-09 0)
(6.02372e-07 6.49743e-08 0)
(1.03178e-06 2.18357e-07 0)
(1.48399e-06 4.54527e-07 0)
(1.96553e-06 7.71351e-07 0)
(2.47632e-06 1.16106e-06 0)
(3.01926e-06 1.61398e-06 0)
(3.59196e-06 2.11972e-06 0)
(4.19795e-06 2.66566e-06 0)
(4.82592e-06 3.24199e-06 0)
(1.87435e-07 -4.85164e-09 0)
(5.70959e-07 4.28419e-08 0)
(9.79433e-07 1.77616e-07 0)
(1.40936e-06 3.92685e-07 0)
(1.86669e-06 6.86322e-07 0)
(2.35069e-06 1.0513e-06 0)
(2.86416e-06 1.47864e-06 0)
(3.4043e-06 1.95842e-06 0)
(3.97516e-06 2.47928e-06 0)
(4.56512e-06 3.03061e-06 0)
(1.77099e-07 -1.19809e-08 0)
(5.40439e-07 1.97709e-08 0)
(9.28728e-07 1.36288e-07 0)
(1.33739e-06 3.31243e-07 0)
(1.77189e-06 6.03187e-07 0)
(2.23096e-06 9.45284e-07 0)
(2.71727e-06 1.34912e-06 0)
(3.22777e-06 1.80508e-06 0)
(3.76673e-06 2.30287e-06 0)
(4.3227e-06 2.83126e-06 0)
(1.66988e-07 -1.95745e-08 0)
(5.10578e-07 -4.19212e-09 0)
(8.79226e-07 9.43393e-08 0)
(1.26735e-06 2.70053e-07 0)
(1.67999e-06 5.21655e-07 0)
(2.11543e-06 8.42554e-07 0)
(2.57624e-06 1.22475e-06 0)
(3.05927e-06 1.65885e-06 0)
(3.56881e-06 2.13541e-06 0)
(4.09395e-06 2.64287e-06 0)
(1.5702e-07 -2.76292e-08 0)
(4.8114e-07 -2.91055e-08 0)
(8.30484e-07 5.15823e-08 0)
(1.1985e-06 2.08766e-07 0)
(1.58988e-06 4.41199e-07 0)
(2.00253e-06 7.42411e-07 0)
(2.43896e-06 1.10469e-06 0)
(2.89607e-06 1.5188e-06 0)
(3.378e-06 1.97596e-06 0)
(3.87468e-06 2.46448e-06 0)
(1.4714e-07 -3.61296e-08 0)
(4.51978e-07 -5.49776e-08 0)
(7.822e-07 7.96557e-09 0)
(1.13032e-06 1.47283e-07 0)
(1.50066e-06 3.61638e-07 0)
(1.89094e-06 6.44576e-07 0)
(2.30357e-06 9.88539e-07 0)
(2.73568e-06 1.38439e-06 0)
(3.1912e-06 1.82385e-06 0)
(3.66104e-06 2.2953e-06 0)
(1.37318e-07 -4.50975e-08 0)
(4.23027e-07 -8.18895e-08 0)
(7.34178e-07 -3.66541e-08 0)
(1.06236e-06 8.54172e-08 0)
(1.41156e-06 2.82734e-07 0)
(1.77941e-06 5.48734e-07 0)
(2.16831e-06 8.75887e-07 0)
(2.57576e-06 1.25512e-06 0)
(3.00544e-06 1.67852e-06 0)
(3.44934e-06 2.13465e-06 0)
(1.2755e-07 -5.46072e-08 0)
(3.94324e-07 -1.09931e-07 0)
(6.86346e-07 -8.23162e-08 0)
(9.94307e-07 2.32278e-08 0)
(1.32187e-06 2.04605e-07 0)
(1.66678e-06 4.55012e-07 0)
(2.03151e-06 7.66816e-07 0)
(2.41403e-06 1.13098e-06 0)
(2.81782e-06 1.53986e-06 0)
(3.23602e-06 1.98229e-06 0)
(1.17923e-07 -6.47989e-08 0)
(3.66217e-07 -1.39347e-07 0)
(6.38961e-07 -1.29249e-07 0)
(9.26099e-07 -3.94341e-08 0)
(1.23103e-06 1.2717e-07 0)
(1.55192e-06 3.63335e-07 0)
(1.8914e-06 6.61215e-07 0)
(2.24809e-06 1.01179e-06 0)
(2.62528e-06 1.40759e-06 0)
(3.01731e-06 1.83782e-06 0)
(1.08624e-07 -7.61447e-08 0)
(3.39279e-07 -1.70487e-07 0)
(5.9245e-07 -1.77374e-07 0)
(8.57741e-07 -1.02003e-07 0)
(1.13851e-06 5.12974e-08 0)
(1.43365e-06 2.74725e-07 0)
(1.74618e-06 5.60124e-07 0)
(2.07546e-06 8.98495e-07 0)
(2.42467e-06 1.28255e-06 0)
(2.78939e-06 1.70191e-06 0)
(1.0034e-07 -8.92068e-08 0)
(3.15291e-07 -2.04053e-07 0)
(5.48278e-07 -2.27152e-07 0)
(7.89859e-07 -1.64805e-07 0)
(1.04393e-06 -2.31961e-08 0)
(1.31065e-06 1.88993e-07 0)
(1.59364e-06 4.63299e-07 0)
(1.89311e-06 7.90761e-07 0)
(2.21219e-06 1.16427e-06 0)
(2.54768e-06 1.57391e-06 0)
(9.45358e-08 -1.06401e-07 0)
(2.96313e-07 -2.41127e-07 0)
(5.07867e-07 -2.77583e-07 0)
(7.2276e-07 -2.25352e-07 0)
(9.46625e-07 -9.31312e-08 0)
(1.18133e-06 1.09593e-07 0)
(1.43138e-06 3.7416e-07 0)
(1.69788e-06 6.9181e-07 0)
(1.98398e-06 1.05569e-06 0)
(2.28763e-06 1.45643e-06 0)
(9.83359e-08 -1.29512e-07 0)
(2.90024e-07 -2.83039e-07 0)
(4.76114e-07 -3.29615e-07 0)
(6.58162e-07 -2.85062e-07 0)
(8.45836e-07 -1.60246e-07 0)
(1.04313e-06 3.44325e-08 0)
(1.2555e-06 2.90352e-07 0)
(1.48477e-06 5.99058e-07 0)
(1.73408e-06 9.54036e-07 0)
(2.00237e-06 1.34649e-06 0)
(1.26832e-07 -1.7131e-07 0)
(3.01253e-07 -3.30769e-07 0)
(4.5533e-07 -3.76661e-07 0)
(5.9583e-07 -3.33708e-07 0)
(7.40406e-07 -2.13652e-07 0)
(8.94127e-07 -2.57087e-08 0)
(1.06354e-06 2.2211e-07 0)
(1.25079e-06 5.22092e-07 0)
(1.45911e-06 8.68144e-07 0)
(1.68796e-06 1.25213e-06 0)
)
;

boundaryField
{
    left
    {
        type            fixedDisplacement;
        value           uniform (0 0 0);
    }
    right
    {
        type            solidTraction;
        tractionSeries  
{
        file            "$FOAM_CASE/constant/timeVsTraction";
        outOfBounds     clamp;
}
        pressure        uniform 0;
        secondOrder     false;
        setEffectiveTraction false;
        relaxationFactor 1;
        value           nonuniform List<vector> 
30
(
(2.29208e-05 1.68132e-05 -8.51343e-21)
(2.23864e-05 1.66207e-05 -8.56428e-21)
(2.18473e-05 1.64295e-05 -8.65496e-21)
(2.1302e-05 1.62361e-05 -8.77935e-21)
(2.07505e-05 1.60383e-05 -8.93786e-21)
(2.01941e-05 1.58341e-05 -9.13118e-21)
(1.96347e-05 1.56223e-05 -9.36096e-21)
(1.90747e-05 1.54023e-05 -9.62876e-21)
(1.85165e-05 1.5174e-05 -9.93618e-21)
(1.79625e-05 1.4938e-05 -1.02851e-20)
(1.74385e-05 1.47058e-05 -1.04641e-20)
(1.69417e-05 1.44776e-05 -1.04258e-20)
(1.64518e-05 1.4246e-05 -1.04005e-20)
(1.59701e-05 1.4012e-05 -1.0388e-20)
(1.54968e-05 1.37775e-05 -1.03902e-20)
(1.50308e-05 1.35438e-05 -1.04063e-20)
(1.45731e-05 1.33119e-05 -1.0434e-20)
(1.41227e-05 1.30834e-05 -1.04731e-20)
(1.36785e-05 1.28594e-05 -1.05214e-20)
(1.32394e-05 1.26407e-05 -1.05771e-20)
(1.28041e-05 1.2428e-05 -1.06377e-20)
(1.23711e-05 1.22217e-05 -1.07006e-20)
(1.19388e-05 1.2022e-05 -1.0763e-20)
(1.15058e-05 1.18287e-05 -1.08221e-20)
(1.10705e-05 1.16413e-05 -1.08749e-20)
(1.06319e-05 1.14591e-05 -1.09193e-20)