/*--------------------------------*- C++ -*----------------------------------*\
  =========                 |
  \\      /  F ield         | OpenFOAM: The Open Source CFD Toolbox
   \\    /   O peration     | Website:  https://openfoam.org
    \\  /    A nd           | Version:  9
     \\/     M anipulation  |
\*---------------------------------------------------------------------------*/
FoamFile
{
    format      ascii;
    class       volScalarField;
    location    "15";
    object      epsilonEq;
}
// * * * * * * * * * * * * * * * * * * * * * * * * * * * * * * * * * * * * * //

dimensions      [0 0 0 0 0 0 0];

internalField   nonuniform List<scalar> 
1000
(
1.02283e-05
9.70859e-06
9.55665e-06
9.63739e-06
9.64791e-06
9.62998e-06
9.56414e-06
9.46293e-06
9.34965e-06
9.2075e-06
1.19173e-05
1.08383e-05
1.02962e-05
1.01401e-05
9.99252e-06
9.86772e-06
9.72243e-06
9.56773e-06
9.3928e-06
9.23771e-06
1.35508e-05
1.19181e-05
1.0965e-05
1.05378e-05
1.02092e-05
9.95755e-06
9.71975e-06
9.49774e-06
9.26513e-06
9.07834e-06
1.50888e-05
1.29261e-05
1.1561e-05
1.0835e-05
1.03073e-05
9.91354e-06
9.57471e-06
9.28124e-06
8.99303e-06
8.77292e-06
1.65934e-05
1.38503e-05
1.20941e-05
1.10412e-05
1.02935e-05
9.74238e-06
9.2943e-06
8.92494e-06
8.58427e-06
8.32882e-06
1.79543e-05
1.47236e-05
1.25338e-05
1.11541e-05
1.01685e-05
9.45317e-06
8.8919e-06
8.44634e-06
8.05656e-06
7.76503e-06
1.89514e-05
1.5462e-05
1.28181e-05
1.1122e-05
9.90555e-06
9.0368e-06
8.37387e-06
7.86183e-06
7.43327e-06
7.10927e-06
2.00208e-05
1.59772e-05
1.28904e-05
1.09037e-05
9.50015e-06
8.51424e-06
7.78148e-06
7.22715e-06
6.77928e-06
6.4337e-06
2.1214e-05
1.59852e-05
1.25078e-05
1.03117e-05
8.86563e-06
7.86586e-06
7.13948e-06
6.59148e-06
6.15563e-06
5.8061e-06
2.23675e-05
1.50922e-05
1.15677e-05
9.50628e-06
8.23852e-06
7.35387e-06
6.70554e-06
6.19996e-06
5.79108e-06
5.44348e-06
2.68739e-08
8.41142e-08
3.74199e-07
7.7174e-07
1.20778e-06
1.65785e-06
2.09498e-06
2.51168e-06
2.89452e-06
3.24969e-06
9.90635e-08
5.16705e-07
1.09923e-06
1.6719e-06
2.17952e-06
2.63035e-06
3.02379e-06
3.37604e-06
3.67859e-06
3.96298e-06
4.25427e-07
1.22568e-06
1.95983e-06
2.62409e-06
3.17766e-06
3.63786e-06
4.0122e-06
4.32645e-06
4.57256e-06
4.80543e-06
9.75233e-07
2.09138e-06
2.91869e-06
3.61925e-06
4.17691e-06
4.62463e-06
4.97262e-06
5.25129e-06
5.45097e-06
5.64308e-06
1.75648e-06
3.06637e-06
3.94753e-06
4.65373e-06
5.18587e-06
5.59825e-06
5.90518e-06
6.14015e-06
6.29231e-06
6.44304e-06
2.766e-06
4.10359e-06
4.98553e-06
5.67188e-06
6.15952e-06
6.52245e-06
6.77887e-06
6.96384e-06
7.06749e-06
7.17469e-06
3.98261e-06
5.1856e-06
6.00422e-06
6.64321e-06
7.07138e-06
7.37544e-06
7.57511e-06
7.70598e-06
7.76083e-06
7.822e-06
5.3779e-06
6.29741e-06
6.97922e-06
7.53701e-06
7.89034e-06
8.12793e-06
8.26802e-06
8.34306e-06
8.35331e-06
8.36581e-06
6.91039e-06
7.42756e-06
7.89966e-06
8.33874e-06
8.59943e-06
8.76266e-06
8.8391e-06
8.85816e-06
8.82591e-06
8.79631e-06
8.54513e-06
8.56677e-06
8.75782e-06
9.03762e-06
9.18429e-06
9.26142e-06
9.26931e-06
9.22675e-06
9.16606e-06
9.06937e-06
3.56967e-06
3.84481e-06
4.1e-06
4.33079e-06
4.53947e-06
4.72725e-06
4.89583e-06
5.04647e-06
5.1807e-06
5.29952e-06
5.40403e-06
5.49494e-06
5.57284e-06
5.63813e-06
5.69098e-06
5.73166e-06
5.76002e-06
5.77699e-06
5.78234e-06
5.77898e-06
4.18302e-06
4.34332e-06
4.50516e-06
4.65556e-06
4.79665e-06
4.9278e-06
5.049e-06
5.16022e-06
5.2618e-06
5.35385e-06
5.43675e-06
5.51069e-06
5.57593e-06
5.63265e-06
5.68086e-06
5.72059e-06
5.75126e-06
5.77252e-06
5.78151e-06
5.77637e-06
4.93559e-06
4.98686e-06
5.05258e-06
5.11596e-06
5.18044e-06
5.2447e-06
5.30827e-06
5.37004e-06
5.42978e-06
5.48667e-06
5.54056e-06
5.59099e-06
5.63781e-06
5.68073e-06
5.71933e-06
5.75307e-06
5.78037e-06
5.79955e-06
5.80468e-06
5.79235e-06
5.69882e-06
5.65918e-06
5.64209e-06
5.6285e-06
5.62231e-06
5.62262e-06
5.62933e-06
5.64078e-06
5.65678e-06
5.67585e-06
5.6976e-06
5.72105e-06
5.74566e-06
5.77066e-06
5.79516e-06
5.81805e-06
5.83702e-06
5.84981e-06
5.84936e-06
5.83255e-06
6.43311e-06
6.31861e-06
6.23031e-06
6.15057e-06
6.08219e-06
6.02445e-06
5.97839e-06
5.94166e-06
5.91477e-06
5.89576e-06
5.88434e-06
5.87915e-06
5.87947e-06
5.88417e-06
5.89202e-06
5.90157e-06
5.91015e-06
5.91535e-06
5.91031e-06
5.89247e-06
7.1068e-06
6.93268e-06
6.78544e-06
6.65023e-06
6.52979e-06
6.42171e-06
6.32954e-06
6.24952e-06
6.18328e-06
6.12841e-06
6.08491e-06
6.05127e-06
6.02675e-06
6.01012e-06
6.00006e-06
5.99503e-06
5.99256e-06
5.99037e-06
5.983e-06
5.96818e-06
7.70377e-06
7.4848e-06
7.2928e-06
7.11186e-06
6.94999e-06
6.79893e-06
6.66684e-06
6.54824e-06
6.44622e-06
6.35826e-06
6.28461e-06
6.22387e-06
6.17533e-06
6.13777e-06
6.11e-06
6.09057e-06
6.07756e-06
6.069e-06
6.0616e-06
6.05307e-06
8.20747e-06
7.95714e-06
7.73787e-06
7.51925e-06
7.32705e-06
7.14259e-06
6.97884e-06
6.8288e-06
6.69621e-06
6.57903e-06
6.47781e-06
6.39158e-06
6.31991e-06
6.26188e-06
6.21665e-06
6.18307e-06
6.16009e-06
6.14617e-06
6.14066e-06
6.14104e-06
8.61639e-06
8.33797e-06
8.11903e-06
7.87407e-06
7.65866e-06
7.44701e-06
7.25523e-06
7.07816e-06
6.919e-06
6.77668e-06
6.65156e-06
6.5431e-06
6.45101e-06
6.3747e-06
6.31376e-06
6.26746e-06
6.23579e-06
6.21772e-06
6.21548e-06
6.2262e-06
8.92126e-06
8.62318e-06
8.4186e-06
8.17578e-06
7.95101e-06
7.72765e-06
7.51631e-06
7.31764e-06
7.13467e-06
6.96833e-06
6.81957e-06
6.68858e-06
6.57554e-06
6.4803e-06
6.40297e-06
6.3433e-06
6.30242e-06
6.27989e-06
6.281e-06
6.30271e-06
9.04001e-06
8.7607e-06
8.55834e-06
8.32976e-06
8.10526e-06
7.88205e-06
7.66676e-06
7.46146e-06
7.26957e-06
7.09261e-06
6.93218e-06
6.78904e-06
6.66392e-06
6.55718e-06
6.4696e-06
6.40147e-06
6.355e-06
6.33027e-06
6.33497e-06
6.36598e-06
8.80828e-06
8.66463e-06
8.47907e-06
8.28047e-06
8.07766e-06
7.87289e-06
7.67236e-06
7.47835e-06
7.29459e-06
7.12298e-06
6.96559e-06
6.82365e-06
6.69841e-06
6.59072e-06
6.50192e-06
6.43286e-06
6.38653e-06
6.36356e-06
6.37343e-06
6.41257e-06
8.62146e-06
8.51236e-06
8.37019e-06
8.20001e-06
8.0234e-06
7.83834e-06
7.65406e-06
7.47243e-06
7.29809e-06
7.1332e-06
6.98034e-06
6.84116e-06
6.71734e-06
6.6102e-06
6.52151e-06
6.45267e-06
6.40729e-06
6.38614e-06
6.39977e-06
6.44446e-06
8.39878e-06
8.33313e-06
8.22644e-06
8.08395e-06
7.93234e-06
7.76738e-06
7.60042e-06
7.43292e-06
7.27024e-06
7.11464e-06
6.96911e-06
6.83553e-06
6.71595e-06
6.61198e-06
6.52568e-06
6.45895e-06
6.41526e-06
6.39653e-06
6.41404e-06
6.46178e-06
8.14493e-06
8.11359e-06
8.0404e-06
7.92702e-06
7.80212e-06
7.65976e-06
7.5126e-06
7.36184e-06
7.21341e-06
7.06971e-06
6.93406e-06
6.80861e-06
6.6956e-06
6.59697e-06
6.51472e-06
6.45163e-06
6.4095e-06
6.39567e-06
6.40445e-06
6.46341e-06
7.87465e-06
7.87392e-06
7.83089e-06
7.74486e-06
7.64515e-06
7.52515e-06
7.39806e-06
7.26498e-06
7.13211e-06
7.00198e-06
6.87812e-06
6.76278e-06
6.65843e-06
6.567e-06
6.49097e-06
6.43225e-06
6.39499e-06
6.38119e-06
6.39956e-06
6.4458e-06
7.59276e-06
7.61726e-06
7.60058e-06
7.54013e-06
7.46434e-06
7.36655e-06
7.25983e-06
7.14523e-06
7.02906e-06
6.91389e-06
6.80334e-06
6.69977e-06
6.60569e-06
6.52308e-06
6.45437e-06
6.40136e-06
6.36801e-06
6.35509e-06
6.37213e-06
6.41566e-06
7.305e-06
7.35043e-06
7.35671e-06
7.31939e-06
7.26562e-06
7.18905e-06
7.10223e-06
7.00627e-06
6.90734e-06
6.80802e-06
6.71193e-06
6.6214e-06
6.53895e-06
6.46645e-06
6.4062e-06
6.35976e-06
6.33057e-06
6.3195e-06
6.3345e-06
6.37221e-06
7.01394e-06
7.07597e-06
7.10174e-06
7.08508e-06
7.05151e-06
6.99514e-06
6.92773e-06
6.85042e-06
6.76912e-06
6.68635e-06
6.60564e-06
6.52923e-06
6.45953e-06
6.39828e-06
6.34753e-06
6.30853e-06
6.28412e-06
6.27468e-06
6.28689e-06
6.31762e-06
6.72088e-06
6.79592e-06
6.83816e-06
6.83981e-06
6.82472e-06
6.78744e-06
6.73883e-06
6.68003e-06
6.61658e-06
6.55088e-06
6.48625e-06
6.42483e-06
6.36884e-06
6.31982e-06
6.2795e-06
6.24883e-06
6.2298e-06
6.22247e-06
6.23154e-06
6.25412e-06
6.42535e-06
6.51036e-06
6.56646e-06
6.58447e-06
6.58645e-06
6.56739e-06
6.53717e-06
6.49685e-06
6.45151e-06
6.40337e-06
6.35549e-06
6.30983e-06
6.26837e-06
6.23247e-06
6.20346e-06
6.18194e-06
6.16906e-06
6.16435e-06
6.17036e-06
6.18451e-06
6.12596e-06
6.21871e-06
6.28671e-06
6.31965e-06
6.33776e-06
6.33642e-06
6.32443e-06
6.30273e-06
6.27587e-06
6.24582e-06
6.21533e-06
6.18612e-06
6.15994e-06
6.1379e-06
6.12098e-06
6.10942e-06
6.10351e-06
6.10224e-06
6.10583e-06
6.11181e-06
5.81981e-06
5.91897e-06
5.99773e-06
6.04496e-06
6.07895e-06
6.09539e-06
6.10198e-06
6.09944e-06
6.0917e-06
6.08046e-06
6.06807e-06
6.05603e-06
6.04578e-06
6.03825e-06
6.03406e-06
6.03317e-06
6.03506e-06
6.03819e-06
6.04043e-06
6.03923e-06
5.50409e-06
5.6094e-06
5.69873e-06
5.76051e-06
5.8109e-06
5.84586e-06
5.87189e-06
5.88945e-06
5.90179e-06
5.91025e-06
5.91677e-06
5.92257e-06
5.92883e-06
5.93626e-06
5.94525e-06
5.95551e-06
5.96592e-06
5.97445e-06
5.97682e-06
5.97004e-06
5.17385e-06
5.28649e-06
5.3876e-06
5.46547e-06
5.53392e-06
5.58911e-06
5.63627e-06
5.67552e-06
5.70937e-06
5.73878e-06
5.76522e-06
5.78961e-06
5.81288e-06
5.83557e-06
5.85788e-06
5.87945e-06
5.89878e-06
5.91352e-06
5.9177e-06
5.90758e-06
4.82726e-06
4.95001e-06
5.0654e-06
5.16208e-06
5.2512e-06
5.32911e-06
5.39965e-06
5.46257e-06
5.51962e-06
5.5713e-06
5.61864e-06
5.66226e-06
5.70282e-06
5.74072e-06
5.7761e-06
5.80862e-06
5.83674e-06
5.85804e-06
5.86564e-06
5.85481e-06
4.45752e-06
4.59574e-06
4.73029e-06
4.85058e-06
4.96469e-06
5.06915e-06
5.16639e-06
5.25575e-06
5.33822e-06
5.4139e-06
5.48336e-06
5.54692e-06
5.605e-06
5.65787e-06
5.70565e-06
5.74811e-06
5.78404e-06
5.81131e-06
5.82342e-06
5.81473e-06
4.072e-06
4.23286e-06
4.39267e-06
4.54205e-06
4.6858e-06
4.82059e-06
4.94753e-06
5.06558e-06
5.17507e-06
5.27577e-06
5.36787e-06
5.45144e-06
5.52667e-06
5.59373e-06
5.65269e-06
5.70347e-06
5.74535e-06
5.7769e-06
5.79319e-06
5.78861e-06
3.6631e-06
3.85862e-06
4.0537e-06
4.2405e-06
4.42058e-06
4.59089e-06
4.75145e-06
4.90105e-06
5.03957e-06
5.16659e-06
5.2821e-06
5.38598e-06
5.47825e-06
5.55888e-06
5.62775e-06
5.68476e-06
5.72942e-06
5.7614e-06
5.77843e-06
5.77815e-06
3.27877e-06
3.51875e-06
3.75581e-06
3.98382e-06
4.20255e-06
4.40899e-06
4.60282e-06
4.78272e-06
4.94857e-06
5.09993e-06
5.23679e-06
5.35901e-06
5.4665e-06
5.55904e-06
5.63618e-06
5.69755e-06
5.74226e-06
5.77066e-06
5.78197e-06
5.78025e-06
5.14995e-06
5.49836e-06
6.09459e-06
6.751e-06
7.40342e-06
7.97679e-06
8.44026e-06
8.77207e-06
8.97724e-06
9.0189e-06
4.87776e-06
5.20262e-06
5.75243e-06
6.37246e-06
7.01052e-06
7.59548e-06
8.09574e-06
8.47933e-06
8.74531e-06
8.84903e-06
4.63391e-06
4.94379e-06
5.45504e-06
6.03543e-06
6.64307e-06
7.21256e-06
7.71732e-06
8.1304e-06
8.45275e-06
8.65093e-06
4.41083e-06
4.71064e-06
5.19003e-06
5.73534e-06
6.31465e-06
6.8674e-06
7.36759e-06
7.78955e-06
8.12756e-06
8.38332e-06
4.20148e-06
4.49444e-06
4.9468e-06
5.45912e-06
6.00829e-06
6.54019e-06
7.03113e-06
7.46068e-06
7.8095e-06
8.09826e-06
4.0049e-06
4.29352e-06
4.72366e-06
5.20678e-06
5.72685e-06
6.23523e-06
6.70917e-06
7.13505e-06
7.48403e-06
7.79421e-06
3.81745e-06
4.10311e-06
4.51447e-06
4.97159e-06
5.46436e-06
5.94964e-06
6.40551e-06
6.82416e-06
7.16804e-06
7.48516e-06
3.63851e-06
3.92181e-06
4.31696e-06
4.75069e-06
5.21753e-06
5.67915e-06
6.11469e-06
6.52162e-06
6.85782e-06
7.17524e-06
3.46686e-06
3.74774e-06
4.12839e-06
4.54084e-06
4.98348e-06
5.42208e-06
5.83708e-06
6.22956e-06
6.55576e-06
6.86766e-06
3.30258e-06
3.58016e-06
3.94695e-06
4.33926e-06
4.75859e-06
5.17416e-06
5.56827e-06
5.94435e-06
6.25949e-06
6.56287e-06
3.14599e-06
3.41873e-06
3.77133e-06
4.14369e-06
4.54009e-06
4.93257e-06
5.30562e-06
5.66385e-06
5.96688e-06
6.25973e-06
2.99831e-06
3.26383e-06
3.60065e-06
3.95199e-06
4.32479e-06
4.69348e-06
5.045e-06
5.38434e-06
5.6746e-06
5.95589e-06
2.86203e-06
3.11663e-06
3.43411e-06
3.76163e-06
4.10891e-06
4.45243e-06
4.78164e-06
5.10122e-06
5.37818e-06
5.64751e-06
2.74087e-06
2.97887e-06
3.27132e-06
3.57053e-06
3.889e-06
4.2052e-06
4.51087e-06
4.80991e-06
5.07326e-06
5.33072e-06
2.64196e-06
2.85332e-06
3.11011e-06
3.37303e-06
3.65741e-06
3.94344e-06
4.22432e-06
4.50255e-06
4.75266e-06
4.99917e-06
2.57368e-06
2.74131e-06
2.94825e-06
3.16565e-06
3.40977e-06
3.66242e-06
3.91724e-06
4.17472e-06
4.41255e-06
4.64968e-06
2.55468e-06
2.64551e-06
2.77359e-06
2.92943e-06
3.12577e-06
3.34295e-06
3.57264e-06
3.81186e-06
4.04085e-06
4.27261e-06
2.58827e-06
2.548e-06
2.57269e-06
2.65846e-06
2.80332e-06
2.985e-06
3.19216e-06
3.41716e-06
3.64235e-06
3.87389e-06
2.72067e-06
2.42504e-06
2.28474e-06
2.28498e-06
2.38451e-06
2.54187e-06
2.73923e-06
2.96284e-06
3.19672e-06
3.43977e-06
2.77273e-06
2.12249e-06
1.89008e-06
1.82395e-06
1.90136e-06
2.05183e-06
2.25659e-06
2.49513e-06
2.75204e-06
3.01966e-06
)
;

boundaryField
{
    left
    {
        type            calculated;
        value           nonuniform List<scalar> 
30
(
5.09149e-06
4.82234e-06
4.58137e-06
4.36085e-06
4.15434e-06
3.96088e-06
3.77717e-06
3.60273e-06
3.43659e-06
3.27909e-06
3.13089e-06
2.99347e-06
2.86956e-06
2.76329e-06
2.68217e-06
2.63719e-06
2.65067e-06
2.74944e-06
3.0261e-06
3.45416e-06
2.38698e-05
1.48075e-05
1.11936e-05
9.27077e-06
8.09597e-06
7.25997e-06
6.63502e-06
6.13912e-06
5.73438e-06
5.38516e-06
)
;
    }
    right
    {
        type            calculated;
        value           nonuniform List<scalar> 
30
(
5.778e-06
5.77637e-06
5.7918e-06
5.83166e-06
5.89137e-06
5.96711e-06
6.05221e-06
6.1406e-06
6.22622e-06
6.30345e-06
6.367e-06
6.41435e-06
6.44649e-06
6.46397e-06
6.46398e-06
6.44771e-06
6.4177e-06
6.37394e-06
6.31898e-06
6.25505e-06
6.18501e-06
6.11191e-06
6.039e-06
5.96958e-06
5.90704e-06
5.85432e-06
5.81445e-06
5.78859e-06
5.77838e-06
5.77913e-06
)
;
    }
    down
    {
        type            calculated;
        value           nonuniform List<scalar> 
30
(
2.09615e-08
2.8819e-08
2.72195e-07
6.55264e-07
1.09619e-06
1.55688e-06
2.00683e-06
2.43579e-06
2.82947e-06
3.19473e-06
3.52367e-06
3.8103e-06
4.0736e-06
4.31038e-06
4.52397e-06
4.71537e-06
4.88695e-06
5.03988e-06
5.17596e-06
5.29623e-06
5.40188e-06
5.49366e-06
5.57221e-06
5.63794e-06
5.69102e-06
5.73177e-06
5.76003e-06
5.7769e-06
5.78228e-06
5.78038e-06
)
;
    }
    up
    {
        type            calculated;
        value           nonuniform List<scalar> 
30
(
2.73053e-06
2.09702e-06
1.87707e-06
1.80977e-06
1.88513e-06
2.03338e-06
2.23677e-06
2.47493e-06
2.7316e-06
3.00031e-06
3.26022e-06
3.50211e-06
3.74146e-06
3.97136e-06
4.19205e-06
4.40018e-06
4.59562e-06
4.77694e-06
4.94407e-06
5.09653e-06
5.23436e-06
5.3574e-06
5.46557e-06
5.55865e-06
5.63617e-06
5.69774e-06
5.74246e-06
5.77075e-06
5.78186e-06
5.78111e-06
)
;
    }
    hole
    {
        type            calculated;
        value           nonuniform List<scalar> 
20
(
1.02909e-05
1.20645e-05
1.37876e-05
1.54117e-05
1.70742e-05
1.85522e-05
1.95133e-05
2.06633e-05
2.22678e-05
2.40757e-05
9.45739e-09
9.04123e-09
2.03276e-07
6.92303e-07
1.45414e-06
2.48237e-06
3.74261e-06
5.2007e-06
6.80845e-06
8.52658e-06
)
;
    }
    frontAndBack
    {
        type            empty;
    }
}


// ************************************************************************* //
