/*--------------------------------*- C++ -*----------------------------------*\
  =========                 |
  \\      /  F ield         | OpenFOAM: The Open Source CFD Toolbox
   \\    /   O peration     | Website:  https://openfoam.org
    \\  /    A nd           | Version:  9
     \\/     M anipulation  |
\*---------------------------------------------------------------------------*/
FoamFile
{
    format      ascii;
    class       volSymmTensorField;
    location    "15";
    object      epsilon;
}
// * * * * * * * * * * * * * * * * * * * * * * * * * * * * * * * * * * * * * //

dimensions      [0 0 0 0 0 0 0];

internalField   nonuniform List<symmTensor> 
1000
(
(6.30992e-06 -8.20497e-06 6.94542e-19 1.26667e-06 7.65015e-19 2.08372e-33)
(8.70161e-06 -6.33017e-06 -1.30427e-20 -1.57168e-06 7.28934e-21 0)
(9.87615e-06 -4.85471e-06 1.52295e-20 -2.91261e-06 -2.92322e-21 0)
(1.05431e-05 -3.74269e-06 3.92181e-21 -3.87109e-06 -2.79048e-21 0)
(1.0865e-05 -2.84292e-06 -1.65587e-20 -4.39866e-06 1.21365e-21 0)
(1.09752e-05 -2.14073e-06 -1.8008e-21 -4.73819e-06 1.96107e-21 0)
(1.09654e-05 -1.56839e-06 -1.50192e-20 -4.92179e-06 -8.0588e-21 0)
(1.08674e-05 -1.11345e-06 1.03147e-20 -5.01554e-06 4.81787e-21 0)
(1.07393e-05 -7.34866e-07 -5.3012e-21 -5.04984e-06 -6.04677e-21 0)
(1.05516e-05 -4.19787e-07 0 -5.05468e-06 0 0)
(8.49686e-06 -9.13791e-06 6.43165e-19 3.88786e-07 8.32131e-19 1.12753e-34)
(1.03987e-05 -6.54542e-06 0 -2.19505e-06 0 0)
(1.11958e-05 -4.67373e-06 1.21756e-20 -3.28946e-06 5.80441e-21 0)
(1.1573e-05 -3.33557e-06 -2.09032e-20 -4.08882e-06 -1.11468e-20 0)
(1.16695e-05 -2.3058e-06 -8.88495e-21 -4.489e-06 -5.35839e-21 0)
(1.16004e-05 -1.53849e-06 6.17254e-21 -4.73831e-06 6.30487e-21 0)
(1.14454e-05 -9.36994e-07 6.92629e-21 -4.85094e-06 4.6425e-21 0)
(1.12337e-05 -4.80189e-07 1.62968e-20 -4.9012e-06 9.50936e-21 0)
(1.09953e-05 -1.09455e-07 0 -4.88484e-06 0 0)
(1.07426e-05 1.87067e-07 0 -4.89255e-06 0 0)
(1.09513e-05 -9.73228e-06 5.90845e-19 -7.73665e-07 8.84259e-19 0)
(1.21664e-05 -6.53338e-06 0 -2.8901e-06 0 0)
(1.24665e-05 -4.34675e-06 1.16098e-20 -3.6297e-06 6.01245e-21 0)
(1.2483e-05 -2.83407e-06 -3.50417e-21 -4.1933e-06 1.22891e-21 0)
(1.23129e-05 -1.7141e-06 -1.71728e-22 -4.42622e-06 7.58777e-23 0)
(1.20393e-05 -9.10441e-07 -5.75466e-21 -4.55852e-06 -5.96698e-21 0)
(1.17259e-05 -3.039e-07 7.88837e-21 -4.5853e-06 3.6476e-21 0)
(1.1391e-05 1.38676e-07 -5.84718e-21 -4.58031e-06 -4.32008e-21 0)
(1.10512e-05 4.83226e-07 -4.80446e-22 -4.51674e-06 8.12155e-22 0)
(1.0723e-05 7.63087e-07 -1.23874e-21 -4.51034e-06 -5.32801e-22 0)
(1.36013e-05 -9.87334e-06 5.17024e-19 -2.203e-06 9.35308e-19 -5.98101e-35)
(1.39329e-05 -6.2906e-06 6.65986e-21 -3.59913e-06 -6.86324e-22 0)
(1.36568e-05 -3.89239e-06 -5.30496e-21 -3.9137e-06 -3.00442e-21 0)
(1.32586e-05 -2.26884e-06 -3.38623e-21 -4.18073e-06 6.53152e-22 0)
(1.27911e-05 -1.10728e-06 6.00954e-21 -4.2183e-06 5.82499e-21 0)
(1.22971e-05 -3.0066e-07 -7.25224e-21 -4.21688e-06 -4.79854e-21 0)
(1.18188e-05 2.85005e-07 -6.26454e-21 -4.15356e-06 -4.46154e-21 0)
(1.13625e-05 6.96961e-07 -1.39618e-20 -4.0927e-06 -1.02216e-20 0)
(1.0928e-05 1.00108e-06 -1.99341e-21 -3.99091e-06 -2.44342e-21 0)
(1.05346e-05 1.24843e-06 3.41518e-21 -3.96633e-06 3.02558e-21 0)
(1.63378e-05 -9.54553e-06 4.7831e-19 -3.91293e-06 1.04428e-18 -1.22055e-33)
(1.56497e-05 -5.78086e-06 3.49213e-25 -4.32743e-06 1.55928e-26 0)
(1.47502e-05 -3.31183e-06 -1.71929e-20 -4.15832e-06 -8.44878e-21 0)
(1.38945e-05 -1.65395e-06 1.57476e-21 -4.066e-06 -6.01984e-23 0)
(1.31039e-05 -5.14497e-07 -2.20676e-21 -3.88001e-06 2.25234e-22 0)
(1.23798e-05 2.52216e-07 5.20937e-21 -3.73087e-06 4.82667e-21 0)
(1.1737e-05 7.84334e-07 -5.90724e-22 -3.57612e-06 1.70901e-22 0)
(1.11652e-05 1.14354e-06 5.51333e-21 -3.46199e-06 3.68795e-21 0)
(1.06487e-05 1.39087e-06 -1.17569e-21 -3.33318e-06 -2.54841e-21 0)
(1.01992e-05 1.59225e-06 -2.17789e-21 -3.29431e-06 -1.76179e-21 0)
(1.89507e-05 -8.78527e-06 3.28983e-19 -5.50509e-06 9.22131e-19 -1.20474e-33)
(1.7327e-05 -4.97595e-06 3.19819e-25 -5.05936e-06 6.56213e-26 0)
(1.57249e-05 -2.57876e-06 -1.73597e-25 -4.30572e-06 -2.71091e-26 0)
(1.43875e-05 -9.94817e-07 1.39361e-21 -3.83873e-06 1.6757e-22 0)
(1.32567e-05 4.38345e-08 -7.4432e-21 -3.41325e-06 -4.53678e-21 0)
(1.23043e-05 7.15428e-07 8.55431e-23 -3.12057e-06 -6.98363e-25 0)
(1.15059e-05 1.15757e-06 5.5374e-21 -2.88354e-06 3.75738e-21 0)
(1.08313e-05 1.44065e-06 1.17681e-20 -2.72703e-06 8.6244e-21 0)
(1.0248e-05 1.61758e-06 2.13172e-21 -2.58496e-06 1.56717e-21 0)
(9.75429e-06 1.76202e-06 -3.71955e-21 -2.53847e-06 -2.93621e-21 0)
(2.13203e-05 -7.2327e-06 1.90326e-19 -6.95381e-06 6.13256e-19 -1.93639e-33)
(1.88256e-05 -3.82842e-06 5.05546e-21 -5.69168e-06 1.97397e-21 0)
(1.64949e-05 -1.65223e-06 5.26477e-21 -4.29982e-06 2.40798e-21 0)
(1.46727e-05 -3.02126e-07 -1.14705e-21 -3.46099e-06 -3.35549e-22 0)
(1.32198e-05 5.39996e-07 5.36749e-21 -2.81464e-06 3.60855e-21 0)
(1.20668e-05 1.05097e-06 -4.94232e-21 -2.40609e-06 -3.42138e-21 0)
(1.11424e-05 1.36584e-06 1.41884e-21 -2.11408e-06 8.91186e-23 0)
(1.03907e-05 1.55172e-06 -4.41664e-21 -1.93707e-06 -2.90226e-21 0)
(9.7635e-06 1.65021e-06 -3.08692e-22 -1.80078e-06 3.84757e-23 0)
(9.24092e-06 1.73233e-06 -2.23858e-21 -1.75684e-06 -1.46353e-21 0)
(2.36248e-05 -5.29108e-06 9.19381e-20 -8.16974e-06 3.33668e-19 -5.26503e-35)
(2.0052e-05 -2.33803e-06 -1.3297e-20 -5.98634e-06 -4.80673e-21 0)
(1.69969e-05 -5.45637e-07 1.04086e-22 -4.00358e-06 5.6585e-23 0)
(1.47228e-05 3.78725e-07 1.68398e-21 -2.86129e-06 8.25054e-22 0)
(1.30082e-05 9.17511e-07 1.22881e-20 -2.07694e-06 6.14716e-21 0)
(1.17109e-05 1.20855e-06 -7.32002e-22 -1.61905e-06 -2.2228e-22 0)
(1.07083e-05 1.37235e-06 1.82003e-26 -1.3235e-06 3.56193e-27 0)
(9.91566e-06 1.45486e-06 -4.32119e-21 -1.16028e-06 -2.28462e-21 0)
(9.27148e-06 1.481e-06 1.05678e-22 -1.05255e-06 3.86363e-24 0)
(8.73725e-06 1.50683e-06 3.23933e-22 -1.02276e-06 1.58823e-22 0)
(2.58719e-05 -2.36442e-06 -2.7845e-21 -9.28542e-06 -1.30166e-19 -3.08075e-34)
(2.06797e-05 -4.07507e-07 -1.47487e-20 -5.58803e-06 -6.03595e-21 0)
(1.69316e-05 5.52584e-07 1.54136e-21 -3.19923e-06 1.31792e-21 0)
(1.43401e-05 8.51271e-07 1.46721e-21 -1.9317e-06 1.09247e-21 0)
(1.25388e-05 1.01129e-06 -6.0621e-22 -1.20492e-06 -3.64159e-22 0)
(1.1222e-05 1.06676e-06 4.78146e-21 -8.19277e-07 1.75191e-21 0)
(1.02286e-05 1.09245e-06 2.63507e-22 -5.98734e-07 7.74447e-23 0)
(9.44883e-06 1.09393e-06 7.71634e-21 -4.91618e-07 2.95897e-21 0)
(8.81955e-06 1.07505e-06 1.7035e-21 -4.32852e-07 6.60051e-22 0)
(8.29064e-06 1.06607e-06 9.53327e-22 -4.25093e-07 3.86724e-22 0)
(2.79391e-05 2.16126e-06 -9.71769e-21 -8.97015e-06 -4.64291e-19 -2.02298e-33)
(2.01842e-05 2.42923e-06 -1.22295e-21 -3.66424e-06 -1.86428e-21 0)
(1.62476e-05 1.56401e-06 5.09498e-21 -1.66139e-06 2.1644e-21 0)
(1.37506e-05 1.046e-06 2.66839e-22 -7.56143e-07 3.52003e-22 0)
(1.20871e-05 8.13656e-07 9.08485e-27 -3.71726e-07 8.46697e-27 0)
(1.08655e-05 7.04479e-07 4.85402e-21 -1.92678e-07 8.70484e-22 0)
(9.93717e-06 6.60073e-07 7.63161e-23 -1.10994e-07 2.13144e-23 0)
(9.19371e-06 6.38825e-07 3.71906e-21 -7.98312e-08 7.02184e-22 0)
(8.58555e-06 6.19411e-07 -4.16345e-23 -6.87193e-08 -2.13557e-24 0)
(8.06003e-06 6.07321e-07 -6.26427e-23 -7.38049e-08 -1.26443e-23 0)
(-2.57321e-08 1.92227e-08 2.79791e-20 -8.41409e-09 2.89419e-20 1.68834e-34)
(3.30835e-08 -6.89466e-08 -2.77404e-22 -1.23962e-08 2.41606e-20 1.45884e-36)
(3.20803e-07 -2.1655e-07 -3.55316e-21 -1.51349e-07 1.29705e-20 1.81145e-35)
(7.73649e-07 -3.34767e-07 -1.992e-24 -3.58129e-07 1.6516e-20 0)
(1.29489e-06 -4.0778e-07 -4.76179e-22 -5.87766e-07 1.04869e-20 -1.41412e-36)
(1.8395e-06 -4.49501e-07 -4.87278e-21 -8.23838e-07 1.52257e-20 2.90167e-35)
(2.3714e-06 -4.66026e-07 1.09681e-21 -1.05169e-06 2.06371e-20 1.35949e-36)
(2.87849e-06 -4.67494e-07 -3.23473e-21 -1.26708e-06 1.68921e-20 2.53335e-35)
(3.34383e-06 -4.5524e-07 2.6174e-21 -1.4655e-06 1.68424e-20 -1.01887e-35)
(3.77516e-06 -4.45422e-07 5.00492e-21 -1.64469e-06 7.80804e-21 -1.42614e-35)
(5.59122e-08 -7.44034e-08 2.87723e-20 -2.79754e-08 7.68856e-21 4.74747e-35)
(3.41094e-07 -4.00829e-07 3.93296e-21 -6.83131e-09 4.31431e-21 0)
(8.60361e-07 -7.60976e-07 -3.68079e-21 -2.22724e-07 -3.69695e-21 0)
(1.4372e-06 -1.03627e-06 3.52951e-23 -5.13702e-07 -3.06064e-21 0)
(2.01558e-06 -1.20564e-06 0 -8.03453e-07 0 0)
(2.5639e-06 -1.30067e-06 -5.58568e-21 -1.07638e-06 -8.28887e-22 0)
(3.06918e-06 -1.33502e-06 9.40029e-22 -1.32211e-06 4.8081e-21 0)
(3.53372e-06 -1.33274e-06 7.01833e-23 -1.54234e-06 2.58698e-22 0)
(3.94321e-06 -1.29591e-06 -3.00535e-21 -1.73612e-06 -8.74474e-21 0)
(4.32346e-06 -1.26648e-06 2.20695e-21 -1.90097e-06 3.423e-22 0)
(8.76443e-08 -3.64245e-07 3.43514e-20 1.02452e-07 6.71854e-21 -2.12259e-36)
(6.33244e-07 -9.99608e-07 4.02223e-21 3.06454e-08 4.26166e-21 0)
(1.3657e-06 -1.44543e-06 4.20679e-21 -3.04777e-07 8.81542e-22 0)
(2.08407e-06 -1.74437e-06 2.16025e-22 -7.20687e-07 -2.95182e-21 0)
(2.74506e-06 -1.90924e-06 0 -1.10384e-06 0 0)
(3.32673e-06 -1.98684e-06 -6.25034e-21 -1.44045e-06 -1.63134e-21 0)
(3.83232e-06 -1.99634e-06 -8.52585e-21 -1.72372e-06 -2.38718e-21 0)
(4.27695e-06 -1.96456e-06 5.63962e-21 -1.96251e-06 3.44866e-21 0)
(4.64657e-06 -1.89509e-06 3.41697e-23 -2.1574e-06 1.10153e-22 0)
(4.99142e-06 -1.83663e-06 -5.07229e-21 -2.31592e-06 -3.20746e-21 0)
(1.35465e-07 -8.18036e-07 6.34782e-20 4.1214e-07 1.37132e-20 -4.81785e-35)
(1.033e-06 -1.7167e-06 9.90365e-22 6.96762e-08 -3.57818e-21 0)
(1.9629e-06 -2.18533e-06 4.62237e-21 -4.15125e-07 9.04193e-22 0)
(2.80989e-06 -2.44859e-06 0 -9.53915e-07 0 0)
(3.54389e-06 -2.55768e-06 -7.8796e-21 -1.42342e-06 2.93478e-21 0)
(4.15813e-06 -2.57806e-06 9.23391e-23 -1.82149e-06 7.26545e-21 0)
(4.66634e-06 -2.5343e-06 -3.90102e-22 -2.14306e-06 -3.9034e-21 0)
(5.09559e-06 -2.45315e-06 -1.12506e-21 -2.40382e-06 -6.02564e-21 0)
(5.43034e-06 -2.34025e-06 2.57384e-21 -2.60533e-06 8.35165e-22 0)
(5.74571e-06 -2.2448e-06 4.80449e-21 -2.76387e-06 1.80206e-21 0)
(2.5873e-07 -1.45869e-06 7.32641e-20 8.42228e-07 3.61228e-20 1.69097e-34)
(1.59516e-06 -2.49692e-06 -8.11122e-21 6.01844e-08 5.43441e-21 0)
(2.72281e-06 -2.91823e-06 -4.92097e-21 -6.26884e-07 -1.44831e-21 0)
(3.67972e-06 -3.09383e-06 -1.32827e-21 -1.2999e-06 5.32483e-21 0)
(4.46239e-06 -3.10561e-06 -5.21678e-23 -1.84811e-06 3.28498e-22 0)
(5.08852e-06 -3.03734e-06 7.59013e-21 -2.29513e-06 -2.03709e-21 0)
(5.58395e-06 -2.91766e-06 3.30605e-21 -2.64278e-06 8.67822e-22 0)
(5.98675e-06 -2.77095e-06 0 -2.91534e-06 0 0)
(6.27999e-06 -2.606e-06 -3.52747e-21 -3.11558e-06 -4.6461e-21 0)
(6.56075e-06 -2.46571e-06 1.40841e-21 -3.26806e-06 3.41676e-22 0)
(5.26378e-07 -2.30049e-06 1.41615e-19 1.32601e-06 5.9771e-20 -3.20469e-34)
(2.33829e-06 -3.2875e-06 3.30786e-21 7.40155e-10 -6.44969e-21 0)
(3.65299e-06 -3.57722e-06 -4.06366e-21 -9.17082e-07 -4.38422e-21 0)
(4.69248e-06 -3.62018e-06 8.93504e-22 -1.72209e-06 -2.47939e-21 0)
(5.49322e-06 -3.50881e-06 8.59644e-21 -2.33252e-06 2.87728e-21 0)
(6.10458e-06 -3.33635e-06 -8.2957e-21 -2.8109e-06 9.2434e-22 0)
(6.56666e-06 -3.13122e-06 -9.5917e-24 -3.16959e-06 2.20242e-22 0)
(6.92638e-06 -2.91329e-06 -6.46008e-21 -3.44125e-06 -4.45145e-21 0)
(7.16765e-06 -2.69477e-06 1.34871e-23 -3.6321e-06 8.64541e-23 0)
(7.40382e-06 -2.50737e-06 -7.05669e-21 -3.77125e-06 -3.22565e-21 0)
(1.01547e-06 -3.33397e-06 2.62265e-19 1.76001e-06 1.40098e-19 -3.91856e-34)
(3.26876e-06 -4.05702e-06 1.83102e-22 -1.29577e-07 -2.774e-22 0)
(4.73624e-06 -4.1227e-06 -1.34244e-25 -1.27882e-06 2.29186e-25 0)
(5.82104e-06 -3.98895e-06 -8.7792e-21 -2.20311e-06 -6.15527e-21 0)
(6.60596e-06 -3.73417e-06 -1.49285e-21 -2.85729e-06 3.9881e-21 0)
(7.1738e-06 -3.44909e-06 -8.04746e-21 -3.34904e-06 -3.2756e-21 0)
(7.5799e-06 -3.15619e-06 1.44679e-20 -3.70234e-06 6.45042e-21 0)
(7.87777e-06 -2.86816e-06 -2.02936e-24 -3.95961e-06 1.72984e-22 0)
(8.05575e-06 -2.59967e-06 2.85055e-21 -4.13131e-06 -1.29584e-23 0)
(8.23472e-06 -2.36666e-06 -3.8602e-21 -4.24936e-06 -1.83782e-21 0)
(1.79741e-06 -4.52137e-06 4.12062e-19 2.04884e-06 2.57595e-19 -8.57853e-34)
(4.38278e-06 -4.77559e-06 4.71594e-21 -3.39167e-07 -5.63481e-21 0)
(5.93735e-06 -4.52964e-06 -1.82188e-21 -1.67941e-06 2.42728e-21 0)
(7.0177e-06 -4.17981e-06 1.11466e-21 -2.69325e-06 -1.73583e-21 0)
(7.74986e-06 -3.76764e-06 9.95244e-26 -3.36722e-06 -1.95012e-25 0)
(8.24539e-06 -3.36848e-06 9.34364e-21 -3.85305e-06 7.89065e-22 0)
(8.57464e-06 -2.99223e-06 7.06664e-22 -4.18657e-06 -3.04287e-21 0)
(8.79351e-06 -2.64185e-06 -2.39489e-22 -4.417e-06 2.5042e-21 0)
(8.90024e-06 -2.332e-06 2.96311e-23 -4.56511e-06 1.25066e-21 0)
(9.00917e-06 -2.05932e-06 2.94725e-21 -4.65369e-06 2.75702e-21 0)
(2.92747e-06 -5.79116e-06 5.34673e-19 2.10036e-06 4.22202e-19 1.22384e-33)
(5.67193e-06 -5.41244e-06 -1.52012e-21 -6.45068e-07 1.03318e-20 0)
(7.21912e-06 -4.78683e-06 -1.76166e-25 -2.09855e-06 1.84626e-25 0)
(8.23361e-06 -4.19151e-06 1.2081e-20 -3.15657e-06 2.83606e-21 0)
(8.87264e-06 -3.6142e-06 9.22685e-21 -3.81946e-06 4.60689e-21 0)
(9.26703e-06 -3.10497e-06 8.32674e-21 -4.27903e-06 4.15798e-21 0)
(9.49963e-06 -2.65345e-06 -9.17629e-22 -4.57689e-06 2.61507e-21 0)
(9.62378e-06 -2.25354e-06 -1.003e-20 -4.77209e-06 -5.60402e-21 0)
(9.6535e-06 -1.91265e-06 6.16648e-21 -4.88923e-06 1.45794e-21 0)
(9.68402e-06 -1.60771e-06 2.76282e-21 -4.95619e-06 1.64167e-21 0)
(4.43349e-06 -7.05739e-06 6.39061e-19 1.85494e-06 5.9209e-19 1.84275e-34)
(7.11762e-06 -5.94102e-06 -3.0584e-21 -1.05033e-06 2.25685e-21 0)
(8.54142e-06 -4.89406e-06 -5.928e-21 -2.51173e-06 -2.76394e-21 0)
(9.41954e-06 -4.03827e-06 2.57064e-20 -3.55511e-06 6.01797e-21 0)
(9.92129e-06 -3.29567e-06 1.57962e-22 -4.17071e-06 -1.78934e-22 0)
(1.01854e-05 -2.68377e-06 -8.18931e-21 -4.58082e-06 -4.64892e-21 0)
(1.03025e-05 -2.16803e-06 -8.7893e-21 -4.82944e-06 -1.38178e-21 0)
(1.03179e-05 -1.73282e-06 -3.30765e-21 -4.97499e-06 -1.97787e-21 0)
(1.02739e-05 -1.37956e-06 3.80239e-22 -5.06908e-06 -2.73817e-21 0)
(1.02002e-05 -1.07295e-06 1.64394e-21 -5.07752e-06 3.46242e-21 0)
(4.1636e-06 -4.13151e-07 3.87735e-21 -1.8114e-06 4.39585e-21 1.87751e-37)
(4.50207e-06 -3.68623e-07 2.80832e-21 -1.95034e-06 -5.41166e-21 8.9304e-36)
(4.813e-06 -3.29912e-07 -2.97457e-21 -2.07928e-06 -1.75523e-20 9.78337e-36)
(5.0926e-06 -2.94763e-07 -2.03534e-21 -2.19594e-06 -1.88312e-20 6.10326e-37)
(5.34482e-06 -2.62177e-07 -5.18019e-21 -2.30089e-06 -2.27574e-20 -4.59701e-35)
(5.57085e-06 -2.32998e-07 -8.34619e-22 -2.39549e-06 -2.52768e-20 0)
(5.77346e-06 -2.06242e-07 -8.99759e-22 -2.48014e-06 -2.88751e-20 0)
(5.95405e-06 -1.82108e-07 7.18908e-22 -2.55588e-06 -3.00433e-20 -9.03728e-37)
(6.11475e-06 -1.59985e-07 5.1847e-22 -2.62328e-06 -3.43906e-20 2.57475e-35)
(6.25676e-06 -1.3972e-07 2.53087e-21 -2.68301e-06 -3.33363e-20 -1.79258e-36)
(6.38153e-06 -1.20874e-07 3.53572e-21 -2.73556e-06 -3.79877e-20 8.87096e-35)
(6.4899e-06 -1.03177e-07 -2.39551e-21 -2.78134e-06 -4.21839e-20 -3.11792e-35)
(6.58266e-06 -8.6284e-08 3.6874e-21 -2.82066e-06 -4.15345e-20 9.77893e-35)
(6.66028e-06 -6.99458e-08 -6.34485e-21 -2.85372e-06 -5.10744e-20 2.02748e-36)
(6.72297e-06 -5.3956e-08 -3.73475e-22 -2.88062e-06 -4.4188e-20 -3.54527e-35)
(6.77108e-06 -3.82946e-08 -6.25887e-22 -2.90148e-06 -4.6631e-20 8.55399e-45)
(6.80446e-06 -2.31875e-08 -2.42975e-21 -2.91623e-06 -4.94428e-20 3.91048e-37)
(6.82438e-06 -9.49043e-09 1.46061e-21 -2.9251e-06 -4.53629e-20 -2.82809e-37)
(6.83073e-06 9.95111e-10 6.0261e-22 -2.92779e-06 -5.04665e-20 1.11773e-34)
(6.82849e-06 3.45266e-09 -1.07682e-19 -2.92382e-06 -5.58456e-20 2.53246e-34)
(4.63622e-06 -1.17929e-06 5.39414e-21 -2.04958e-06 6.63629e-21 0)
(4.88706e-06 -1.06145e-06 3.50035e-21 -2.15565e-06 9.58065e-22 0)
(5.12692e-06 -9.57661e-07 2.64781e-22 -2.25336e-06 -1.51716e-21 0)
(5.34207e-06 -8.60815e-07 7.94486e-21 -2.34302e-06 7.16612e-21 0)
(5.54018e-06 -7.70069e-07 -1.52828e-21 -2.42303e-06 -3.60268e-22 0)
(5.71901e-06 -6.88061e-07 -6.47684e-21 -2.49648e-06 -6.57019e-21 0)
(5.88187e-06 -6.1215e-07 3.30649e-21 -2.56239e-06 1.2218e-21 0)
(6.02848e-06 -5.43206e-07 0 -2.6223e-06 0 0)
(6.1608e-06 -4.79593e-07 1.57573e-21 -2.67618e-06 5.57144e-22 0)
(6.27918e-06 -4.21065e-07 3.23958e-21 -2.72474e-06 1.24663e-21 0)
(6.38481e-06 -3.66503e-07 9.71355e-21 -2.76819e-06 5.0146e-21 0)
(6.47818e-06 -3.1528e-07 4.37749e-23 -2.8069e-06 5.01321e-23 0)
(6.55998e-06 -2.66551e-07 1.26451e-21 -2.84101e-06 -9.81651e-22 0)
(6.63065e-06 -2.19738e-07 1.8513e-21 -2.87064e-06 2.12152e-21 0)
(6.69048e-06 -1.7438e-07 1.89923e-21 -2.8957e-06 2.18207e-21 0)
(6.73981e-06 -1.30465e-07 -1.88139e-21 -2.91593e-06 -2.17256e-21 0)
(6.77835e-06 -8.85188e-08 -1.89201e-21 -2.93065e-06 -2.19713e-21 0)
(6.80655e-06 -5.037e-08 -3.79958e-21 -2.93865e-06 -4.4381e-21 0)
(6.8222e-06 -1.87751e-08 -2.87546e-23 -2.93716e-06 -3.152e-23 0)
(6.82603e-06 -2.01698e-09 -9.96341e-20 -2.92168e-06 1.8863e-21 -2.18748e-34)
(5.23217e-06 -1.70605e-06 1.47561e-21 -2.43827e-06 2.02059e-21 0)
(5.38989e-06 -1.54554e-06 2.0147e-21 -2.50125e-06 7.18506e-22 0)
(5.55327e-06 -1.40156e-06 -4.67709e-21 -2.55411e-06 -5.89769e-21 0)
(5.69645e-06 -1.26789e-06 -4.2121e-22 -2.60427e-06 1.07734e-21 0)
(5.83368e-06 -1.14054e-06 8.53602e-21 -2.64705e-06 7.11146e-21 0)
(5.95804e-06 -1.02494e-06 -6.77934e-21 -2.68802e-06 -6.4789e-21 0)
(6.07457e-06 -9.1678e-07 -1.80412e-21 -2.72492e-06 -2.09267e-21 0)
(6.18086e-06 -8.17958e-07 3.44809e-21 -2.75975e-06 3.92803e-21 0)
(6.27909e-06 -7.26209e-07 2.01984e-23 -2.79201e-06 -2.55134e-21 0)
(6.36857e-06 -6.41502e-07 -3.64842e-21 -2.82233e-06 -4.10924e-21 0)
(6.45034e-06 -5.62445e-07 3.49599e-21 -2.85066e-06 3.92346e-21 0)
(6.52437e-06 -4.88358e-07 5.40203e-21 -2.8772e-06 6.06605e-21 0)
(6.59118e-06 -4.18225e-07 4.1335e-23 -2.90188e-06 4.56318e-23 0)
(6.65092e-06 -3.51343e-07 -1.84961e-21 -2.92456e-06 -2.08899e-21 0)
(6.70366e-06 -2.87089e-07 1.83095e-21 -2.94482e-06 2.08044e-21 0)
(6.74944e-06 -2.25232e-07 2.69918e-28 -2.96181e-06 3.0109e-28 0)
(6.78728e-06 -1.6592e-07 -1.88635e-21 -2.9739e-06 -2.17038e-21 0)
(6.81672e-06 -1.10095e-07 2.52758e-22 -2.97844e-06 1.56844e-21 0)
(6.83292e-06 -5.94768e-08 -6.2162e-21 -2.96985e-06 -7.95263e-22 0)
(6.83556e-06 -1.63513e-08 -9.85465e-20 -2.94194e-06 -1.39994e-21 -1.62699e-37)
(5.91568e-06 -2.07771e-06 0 -2.8624e-06 0 0)
(5.97689e-06 -1.89391e-06 2.15381e-21 -2.88574e-06 7.84336e-22 0)
(6.06278e-06 -1.72441e-06 1.68457e-21 -2.89615e-06 1.92787e-21 0)
(6.13079e-06 -1.56979e-06 1.84867e-21 -2.90934e-06 2.14359e-21 0)
(6.20402e-06 -1.41929e-06 0 -2.9157e-06 0 0)
(6.26971e-06 -1.28267e-06 2.52029e-22 -2.92431e-06 -1.08264e-21 0)
(6.33585e-06 -1.15326e-06 -5.53701e-21 -2.93157e-06 -3.40085e-21 0)
(6.39741e-06 -1.03445e-06 -3.53077e-21 -2.94018e-06 -3.84301e-21 0)
(6.45731e-06 -9.23392e-07 -1.9872e-21 -2.94932e-06 -9.16746e-22 0)
(6.51366e-06 -8.2047e-07 -1.61914e-23 -2.9596e-06 2.45898e-21 0)
(6.56745e-06 -7.24169e-07 -1.75078e-21 -2.97081e-06 5.41388e-22 0)
(6.61805e-06 -6.33878e-07 3.65715e-21 -2.98296e-06 1.56722e-21 0)
(6.66571e-06 -5.4852e-07 3.47467e-21 -2.99581e-06 1.70062e-22 0)
(6.71019e-06 -4.67309e-07 8.1798e-23 -3.00896e-06 1.31477e-21 0)
(6.75118e-06 -3.89455e-07 1.46962e-22 -3.02166e-06 1.39378e-21 0)
(6.78832e-06 -3.14367e-07 -1.86514e-21 -3.03269e-06 -2.1023e-21 0)
(6.81995e-06 -2.41662e-07 -3.98348e-28 -3.03986e-06 -4.49236e-28 0)
(6.84521e-06 -1.70869e-07 3.97442e-21 -3.04002e-06 5.84512e-21 0)
(6.85795e-06 -1.02603e-07 -1.99373e-22 -3.02692e-06 -1.53781e-21 0)
(6.85842e-06 -3.19274e-08 -1.07194e-19 -2.99422e-06 -9.72554e-21 3.13452e-34)
(6.65697e-06 -2.27018e-06 1.618e-22 -3.33623e-06 2.69253e-21 0)
(6.61812e-06 -2.08565e-06 -2.34015e-21 -3.31901e-06 -1.02245e-21 0)
(6.62612e-06 -1.90568e-06 -5.88238e-21 -3.28344e-06 -4.79778e-21 0)
(6.61697e-06 -1.74719e-06 3.8735e-21 -3.25811e-06 2.6381e-21 0)
(6.62513e-06 -1.58797e-06 1.00807e-20 -3.2258e-06 6.62455e-21 0)
(6.62992e-06 -1.44405e-06 -1.8506e-21 -3.19954e-06 -1.9375e-21 0)
(6.64348e-06 -1.30564e-06 0 -3.17454e-06 0 0)
(6.65763e-06 -1.17788e-06 1.80218e-21 -3.15402e-06 1.87863e-21 0)
(6.67636e-06 -1.05747e-06 -5.80712e-21 -3.13716e-06 -2.47955e-21 0)
(6.69655e-06 -9.45279e-07 -3.76488e-21 -3.12448e-06 -2.77664e-21 0)
(6.7192e-06 -8.39872e-07 2.15636e-22 -3.11577e-06 -2.1453e-21 0)
(6.74309e-06 -7.40784e-07 -1.8934e-21 -3.11087e-06 -3.21226e-21 0)
(6.76821e-06 -6.4699e-07 -2.00777e-22 -3.10943e-06 3.37537e-21 0)
(6.79393e-06 -5.57631e-07 3.70328e-21 -3.11086e-06 5.23405e-21 0)
(6.81961e-06 -4.7175e-07 1.80715e-21 -3.11421e-06 7.69563e-22 0)
(6.84454e-06 -3.88285e-07 -6.52346e-23 -3.11807e-06 -1.30574e-21 0)
(6.86671e-06 -3.06277e-07 3.50319e-21 -3.12005e-06 1.439e-21 0)
(6.88506e-06 -2.23694e-07 1.72305e-21 -3.11701e-06 6.90571e-22 0)
(6.89332e-06 -1.40474e-07 7.06575e-21 -3.10306e-06 5.583e-21 0)
(6.89215e-06 -4.56358e-08 -9.39001e-20 -3.07238e-06 3.76834e-21 -3.07605e-34)
(7.42383e-06 -2.29341e-06 1.37792e-21 -3.80643e-06 1.89664e-21 0)
(7.28404e-06 -2.13192e-06 3.31302e-23 -3.75469e-06 7.28449e-23 0)
(7.21659e-06 -1.95592e-06 -4.25343e-21 -3.67584e-06 -2.94972e-21 0)
(7.13041e-06 -1.80916e-06 -1.02137e-20 -3.61505e-06 -7.64988e-21 0)
(7.07472e-06 -1.65417e-06 3.99075e-21 -3.547e-06 2.72041e-21 0)
(7.01869e-06 -1.51463e-06 3.75393e-21 -3.48762e-06 3.7327e-21 0)
(6.97953e-06 -1.37793e-06 -1.83922e-21 -3.43197e-06 -1.83165e-21 0)
(6.94562e-06 -1.25072e-06 -2.97702e-22 -3.38306e-06 8.21818e-22 0)
(6.92201e-06 -1.12971e-06 8.07628e-21 -3.34044e-06 4.81126e-21 0)
(6.9045e-06 -1.01605e-06 -5.3932e-21 -3.30445e-06 -5.51193e-21 0)
(6.89405e-06 -9.08642e-07 -1.91836e-21 -3.27501e-06 -1.98517e-21 0)
(6.889e-06 -8.07131e-07 5.2094e-21 -3.25192e-06 7.74044e-21 0)
(6.88909e-06 -7.10656e-07 -7.6322e-21 -3.23483e-06 -2.26819e-21 0)
(6.8934e-06 -6.18333e-07 -5.42955e-21 -3.22316e-06 -5.8108e-21 0)
(6.9011e-06 -5.29114e-07 1.62168e-23 -3.216e-06 -1.17444e-21 0)
(6.91124e-06 -4.41531e-07 -7.32177e-21 -3.21201e-06 -5.60505e-21 0)
(6.92186e-06 -3.54181e-07 -5.32771e-23 -3.20906e-06 -5.0145e-23 0)
(6.93182e-06 -2.63688e-07 7.19316e-21 -3.20447e-06 6.88331e-21 0)
(6.93591e-06 -1.69609e-07 1.10179e-22 -3.19352e-06 1.42165e-21 0)
(6.93439e-06 -5.63227e-08 -9.39016e-20 -3.17127e-06 -1.1471e-21 2.20147e-36)
(8.17904e-06 -2.14737e-06 -1.44376e-21 -4.24876e-06 -1.85572e-21 0)
(7.94279e-06 -2.03465e-06 1.99651e-21 -4.172e-06 1.82479e-21 0)
(7.80721e-06 -1.87763e-06 2.46664e-21 -4.05725e-06 1.28843e-21 0)
(7.6477e-06 -1.75743e-06 -1.9478e-21 -3.96528e-06 -1.82896e-21 0)
(7.53194e-06 -1.62052e-06 -4.61898e-21 -3.86649e-06 -2.3065e-21 0)
(7.41759e-06 -1.49648e-06 2.255e-21 -3.77608e-06 1.121e-21 0)
(7.32695e-06 -1.372e-06 6.38014e-21 -3.69144e-06 4.10622e-21 0)
(7.24589e-06 -1.25393e-06 -1.02644e-20 -3.61478e-06 -6.89404e-21 0)
(7.18001e-06 -1.14009e-06 -6.33163e-21 -3.54668e-06 -4.17177e-21 0)
(7.12463e-06 -1.03175e-06 9.93744e-21 -3.48735e-06 6.73141e-21 0)
(7.08043e-06 -9.28464e-07 -4.055e-21 -3.43699e-06 -1.93784e-21 0)
(7.04552e-06 -8.30084e-07 5.36531e-21 -3.39538e-06 5.50446e-21 0)
(7.01938e-06 -7.36036e-07 5.78282e-21 -3.36228e-06 3.76793e-21 0)
(7.00089e-06 -6.45481e-07 -3.36881e-21 -3.33718e-06 -4.70252e-21 0)
(6.98914e-06 -5.57362e-07 -2.20944e-21 -3.31933e-06 1.14531e-21 0)
(6.98307e-06 -4.69919e-07 1.04301e-22 -3.30766e-06 9.63179e-23 0)
(6.9811e-06 -3.81449e-07 -8.92033e-21 -3.30058e-06 -7.42794e-21 0)
(6.98196e-06 -2.87589e-07 1.77004e-21 -3.29612e-06 1.9917e-21 0)
(6.98239e-06 -1.87726e-07 3.51195e-21 -3.2912e-06 2.74866e-21 0)
(6.98153e-06 -6.31996e-08 -9.49235e-20 -3.28205e-06 -1.8518e-21 8.90173e-37)
(8.88321e-06 -1.84285e-06 1.71925e-23 -4.62449e-06 5.91309e-23 0)
(8.56175e-06 -1.80397e-06 -2.06409e-21 -4.53506e-06 -1.81778e-21 0)
(8.36959e-06 -1.6822e-06 4.4529e-22 -4.39956e-06 -4.82138e-22 0)
(8.14477e-06 -1.59849e-06 0 -4.28193e-06 0 0)
(7.97502e-06 -1.49202e-06 0 -4.16196e-06 0 0)
(7.8091e-06 -1.39218e-06 -6.18314e-21 -4.04757e-06 -4.84499e-21 0)
(7.67099e-06 -1.2895e-06 5.49903e-21 -3.94029e-06 5.13474e-21 0)
(7.54645e-06 -1.18896e-06 1.15956e-20 -3.84061e-06 1.01236e-20 0)
(7.44023e-06 -1.09017e-06 -8.76917e-21 -3.75016e-06 -8.43398e-21 0)
(7.34822e-06 -9.94101e-07 -7.68408e-21 -3.66933e-06 -6.54963e-21 0)
(7.27063e-06 -9.01088e-07 3.54229e-21 -3.59877e-06 3.52806e-21 0)
(7.20573e-06 -8.11229e-07 -3.49346e-22 -3.53867e-06 6.99877e-22 0)
(7.15283e-06 -7.24353e-07 6.0703e-21 -3.48911e-06 2.99765e-21 0)
(7.1108e-06 -6.3983e-07 9.4505e-21 -3.44992e-06 6.53819e-21 0)
(7.07876e-06 -5.56748e-07 1.2892e-22 -3.42076e-06 1.17923e-22 0)
(7.05566e-06 -4.73285e-07 4.31132e-21 -3.40107e-06 -1.18053e-21 0)
(7.04054e-06 -3.87639e-07 0 -3.39004e-06 0 0)
(7.03205e-06 -2.94905e-07 -3.62266e-21 -3.38662e-06 -1.59769e-21 0)
(7.0294e-06 -1.94453e-07 1.74299e-21 -3.38962e-06 7.36408e-22 0)
(7.0301e-06 -6.60835e-08 -9.086e-20 -3.39676e-06 -4.01438e-22 2.33162e-36)
(9.50639e-06 -1.40928e-06 -1.34159e-23 -4.90642e-06 -5.17124e-23 0)
(9.11187e-06 -1.45777e-06 2.56438e-21 -4.81311e-06 1.5324e-21 0)
(8.88018e-06 -1.39634e-06 -2.55055e-21 -4.68813e-06 -1.55332e-21 0)
(8.60494e-06 -1.35627e-06 -2.51041e-21 -4.55474e-06 -1.51287e-21 0)
(8.38646e-06 -1.29297e-06 6.89069e-21 -4.42124e-06 4.70198e-21 0)
(8.17657e-06 -1.22329e-06 4.91038e-21 -4.28721e-06 2.93123e-21 0)
(7.99509e-06 -1.1474e-06 -6.5206e-21 -4.16001e-06 -4.36536e-21 0)
(7.83166e-06 -1.06815e-06 8.71375e-22 -4.04042e-06 -9.19117e-22 0)
(7.68868e-06 -9.87755e-07 1.47924e-21 -3.93057e-06 1.3737e-21 0)
(7.56316e-06 -9.07403e-07 -8.08845e-22 -3.83133e-06 1.08372e-21 0)
(7.45458e-06 -8.2813e-07 -6.62335e-21 -3.74344e-06 -3.63016e-21 0)
(7.36147e-06 -7.50377e-07 5.92021e-23 -3.66738e-06 5.71891e-23 0)
(7.283e-06 -6.74279e-07 -3.02275e-21 -3.60347e-06 -4.12484e-21 0)
(7.2181e-06 -5.99437e-07 -1.0225e-22 -3.55189e-06 -9.36364e-23 0)
(7.16612e-06 -5.25097e-07 3.86961e-21 -3.51278e-06 1.88242e-21 0)
(7.12606e-06 -4.49517e-07 -7.71057e-23 -3.48613e-06 -6.74449e-23 0)
(7.09782e-06 -3.70927e-07 4.70745e-21 -3.47209e-06 6.32832e-21 0)
(7.07993e-06 -2.8431e-07 -1.78175e-21 -3.47063e-06 -7.96129e-22 0)
(7.07449e-06 -1.89017e-07 -8.33654e-21 -3.48266e-06 -8.26039e-21 0)
(7.077e-06 -6.47358e-08 -1.00295e-19 -3.50755e-06 -6.87728e-21 1.73783e-34)
(1.00031e-05 -8.52803e-07 -3.27215e-22 -5.09038e-06 -1.64835e-22 0)
(9.59402e-06 -9.59489e-07 -2.75016e-21 -4.97603e-06 -1.62056e-21 0)
(9.32916e-06 -9.84292e-07 2.23098e-21 -4.88961e-06 1.75291e-21 0)
(9.03449e-06 -9.94085e-07 -5.83629e-21 -4.76804e-06 -5.32196e-21 0)
(8.77648e-06 -9.88876e-07 -6.00679e-21 -4.64161e-06 -4.99868e-21 0)
(8.53258e-06 -9.662e-07 3.55131e-21 -4.50628e-06 3.67468e-21 0)
(8.31204e-06 -9.3137e-07 3.08523e-21 -4.37003e-06 3.68832e-21 0)
(8.11189e-06 -8.86385e-07 5.38349e-21 -4.23703e-06 4.85854e-21 0)
(7.93316e-06 -8.34379e-07 -6.32018e-21 -4.11073e-06 -4.72132e-21 0)
(7.77439e-06 -7.77679e-07 1.51308e-23 -3.99377e-06 1.29681e-22 0)
(7.63496e-06 -7.18164e-07 -7.55256e-23 -3.8879e-06 -3.86627e-22 0)
(7.51362e-06 -6.57172e-07 -4.93921e-21 -3.79448e-06 -4.83546e-21 0)
(7.40954e-06 -5.95506e-07 0 -3.71447e-06 0 0)
(7.32166e-06 -5.33355e-07 -4.4849e-21 -3.64866e-06 -1.45407e-21 0)
(7.24952e-06 -4.70412e-07 -2.07087e-23 -3.59778e-06 -8.93143e-23 0)
(7.19217e-06 -4.05324e-07 -5.78725e-21 -3.56254e-06 -2.81463e-21 0)
(7.15041e-06 -3.36588e-07 1.58252e-21 -3.54413e-06 1.67226e-21 0)
(7.12272e-06 -2.5956e-07 3.65022e-21 -3.54366e-06 1.668e-21 0)
(7.11426e-06 -1.73662e-07 4.54519e-23 -3.56429e-06 -3.74554e-24 0)
(7.11881e-06 -5.9796e-08 -9.80146e-20 -3.60723e-06 -3.04836e-21 7.27302e-37)
(1.02469e-05 -3.9349e-07 2.82572e-21 -5.10686e-06 2.48861e-21 0)
(9.87408e-06 -4.50157e-07 -2.6174e-21 -5.01064e-06 -1.6449e-21 0)
(9.58742e-06 -5.55618e-07 -1.51492e-21 -4.94983e-06 -1.25851e-21 0)
(9.29483e-06 -6.05391e-07 2.5151e-21 -4.85107e-06 1.53693e-21 0)
(9.02378e-06 -6.40444e-07 -4.97471e-21 -4.73541e-06 -2.25792e-21 0)
(8.76656e-06 -6.56118e-07 -3.35453e-21 -4.60862e-06 -1.58275e-21 0)
(8.52931e-06 -6.56528e-07 -4.17751e-21 -4.47595e-06 -3.03251e-21 0)
(8.31053e-06 -6.4434e-07 5.06269e-22 -4.34303e-06 -3.50685e-22 0)
(8.11204e-06 -6.21964e-07 8.44756e-21 -4.21383e-06 5.3841e-21 0)
(7.93304e-06 -5.91934e-07 -2.90069e-22 -4.09174e-06 -3.12516e-22 0)
(7.77357e-06 -5.56211e-07 4.51631e-21 -3.97925e-06 2.55661e-21 0)
(7.63282e-06 -5.16449e-07 -2.22378e-22 -3.87838e-06 -2.52477e-22 0)
(7.51034e-06 -4.7378e-07 1.64778e-35 -3.79071e-06 1.67614e-35 0)
(7.40538e-06 -4.28792e-07 -1.98597e-21 -3.71763e-06 -9.88537e-22 0)
(7.31788e-06 -3.81573e-07 1.94146e-21 -3.66056e-06 9.44349e-22 0)
(7.24713e-06 -3.31303e-07 -8.69013e-23 -3.6209e-06 -1.25908e-22 0)
(7.19477e-06 -2.76918e-07 3.11897e-22 -3.60087e-06 -8.19554e-22 0)
(7.15925e-06 -2.14807e-07 1.74306e-23 -3.60252e-06 5.84556e-23 0)
(7.14814e-06 -1.4457e-07 -1.80503e-23 -3.63093e-06 2.33131e-23 0)
(7.15371e-06 -4.99709e-08 -9.43143e-20 -3.68907e-06 -5.115e-22 -8.39414e-37)
(1.00448e-05 5.80738e-08 2.62583e-21 -4.92161e-06 2.07732e-21 0)
(9.79596e-06 -7.40363e-09 0 -4.94833e-06 0 0)
(9.53636e-06 -1.36358e-07 -2.04725e-21 -4.90138e-06 -1.80573e-21 0)
(9.27689e-06 -2.20853e-07 2.67724e-35 -4.82633e-06 2.16879e-35 0)
(9.02939e-06 -2.87404e-07 6.13851e-36 -4.72728e-06 4.45339e-36 0)
(8.79041e-06 -3.3457e-07 2.91093e-35 -4.6143e-06 2.16525e-35 0)
(8.5661e-06 -3.65054e-07 4.46375e-35 -4.49267e-06 3.60917e-35 0)
(8.35564e-06 -3.81581e-07 -1.79377e-21 -4.36813e-06 -1.68342e-21 0)
(8.16161e-06 -3.86315e-07 0 -4.24494e-06 0 0)
(7.9839e-06 -3.81656e-07 1.71397e-21 -4.12678e-06 1.66342e-21 0)
(7.82329e-06 -3.69503e-07 -2.44684e-36 -4.01654e-06 -4.1297e-36 0)
(7.67959e-06 -3.51544e-07 -1.64864e-21 -3.91663e-06 -1.65686e-21 0)
(7.55298e-06 -3.29004e-07 1.62146e-21 -3.82905e-06 1.65781e-21 0)
(7.44319e-06 -3.02704e-07 2.33148e-35 -3.75563e-06 1.69849e-35 0)
(7.3507e-06 -2.72961e-07 -1.57803e-21 -3.69828e-06 -1.66726e-21 0)
(7.27524e-06 -2.39513e-07 -1.39972e-35 -3.65893e-06 -1.29552e-35 0)
(7.21917e-06 -2.01616e-07 1.5498e-21 -3.64047e-06 1.68705e-21 0)
(7.18117e-06 -1.57009e-07 1.54164e-21 -3.64562e-06 1.7018e-21 0)
(7.17065e-06 -1.05755e-07 -1.66562e-35 -3.68097e-06 -1.45369e-35 0)
(7.17884e-06 -3.6515e-08 -9.39352e-20 -3.74997e-06 -1.47612e-35 5.54132e-49)