/*--------------------------------*- C++ -*----------------------------------*\
  =========                 |
  \\      /  F ield         | OpenFOAM: The Open Source CFD Toolbox
   \\    /   O peration     | Website:  https://openfoam.org
    \\  /    A nd           | Version:  9
     \\/     M anipulation  |
\*---------------------------------------------------------------------------*/
FoamFile
{
    format      ascii;
    class       pointVectorField;
    location    "15";
    object      pointD;
}
// * * * * * * * * * * * * * * * * * * * * * * * * * * * * * * * * * * * * * //

dimensions      [0 1 0 0 0 0 0];

internalField   nonuniform List<vector> 
2142
(
(1.11365e-05 3.27258e-06 -9.69341e-20)
(1.03244e-05 3.78533e-06 0)
(9.7556e-06 4.15184e-06 0)
(9.34096e-06 4.45018e-06 0)
(9.04217e-06 4.69453e-06 0)
(8.82993e-06 4.90505e-06 0)
(8.68318e-06 5.09017e-06 0)
(8.58715e-06 5.25753e-06 0)
(8.53032e-06 5.41164e-06 0)
(8.50433e-06 5.55561e-06 0)
(8.50862e-06 5.71193e-06 0)
(1.0181e-05 3.00216e-06 -1.06845e-19)
(9.3185e-06 3.40782e-06 0)
(8.72077e-06 3.6925e-06 0)
(8.28752e-06 3.92685e-06 0)
(7.9761e-06 4.11812e-06 0)
(7.75458e-06 4.28372e-06 0)
(7.60005e-06 4.42943e-06 0)
(7.49681e-06 4.56171e-06 0)
(7.43235e-06 4.68357e-06 0)
(7.39802e-06 4.79873e-06 0)
(7.24963e-06 4.80428e-06 0)
(9.18913e-06 2.73229e-06 -1.08266e-19)
(8.29681e-06 3.02154e-06 0)
(7.68625e-06 3.21849e-06 0)
(7.24602e-06 3.38599e-06 0)
(6.93078e-06 3.52346e-06 0)
(6.70678e-06 3.64452e-06 0)
(6.54977e-06 3.75191e-06 0)
(6.44335e-06 3.85041e-06 0)
(6.37461e-06 3.94135e-06 0)
(6.33421e-06 4.02829e-06 0)
(6.20118e-06 4.01911e-06 0)
(8.15933e-06 2.46869e-06 -1.08712e-19)
(7.26543e-06 2.63338e-06 0)
(6.65968e-06 2.74042e-06 0)
(6.22514e-06 2.84044e-06 0)
(5.91571e-06 2.92532e-06 0)
(5.69665e-06 3.00382e-06 0)
(5.54305e-06 3.07556e-06 0)
(5.4382e-06 3.14316e-06 0)
(5.36918e-06 3.20632e-06 0)
(5.3265e-06 3.26771e-06 0)
(5.21156e-06 3.24858e-06 0)
(7.09373e-06 2.21975e-06 -1.1324e-19)
(6.23046e-06 2.25188e-06 0)
(5.64676e-06 2.27038e-06 0)
(5.23112e-06 2.3042e-06 0)
(4.93774e-06 2.33947e-06 0)
(4.73151e-06 2.37889e-06 0)
(4.58753e-06 2.41882e-06 0)
(4.48914e-06 2.45942e-06 0)
(4.42385e-06 2.49872e-06 0)
(4.38227e-06 2.53815e-06 0)
(4.28631e-06 2.51351e-06 0)
(6.00598e-06 1.98017e-06 -1.08771e-19)
(5.19515e-06 1.88356e-06 0)
(4.6506e-06 1.81784e-06 0)
(4.26769e-06 1.79041e-06 0)
(4.00129e-06 1.78146e-06 0)
(3.81616e-06 1.78738e-06 0)
(3.68811e-06 1.80097e-06 0)
(3.60092e-06 1.81976e-06 0)
(3.54296e-06 1.84012e-06 0)
(3.50536e-06 1.8621e-06 0)
(3.42834e-06 1.83626e-06 0)
(4.89247e-06 1.7396e-06 -8.22328e-20)
(4.1584e-06 1.53105e-06 0)
(3.67083e-06 1.38927e-06 0)
(3.33618e-06 1.31057e-06 0)
(3.10829e-06 1.26626e-06 0)
(2.95277e-06 1.24691e-06 0)
(2.84664e-06 1.24139e-06 0)
(2.77495e-06 1.24477e-06 0)
(2.72738e-06 1.25194e-06 0)
(2.69604e-06 1.26169e-06 0)
(2.63721e-06 1.23867e-06 0)
(3.76895e-06 1.49244e-06 -4.89247e-20)
(3.12421e-06 1.19072e-06 0)
(2.7093e-06 9.89491e-07 0)
(2.43927e-06 8.75584e-07 0)
(2.26104e-06 8.09498e-07 0)
(2.14266e-06 7.75964e-07 0)
(2.06326e-06 7.60284e-07 0)
(2.01016e-06 7.55525e-07 0)
(1.97498e-06 7.55694e-07 0)
(1.9514e-06 7.5864e-07 0)
(1.90947e-06 7.41687e-07 0)
(2.62578e-06 1.23282e-06 -1.01518e-20)
(2.08449e-06 8.50814e-07 0)
(1.76685e-06 6.19966e-07 0)
(1.57828e-06 4.95829e-07 0)
(1.45944e-06 4.27735e-07 0)
(1.38357e-06 3.93784e-07 0)
(1.33358e-06 3.7772e-07 0)
(1.30045e-06 3.7189e-07 0)
(1.27837e-06 3.70529e-07 0)
(1.26314e-06 3.71314e-07 0)
(1.23644e-06 3.62112e-07 0)
(1.52697e-06 9.25854e-07 3.04082e-20)
(1.04122e-06 4.98102e-07 0)
(8.56947e-07 2.9525e-07 0)
(7.64195e-07 1.98148e-07 0)
(7.09026e-07 1.51715e-07 0)
(6.7494e-07 1.30648e-07 0)
(6.5258e-07 1.21933e-07 0)
(6.37683e-07 1.19511e-07 0)
(6.27529e-07 1.19569e-07 0)
(6.20171e-07 1.20562e-07 0)
(6.07031e-07 1.17962e-07 0)
(5.07852e-07 3.76238e-07 2.37079e-20)
(0 0 0)
(0 0 0)
(0 0 0)
(0 0 0)
(0 0 0)
(0 0 0)
(0 0 0)
(0 0 0)
(0 0 0)
(0 0 0)
(1.11365e-05 3.27258e-06 -9.69341e-20)
(1.03244e-05 3.78533e-06 0)
(9.7556e-06 4.15184e-06 0)
(9.34096e-06 4.45018e-06 0)
(9.04217e-06 4.69453e-06 0)
(8.82993e-06 4.90505e-06 0)
(8.68318e-06 5.09017e-06 0)
(8.58715e-06 5.25753e-06 0)
(8.53032e-06 5.41164e-06 0)
(8.50433e-06 5.55561e-06 0)
(8.50862e-06 5.71193e-06 0)
(1.0181e-05 3.00216e-06 -1.06845e-19)
(9.3185e-06 3.40782e-06 0)
(8.72077e-06 3.6925e-06 0)
(8.28752e-06 3.92685e-06 0)
(7.9761e-06 4.11812e-06 0)
(7.75458e-06 4.28372e-06 0)
(7.60005e-06 4.42943e-06 0)
(7.49681e-06 4.56171e-06 0)
(7.43235e-06 4.68357e-06 0)
(7.39802e-06 4.79873e-06 0)
(7.24963e-06 4.80428e-06 0)
(9.18913e-06 2.73229e-06 -1.08266e-19)
(8.29681e-06 3.02154e-06 0)
(7.68625e-06 3.21849e-06 0)
(7.24602e-06 3.38599e-06 0)
(6.93078e-06 3.52346e-06 0)
(6.70678e-06 3.64452e-06 0)
(6.54977e-06 3.75191e-06 0)
(6.44335e-06 3.85041e-06 0)
(6.37461e-06 3.94135e-06 0)
(6.33421e-06 4.02829e-06 0)
(6.20118e-06 4.01911e-06 0)
(8.15933e-06 2.46869e-06 -1.08712e-19)
(7.26543e-06 2.63338e-06 0)
(6.65968e-06 2.74042e-06 0)
(6.22514e-06 2.84044e-06 0)
(5.91571e-06 2.92532e-06 0)
(5.69665e-06 3.00382e-06 0)
(5.54305e-06 3.07556e-06 0)
(5.4382e-06 3.14316e-06 0)
(5.36918e-06 3.20632e-06 0)
(5.3265e-06 3.26771e-06 0)
(5.21156e-06 3.24858e-06 0)
(7.09373e-06 2.21975e-06 -1.1324e-19)
(6.23046e-06 2.25188e-06 0)
(5.64676e-06 2.27038e-06 0)
(5.23112e-06 2.3042e-06 0)
(4.93774e-06 2.33947e-06 0)
(4.73151e-06 2.37889e-06 0)
(4.58753e-06 2.41882e-06 0)
(4.48914e-06 2.45942e-06 0)
(4.42385e-06 2.49872e-06 0)
(4.38227e-06 2.53815e-06 0)
(4.28631e-06 2.51351e-06 0)
(6.00598e-06 1.98017e-06 -1.08771e-19)
(5.19515e-06 1.88356e-06 0)
(4.6506e-06 1.81784e-06 0)
(4.26769e-06 1.79041e-06 0)
(4.00129e-06 1.78146e-06 0)
(3.81616e-06 1.78738e-06 0)
(3.68811e-06 1.80097e-06 0)
(3.60092e-06 1.81976e-06 0)
(3.54296e-06 1.84012e-06 0)
(3.50536e-06 1.8621e-06 0)
(3.42834e-06 1.83626e-06 0)
(4.89247e-06 1.7396e-06 -8.22328e-20)
(4.1584e-06 1.53105e-06 0)
(3.67083e-06 1.38927e-06 0)
(3.33618e-06 1.31057e-06 0)
(3.10829e-06 1.26626e-06 0)
(2.95277e-06 1.24691e-06 0)
(2.84664e-06 1.24139e-06 0)
(2.77495e-06 1.24477e-06 0)
(2.72738e-06 1.25194e-06 0)
(2.69604e-06 1.26169e-06 0)
(2.63721e-06 1.23867e-06 0)
(3.76895e-06 1.49244e-06 -4.89247e-20)
(3.12421e-06 1.19072e-06 0)
(2.7093e-06 9.89491e-07 0)
(2.43927e-06 8.75584e-07 0)
(2.26104e-06 8.09498e-07 0)
(2.14266e-06 7.75964e-07 0)
(2.06326e-06 7.60284e-07 0)
(2.01016e-06 7.55525e-07 0)
(1.97498e-06 7.55694e-07 0)
(1.9514e-06 7.5864e-07 0)
(1.90947e-06 7.41687e-07 0)
(2.62578e-06 1.23282e-06 -1.01518e-20)
(2.08449e-06 8.50814e-07 0)
(1.76685e-06 6.19966e-07 0)
(1.57828e-06 4.95829e-07 0)
(1.45944e-06 4.27735e-07 0)
(1.38357e-06 3.93784e-07 0)
(1.33358e-06 3.7772e-07 0)
(1.30045e-06 3.7189e-07 0)
(1.27837e-06 3.70529e-07 0)
(1.26314e-06 3.71314e-07 0)
(1.23644e-06 3.62112e-07 0)
(1.52697e-06 9.25854e-07 3.04082e-20)
(1.04122e-06 4.98102e-07 0)
(8.56947e-07 2.9525e-07 0)
(7.64195e-07 1.98148e-07 0)
(7.09026e-07 1.51715e-07 0)
(6.7494e-07 1.30648e-07 0)
(6.5258e-07 1.21933e-07 0)
(6.37683e-07 1.19511e-07 0)
(6.27529e-07 1.19569e-07 0)
(6.20171e-07 1.20562e-07 0)
(6.07031e-07 1.17962e-07 0)
(5.07852e-07 3.76238e-07 2.37079e-20)
(0 0 0)
(0 0 0)
(0 0 0)
(0 0 0)
(0 0 0)
(0 0 0)
(0 0 0)
(0 0 0)
(0 0 0)
(0 0 0)
(1.8065e-05 5.36347e-06 -2.60561e-21)
(1.81939e-05 5.88177e-06 -1.44417e-21)
(1.81781e-05 6.54816e-06 -1.57375e-21)
(1.81676e-05 7.1664e-06 -1.69204e-21)
(1.81785e-05 7.73547e-06 -1.79721e-21)
(1.82169e-05 8.26116e-06 -1.89197e-21)
(1.82849e-05 8.75028e-06 -1.97871e-21)
(1.83823e-05 9.20976e-06 -2.05958e-21)
(1.8508e-05 9.64532e-06 -2.07668e-21)
(1.86591e-05 1.00624e-05 -1.5295e-21)
(1.88342e-05 1.04633e-05 -4.79472e-22)
(1.76633e-05 5.16255e-06 -3.89774e-21)
(1.76082e-05 5.85834e-06 0)
(1.75623e-05 6.52048e-06 0)
(1.75378e-05 7.12959e-06 0)
(1.75409e-05 7.68591e-06 0)
(1.75737e-05 8.19627e-06 0)
(1.76358e-05 8.66821e-06 0)
(1.77258e-05 9.10922e-06 0)
(1.7842e-05 9.52548e-06 0)
(1.79816e-05 9.92284e-06 0)
(1.81533e-05 1.03061e-05 0)
(1.71166e-05 5.07736e-06 -4.02291e-21)
(1.70018e-05 5.78845e-06 0)
(1.69086e-05 6.44445e-06 0)
(1.68489e-05 7.04079e-06 0)
(1.6825e-05 7.58082e-06 0)
(1.68362e-05 8.07305e-06 0)
(1.68798e-05 8.52568e-06 0)
(1.69527e-05 8.94666e-06 0)
(1.70521e-05 9.34238e-06 0)
(1.71744e-05 9.71907e-06 0)
(1.73414e-05 1.00855e-05 0)
(1.65373e-05 4.93962e-06 -4.76093e-21)
(1.63503e-05 5.67394e-06 0)
(1.62007e-05 6.32147e-06 0)
(1.60963e-05 6.90033e-06 0)
(1.60366e-05 7.41886e-06 0)
(1.60182e-05 7.88831e-06 0)
(1.60363e-05 8.31778e-06 0)
(1.60864e-05 8.71562e-06 0)
(1.61645e-05 9.0884e-06 0)
(1.62658e-05 9.44247e-06 0)
(1.6428e-05 9.79263e-06 0)
(1.59149e-05 4.76202e-06 -7.48611e-21)
(1.56436e-05 5.51648e-06 0)
(1.54316e-05 6.15182e-06 0)
(1.52773e-05 6.7089e-06 0)
(1.51773e-05 7.20134e-06 0)
(1.51254e-05 7.64369e-06 0)
(1.51147e-05 8.04612e-06 0)
(1.5139e-05 8.41747e-06 0)
(1.51933e-05 8.76443e-06 0)
(1.52719e-05 9.09337e-06 0)
(1.54297e-05 9.42722e-06 0)
(1.52438e-05 4.55311e-06 -1.35545e-20)
(1.48784e-05 5.3168e-06 0)
(1.46e-05 5.93353e-06 0)
(1.43942e-05 6.46356e-06 0)
(1.42529e-05 6.9252e-06 0)
(1.41668e-05 7.33628e-06 0)
(1.41267e-05 7.70801e-06 0)
(1.41247e-05 8.04967e-06 0)
(1.4155e-05 8.36807e-06 0)
(1.42107e-05 8.66945e-06 0)
(1.43654e-05 8.9872e-06 0)
(1.45217e-05 4.32062e-06 -2.38723e-20)
(1.40566e-05 5.07678e-06 0)
(1.37106e-05 5.66605e-06 0)
(1.34537e-05 6.16309e-06 0)
(1.32724e-05 6.58945e-06 0)
(1.31534e-05 6.96566e-06 0)
(1.3085e-05 7.30364e-06 0)
(1.30581e-05 7.61297e-06 0)
(1.30655e-05 7.9005e-06 0)
(1.30994e-05 8.1722e-06 0)
(1.32527e-05 8.47419e-06 0)
(1.37483e-05 4.07088e-06 -3.86093e-20)
(1.3183e-05 4.79904e-06 0)
(1.2771e-05 5.35006e-06 0)
(1.24657e-05 5.80746e-06 0)
(1.22474e-05 6.19413e-06 0)
(1.20982e-05 6.53229e-06 0)
(1.20043e-05 6.83405e-06 0)
(1.19547e-05 7.10902e-06 0)
(1.19414e-05 7.36392e-06 0)
(1.19558e-05 7.60431e-06 0)
(1.21092e-05 7.8911e-06 0)
(1.29246e-05 3.80965e-06 -5.70876e-20)
(1.22645e-05 4.48759e-06 0)
(1.17912e-05 4.98862e-06 0)
(1.14423e-05 5.39946e-06 0)
(1.11912e-05 5.74226e-06 0)
(1.10158e-05 6.03972e-06 0)
(1.08999e-05 6.30344e-06 0)
(1.08309e-05 6.54272e-06 0)
(1.07996e-05 6.76389e-06 0)
(1.07972e-05 6.9719e-06 0)
(1.09526e-05 7.24384e-06 0)
(1.2053e-05 3.54203e-06 -7.78572e-20)
(1.13089e-05 4.14748e-06 0)
(1.07824e-05 4.58676e-06 0)
(1.03965e-05 4.94435e-06 0)
(1.01181e-05 5.2395e-06 0)
(9.92144e-06 5.49418e-06 0)
(9.78762e-06 5.71876e-06 0)
(9.70291e-06 5.92182e-06 0)
(9.65707e-06 6.10896e-06 0)
(9.64118e-06 6.28387e-06 0)
(9.79918e-06 6.54085e-06 0)
(1.8065e-05 5.36347e-06 -2.60561e-21)
(1.81939e-05 5.88177e-06 -1.44417e-21)
(1.81781e-05 6.54816e-06 -1.57375e-21)
(1.81676e-05 7.1664e-06 -1.69204e-21)
(1.81785e-05 7.73547e-06 -1.79721e-21)
(1.82169e-05 8.26116e-06 -1.89197e-21)
(1.82849e-05 8.75028e-06 -1.97871e-21)
(1.83823e-05 9.20976e-06 -2.05958e-21)
(1.8508e-05 9.64532e-06 -2.07668e-21)
(1.86591e-05 1.00624e-05 -1.5295e-21)
(1.88342e-05 1.04633e-05 -4.79472e-22)
(1.76633e-05 5.16255e-06 -3.89774e-21)
(1.76082e-05 5.85834e-06 0)
(1.75623e-05 6.52048e-06 0)
(1.75378e-05 7.12959e-06 0)
(1.75409e-05 7.68591e-06 0)
(1.75737e-05 8.19627e-06 0)
(1.76358e-05 8.66821e-06 0)
(1.77258e-05 9.10922e-06 0)
(1.7842e-05 9.52548e-06 0)
(1.79816e-05 9.92284e-06 0)
(1.81533e-05 1.03061e-05 0)
(1.71166e-05 5.07736e-06 -4.02291e-21)
(1.70018e-05 5.78845e-06 0)
(1.69086e-05 6.44445e-06 0)
(1.68489e-05 7.04079e-06 0)
(1.6825e-05 7.58082e-06 0)
(1.68362e-05 8.07305e-06 0)
(1.68798e-05 8.52568e-06 0)
(1.69527e-05 8.94666e-06 0)
(1.70521e-05 9.34238e-06 0)
(1.71744e-05 9.71907e-06 0)
(1.73414e-05 1.00855e-05 0)
(1.65373e-05 4.93962e-06 -4.76093e-21)
(1.63503e-05 5.67394e-06 0)
(1.62007e-05 6.32147e-06 0)
(1.60963e-05 6.90033e-06 0)
(1.60366e-05 7.41886e-06 0)
(1.60182e-05 7.88831e-06 0)
(1.60363e-05 8.31778e-06 0)
(1.60864e-05 8.71562e-06 0)
(1.61645e-05 9.0884e-06 0)
(1.62658e-05 9.44247e-06 0)
(1.6428e-05 9.79263e-06 0)
(1.59149e-05 4.76202e-06 -7.48611e-21)
(1.56436e-05 5.51648e-06 0)
(1.54316e-05 6.15182e-06 0)
(1.52773e-05 6.7089e-06 0)
(1.51773e-05 7.20134e-06 0)
(1.51254e-05 7.64369e-06 0)
(1.51147e-05 8.04612e-06 0)
(1.5139e-05 8.41747e-06 0)
(1.51933e-05 8.76443e-06 0)
(1.52719e-05 9.09337e-06 0)
(1.54297e-05 9.42722e-06 0)
(1.52438e-05 4.55311e-06 -1.35545e-20)
(1.48784e-05 5.3168e-06 0)
(1.46e-05 5.93353e-06 0)
(1.43942e-05 6.46356e-06 0)
(1.42529e-05 6.9252e-06 0)
(1.41668e-05 7.33628e-06 0)
(1.41267e-05 7.70801e-06 0)
(1.41247e-05 8.04967e-06 0)
(1.4155e-05 8.36807e-06 0)
(1.42107e-05 8.66945e-06 0)
(1.43654e-05 8.9872e-06 0)
(1.45217e-05 4.32062e-06 -2.38723e-20)
(1.40566e-05 5.07678e-06 0)
(1.37106e-05 5.66605e-06 0)
(1.34537e-05 6.16309e-06 0)
(1.32724e-05 6.58945e-06 0)
(1.31534e-05 6.96566e-06 0)
(1.3085e-05 7.30364e-06 0)
(1.30581e-05 7.61297e-06 0)
(1.30655e-05 7.9005e-06 0)
(1.30994e-05 8.1722e-06 0)
(1.32527e-05 8.47419e-06 0)
(1.37483e-05 4.07088e-06 -3.86093e-20)
(1.3183e-05 4.79904e-06 0)
(1.2771e-05 5.35006e-06 0)
(1.24657e-05 5.80746e-06 0)
(1.22474e-05 6.19413e-06 0)
(1.20982e-05 6.53229e-06 0)
(1.20043e-05 6.83405e-06 0)
(1.19547e-05 7.10902e-06 0)
(1.19414e-05 7.36392e-06 0)
(1.19558e-05 7.60431e-06 0)
(1.21092e-05 7.8911e-06 0)
(1.29246e-05 3.80965e-06 -5.70876e-20)
(1.22645e-05 4.48759e-06 0)
(1.17912e-05 4.98862e-06 0)
(1.14423e-05 5.39946e-06 0)
(1.11912e-05 5.74226e-06 0)
(1.10158e-05 6.03972e-06 0)
(1.08999e-05 6.30344e-06 0)
(1.08309e-05 6.54272e-06 0)
(1.07996e-05 6.76389e-06 0)
(1.07972e-05 6.9719e-06 0)
(1.09526e-05 7.24384e-06 0)
(1.2053e-05 3.54203e-06 -7.78572e-20)
(1.13089e-05 4.14748e-06 0)
(1.07824e-05 4.58676e-06 0)
(1.03965e-05 4.94435e-06 0)
(1.01181e-05 5.2395e-06 0)
(9.92144e-06 5.49418e-06 0)
(9.78762e-06 5.71876e-06 0)
(9.70291e-06 5.92182e-06 0)
(9.65707e-06 6.10896e-06 0)
(9.64118e-06 6.28387e-06 0)
(9.79918e-06 6.54085e-06 0)
(1.90332e-05 1.08528e-05 5.11585e-22)
(1.92528e-05 1.12362e-05 1.40173e-21)
(1.94894e-05 1.16139e-05 2.20309e-21)
(1.97415e-05 1.19876e-05 2.91711e-21)
(2.00074e-05 1.2359e-05 3.55175e-21)
(2.02855e-05 1.27292e-05 4.11334e-21)
(2.05747e-05 1.30993e-05 4.60842e-21)
(2.08736e-05 1.34701e-05 5.0426e-21)
(2.11811e-05 1.38425e-05 5.42107e-21)
(2.14961e-05 1.4217e-05 5.74807e-21)
(2.18179e-05 1.45942e-05 6.02731e-21)
(2.21454e-05 1.49745e-05 6.26151e-21)
(2.24777e-05 1.53583e-05 6.45289e-21)
(2.28142e-05 1.57459e-05 6.60299e-21)
(2.31538e-05 1.61374e-05 6.71307e-21)
(2.34958e-05 1.65329e-05 6.78398e-21)
(2.38393e-05 1.69321e-05 6.81754e-21)
(2.41832e-05 1.73346e-05 6.81622e-21)
(2.45264e-05 1.77395e-05 6.78432e-21)
(2.46397e-05 1.79917e-05 -1.54394e-21)
(1.83656e-05 1.06839e-05 0)
(1.86038e-05 1.10592e-05 0)
(1.88559e-05 1.14295e-05 0)
(1.91205e-05 1.17968e-05 0)
(1.93964e-05 1.21626e-05 0)
(1.96826e-05 1.2528e-05 0)
(1.9978e-05 1.28941e-05 0)
(2.02817e-05 1.32615e-05 0)
(2.05928e-05 1.36312e-05 0)
(2.09104e-05 1.40036e-05 0)
(2.12339e-05 1.43792e-05 0)
(2.15625e-05 1.47585e-05 0)
(2.18955e-05 1.51418e-05 0)
(2.22323e-05 1.55294e-05 0)
(2.25722e-05 1.59214e-05 0)
(2.29146e-05 1.63178e-05 0)
(2.32588e-05 1.67185e-05 0)
(2.36042e-05 1.71229e-05 0)
(2.39502e-05 1.75302e-05 0)
(2.42948e-05 1.79381e-05 -9.92006e-21)
(1.75742e-05 1.04557e-05 0)
(1.78413e-05 1.08282e-05 0)
(1.81184e-05 1.11961e-05 0)
(1.84045e-05 1.15614e-05 0)
(1.86991e-05 1.19257e-05 0)
(1.90012e-05 1.22899e-05 0)
(1.93104e-05 1.26553e-05 0)
(1.96259e-05 1.30226e-05 0)
(1.99472e-05 1.33924e-05 0)
(2.02738e-05 1.37654e-05 0)
(2.06052e-05 1.41421e-05 0)
(2.09407e-05 1.45229e-05 0)
(2.12801e-05 1.49081e-05 0)
(2.16227e-05 1.52979e-05 0)
(2.19682e-05 1.56927e-05 0)
(2.23161e-05 1.60923e-05 0)
(2.2666e-05 1.64967e-05 0)
(2.30173e-05 1.69056e-05 0)
(2.33695e-05 1.73182e-05 0)
(2.37189e-05 1.77325e-05 -1.00027e-20)
(1.66863e-05 1.01597e-05 0)
(1.69893e-05 1.05357e-05 0)
(1.72985e-05 1.0907e-05 0)
(1.76128e-05 1.12755e-05 0)
(1.79322e-05 1.1643e-05 0)
(1.82564e-05 1.20105e-05 0)
(1.8585e-05 1.23792e-05 0)
(1.89179e-05 1.27498e-05 0)
(1.92547e-05 1.31232e-05 0)
(1.95951e-05 1.35e-05 0)
(1.9939e-05 1.38806e-05 0)
(2.0286e-05 1.42655e-05 0)
(2.06359e-05 1.46551e-05 0)
(2.09884e-05 1.50497e-05 0)
(2.13434e-05 1.54495e-05 0)
(2.17004e-05 1.58546e-05 0)
(2.20592e-05 1.62651e-05 0)
(2.24194e-05 1.6681e-05 0)
(2.27803e-05 1.7102e-05 0)
(2.31371e-05 1.75263e-05 -1.01289e-20)
(1.57177e-05 9.79543e-06 0)
(1.60625e-05 1.01808e-05 0)
(1.64092e-05 1.0561e-05 0)
(1.67571e-05 1.09378e-05 0)
(1.71067e-05 1.13131e-05 0)
(1.74578e-05 1.16881e-05 0)
(1.78108e-05 1.20641e-05 0)
(1.81655e-05 1.24418e-05 0)
(1.8522e-05 1.28221e-05 0)
(1.88804e-05 1.32057e-05 0)
(1.92407e-05 1.35932e-05 0)
(1.96027e-05 1.3985e-05 0)
(1.99666e-05 1.43816e-05 0)
(2.03323e-05 1.47833e-05 0)
(2.06996e-05 1.51906e-05 0)
(2.10685e-05 1.56035e-05 0)
(2.14388e-05 1.60226e-05 0)
(2.18102e-05 1.64479e-05 0)
(2.21821e-05 1.68796e-05 0)
(2.25486e-05 1.73167e-05 -1.02955e-20)
(1.46864e-05 9.36104e-06 0)
(1.50772e-05 9.76168e-06 0)
(1.54658e-05 1.01565e-05 0)
(1.58512e-05 1.05467e-05 0)
(1.6235e-05 1.09348e-05 0)
(1.66169e-05 1.13218e-05 0)
(1.69978e-05 1.17091e-05 0)
(1.73778e-05 1.20976e-05 0)
(1.77575e-05 1.24884e-05 0)
(1.81369e-05 1.28821e-05 0)
(1.85165e-05 1.32795e-05 0)
(1.88965e-05 1.3681e-05 0)
(1.9277e-05 1.40872e-05 0)
(1.96582e-05 1.44986e-05 0)
(2.00402e-05 1.49156e-05 0)
(2.0423e-05 1.53387e-05 0)
(2.08067e-05 1.57683e-05 0)
(2.11911e-05 1.62051e-05 0)
(2.15757e-05 1.66496e-05 0)
(2.19542e-05 1.71013e-05 -1.0503e-20)
(1.3609e-05 8.85804e-06 0)
(1.40486e-05 9.27971e-06 0)
(1.44819e-05 9.6946e-06 0)
(1.49078e-05 1.01034e-05 0)
(1.53285e-05 1.05089e-05 0)
(1.57441e-05 1.09121e-05 0)
(1.61556e-05 1.13147e-05 0)
(1.65636e-05 1.17178e-05 0)
(1.69689e-05 1.21225e-05 0)
(1.73718e-05 1.25295e-05 0)
(1.77731e-05 1.29397e-05 0)
(1.8173e-05 1.33537e-05 0)
(1.85721e-05 1.37722e-05 0)
(1.89706e-05 1.41956e-05 0)
(1.93689e-05 1.46247e-05 0)
(1.97672e-05 1.506e-05 0)
(2.01657e-05 1.55022e-05 0)
(2.05644e-05 1.59522e-05 0)
(2.09632e-05 1.6411e-05 0)
(2.13556e-05 1.68784e-05 -1.07525e-20)
(1.25019e-05 8.28926e-06 0)
(1.29915e-05 8.73731e-06 0)
(1.34711e-05 9.17741e-06 0)
(1.39392e-05 9.60951e-06 0)
(1.43986e-05 1.00368e-05 0)
(1.48496e-05 1.04605e-05 0)
(1.52937e-05 1.08824e-05 0)
(1.57316e-05 1.13037e-05 0)
(1.61642e-05 1.17256e-05 0)
(1.65924e-05 1.21491e-05 0)
(1.70169e-05 1.2575e-05 0)
(1.74383e-05 1.30043e-05 0)
(1.78573e-05 1.34375e-05 0)
(1.82744e-05 1.38754e-05 0)
(1.86901e-05 1.43187e-05 0)
(1.9105e-05 1.47681e-05 0)
(1.95192e-05 1.52245e-05 0)
(1.99332e-05 1.56891e-05 0)
(2.03471e-05 1.61631e-05 0)
(2.0755e-05 1.6647e-05 -1.10458e-20)
(1.13814e-05 7.66002e-06 0)
(1.19205e-05 8.13923e-06 0)
(1.24466e-05 8.60893e-06 0)
(1.29573e-05 9.06866e-06 0)
(1.34562e-05 9.5217e-06 0)
(1.39436e-05 9.96959e-06 0)
(1.44212e-05 1.04142e-05 0)
(1.48899e-05 1.0857e-05 0)
(1.5351e-05 1.12993e-05 0)
(1.58055e-05 1.17422e-05 0)
(1.62542e-05 1.21868e-05 0)
(1.66981e-05 1.26339e-05 0)
(1.71379e-05 1.30844e-05 0)
(1.75744e-05 1.3539e-05 0)
(1.80084e-05 1.39985e-05 0)
(1.84404e-05 1.44638e-05 0)
(1.8871e-05 1.4936e-05 0)
(1.93008e-05 1.54163e-05 0)
(1.97303e-05 1.59062e-05 0)
(2.0155e-05 1.64068e-05 -1.13845e-20)
(1.02621e-05 6.97793e-06 0)
(1.08482e-05 7.49176e-06 0)
(1.14189e-05 7.99414e-06 0)
(1.19719e-05 8.48531e-06 0)
(1.25102e-05 8.96767e-06 0)
(1.30343e-05 9.44319e-06 0)
(1.35459e-05 9.91377e-06 0)
(1.40462e-05 1.03811e-05 0)
(1.45364e-05 1.08466e-05 0)
(1.50177e-05 1.13117e-05 0)
(1.54913e-05 1.17774e-05 0)
(1.59582e-05 1.22448e-05 0)
(1.64193e-05 1.27147e-05 0)
(1.68756e-05 1.31881e-05 0)
(1.73281e-05 1.36657e-05 0)
(1.77775e-05 1.41486e-05 0)
(1.82247e-05 1.46377e-05 0)
(1.86704e-05 1.51347e-05 0)
(1.91157e-05 1.56408e-05 0)
(1.95583e-05 1.6158e-05 -1.17705e-20)
(9.26825e-06 6.35731e-06 0)
(9.88935e-06 6.90092e-06 0)
(1.04934e-05 7.42999e-06 0)
(1.10792e-05 7.94776e-06 0)
(1.16485e-05 8.45561e-06 0)
(1.22021e-05 8.95561e-06 0)
(1.27414e-05 9.44952e-06 0)
(1.32674e-05 9.93903e-06 0)
(1.37816e-05 1.04257e-05 0)
(1.42851e-05 1.09108e-05 0)
(1.47791e-05 1.13956e-05 0)
(1.52648e-05 1.18811e-05 0)
(1.57433e-05 1.23683e-05 0)
(1.62157e-05 1.2858e-05 0)
(1.6683e-05 1.3351e-05 0)
(1.71463e-05 1.38485e-05 0)
(1.76066e-05 1.43513e-05 0)
(1.80649e-05 1.48609e-05 0)
(1.85225e-05 1.53786e-05 0)
(1.89796e-05 1.59071e-05 -1.20814e-20)
(1.90332e-05 1.08528e-05 5.11585e-22)
(1.92528e-05 1.12362e-05 1.40173e-21)
(1.94894e-05 1.16139e-05 2.20309e-21)
(1.97415e-05 1.19876e-05 2.91711e-21)
(2.00074e-05 1.2359e-05 3.55175e-21)
(2.02855e-05 1.27292e-05 4.11334e-21)
(2.05747e-05 1.30993e-05 4.60842e-21)
(2.08736e-05 1.34701e-05 5.0426e-21)
(2.11811e-05 1.38425e-05 5.42107e-21)
(2.14961e-05 1.4217e-05 5.74807e-21)
(2.18179e-05 1.45942e-05 6.02731e-21)
(2.21454e-05 1.49745e-05 6.26151e-21)
(2.24777e-05 1.53583e-05 6.45289e-21)
(2.28142e-05 1.57459e-05 6.60299e-21)
(2.31538e-05 1.61374e-05 6.71307e-21)
(2.34958e-05 1.65329e-05 6.78398e-21)
(2.38393e-05 1.69321e-05 6.81754e-21)
(2.41832e-05 1.73346e-05 6.81622e-21)
(2.45264e-05 1.77395e-05 6.78432e-21)
(2.46397e-05 1.79917e-05 -1.54394e-21)
(1.83656e-05 1.06839e-05 0)
(1.86038e-05 1.10592e-05 0)
(1.88559e-05 1.14295e-05 0)
(1.91205e-05 1.17968e-05 0)
(1.93964e-05 1.21626e-05 0)
(1.96826e-05 1.2528e-05 0)
(1.9978e-05 1.28941e-05 0)
(2.02817e-05 1.32615e-05 0)
(2.05928e-05 1.36312e-05 0)
(2.09104e-05 1.40036e-05 0)
(2.12339e-05 1.43792e-05 0)
(2.15625e-05 1.47585e-05 0)
(2.18955e-05 1.51418e-05 0)
(2.22323e-05 1.55294e-05 0)
(2.25722e-05 1.59214e-05 0)
(2.29146e-05 1.63178e-05 0)
(2.32588e-05 1.67185e-05 0)
(2.36042e-05 1.71229e-05 0)
(2.39502e-05 1.75302e-05 0)
(2.42948e-05 1.79381e-05 -9.92006e-21)
(1.75742e-05 1.04557e-05 0)
(1.78413e-05 1.08282e-05 0)
(1.81184e-05 1.11961e-05 0)
(1.84045e-05 1.15614e-05 0)
(1.86991e-05 1.19257e-05 0)
(1.90012e-05 1.22899e-05 0)
(1.93104e-05 1.26553e-05 0)
(1.96259e-05 1.30226e-05 0)
(1.99472e-05 1.33924e-05 0)
(2.02738e-05 1.37654e-05 0)
(2.06052e-05 1.41421e-05 0)
(2.09407e-05 1.45229e-05 0)
(2.12801e-05 1.49081e-05 0)
(2.16227e-05 1.52979e-05 0)
(2.19682e-05 1.56927e-05 0)
(2.23161e-05 1.60923e-05 0)
(2.2666e-05 1.64967e-05 0)
(2.30173e-05 1.69056e-05 0)
(2.33695e-05 1.73182e-05 0)
(2.37189e-05 1.77325e-05 -1.00027e-20)
(1.66863e-05 1.01597e-05 0)
(1.69893e-05 1.05357e-05 0)
(1.72985e-05 1.0907e-05 0)
(1.76128e-05 1.12755e-05 0)
(1.79322e-05 1.1643e-05 0)
(1.82564e-05 1.20105e-05 0)
(1.8585e-05 1.23792e-05 0)
(1.89179e-05 1.27498e-05 0)
(1.92547e-05 1.31232e-05 0)
(1.95951e-05 1.35e-05 0)
(1.9939e-05 1.38806e-05 0)
(2.0286e-05 1.42655e-05 0)
(2.06359e-05 1.46551e-05 0)
(2.09884e-05 1.50497e-05 0)
(2.13434e-05 1.54495e-05 0)
(2.17004e-05 1.58546e-05 0)
(2.20592e-05 1.62651e-05 0)
(2.24194e-05 1.6681e-05 0)
(2.27803e-05 1.7102e-05 0)
(2.31371e-05 1.75263e-05 -1.01289e-20)
(1.57177e-05 9.79543e-06 0)
(1.60625e-05 1.01808e-05 0)
(1.64092e-05 1.0561e-05 0)
(1.67571e-05 1.09378e-05 0)
(1.71067e-05 1.13131e-05 0)
(1.74578e-05 1.16881e-05 0)
(1.78108e-05 1.20641e-05 0)
(1.81655e-05 1.24418e-05 0)
(1.8522e-05 1.28221e-05 0)
(1.88804e-05 1.32057e-05 0)
(1.92407e-05 1.35932e-05 0)
(1.96027e-05 1.3985e-05 0)
(1.99666e-05 1.43816e-05 0)
(2.03323e-05 1.47833e-05 0)
(2.06996e-05 1.51906e-05 0)
(2.10685e-05 1.56035e-05 0)
(2.14388e-05 1.60226e-05 0)
(2.18102e-05 1.64479e-05 0)
(2.21821e-05 1.68796e-05 0)
(2.25486e-05 1.73167e-05 -1.02955e-20)
(1.46864e-05 9.36104e-06 0)
(1.50772e-05 9.76168e-06 0)
(1.54658e-05 1.01565e-05 0)
(1.58512e-05 1.05467e-05 0)
(1.6235e-05 1.09348e-05 0)
(1.66169e-05 1.13218e-05 0)
(1.69978e-05 1.17091e-05 0)
(1.73778e-05 1.20976e-05 0)
(1.77575e-05 1.24884e-05 0)
(1.81369e-05 1.28821e-05 0)
(1.85165e-05 1.32795e-05 0)
(1.88965e-05 1.3681e-05 0)
(1.9277e-05 1.40872e-05 0)
(1.96582e-05 1.44986e-05 0)
(2.00402e-05 1.49156e-05 0)
(2.0423e-05 1.53387e-05 0)
(2.08067e-05 1.57683e-05 0)
(2.11911e-05 1.62051e-05 0)
(2.15757e-05 1.66496e-05 0)
(2.19542e-05 1.71013e-05 -1.0503e-20)
(1.3609e-05 8.85804e-06 0)
(1.40486e-05 9.27971e-06 0)
(1.44819e-05 9.6946e-06 0)
(1.49078e-05 1.01034e-05 0)
(1.53285e-05 1.05089e-05 0)
(1.57441e-05 1.09121e-05 0)
(1.61556e-05 1.13147e-05 0)
(1.65636e-05 1.17178e-05 0)
(1.69689e-05 1.21225e-05 0)
(1.73718e-05 1.25295e-05 0)
(1.77731e-05 1.29397e-05 0)
(1.8173e-05 1.33537e-05 0)
(1.85721e-05 1.37722e-05 0)
(1.89706e-05 1.41956e-05 0)
(1.93689e-05 1.46247e-05 0)
(1.97672e-05 1.506e-05 0)
(2.01657e-05 1.55022e-05 0)
(2.05644e-05 1.59522e-05 0)
(2.09632e-05 1.6411e-05 0)
(2.13556e-05 1.68784e-05 -1.07525e-20)
(1.25019e-05 8.28926e-06 0)
(1.29915e-05 8.73731e-06 0)
(1.34711e-05 9.17741e-06 0)
(1.39392e-05 9.60951e-06 0)
(1.43986e-05 1.00368e-05 0)
(1.48496e-05 1.04605e-05 0)
(1.52937e-05 1.08824e-05 0)
(1.57316e-05 1.13037e-05 0)
(1.61642e-05 1.17256e-05 0)
(1.65924e-05 1.21491e-05 0)
(1.70169e-05 1.2575e-05 0)
(1.74383e-05 1.30043e-05 0)
(1.78573e-05 1.34375e-05 0)
(1.82744e-05 1.38754e-05 0)
(1.86901e-05 1.43187e-05 0)
(1.9105e-05 1.47681e-05 0)
(1.95192e-05 1.52245e-05 0)
(1.99332e-05 1.56891e-05 0)
(2.03471e-05 1.61631e-05 0)
(2.0755e-05 1.6647e-05 -1.10458e-20)
(1.13814e-05 7.66002e-06 0)
(1.19205e-05 8.13923e-06 0)
(1.24466e-05 8.60893e-06 0)
(1.29573e-05 9.06866e-06 0)
(1.34562e-05 9.5217e-06 0)
(1.39436e-05 9.96959e-06 0)
(1.44212e-05 1.04142e-05 0)
(1.48899e-05 1.0857e-05 0)
(1.5351e-05 1.12993e-05 0)
(1.58055e-05 1.17422e-05 0)
(1.62542e-05 1.21868e-05 0)
(1.66981e-05 1.26339e-05 0)
(1.71379e-05 1.30844e-05 0)
(1.75744e-05 1.3539e-05 0)
(1.80084e-05 1.39985e-05 0)
(1.84404e-05 1.44638e-05 0)
(1.8871e-05 1.4936e-05 0)
(1.93008e-05 1.54163e-05 0)
(1.97303e-05 1.59062e-05 0)
(2.0155e-05 1.64068e-05 -1.13845e-20)
(1.02621e-05 6.97793e-06 0)
(1.08482e-05 7.49176e-06 0)
(1.14189e-05 7.99414e-06 0)
(1.19719e-05 8.48531e-06 0)
(1.25102e-05 8.96767e-06 0)
(1.30343e-05 9.44319e-06 0)
(1.35459e-05 9.91377e-06 0)
(1.40462e-05 1.03811e-05 0)
(1.45364e-05 1.08466e-05 0)
(1.50177e-05 1.13117e-05 0)
(1.54913e-05 1.17774e-05 0)
(1.59582e-05 1.22448e-05 0)
(1.64193e-05 1.27147e-05 0)
(1.68756e-05 1.31881e-05 0)
(1.73281e-05 1.36657e-05 0)
(1.77775e-05 1.41486e-05 0)
(1.82247e-05 1.46377e-05 0)
(1.86704e-05 1.51347e-05 0)
(1.91157e-05 1.56408e-05 0)
(1.95583e-05 1.6158e-05 -1.17705e-20)
(9.26825e-06 6.35731e-06 0)
(9.88935e-06 6.90092e-06 0)
(1.04934e-05 7.42999e-06 0)
(1.10792e-05 7.94776e-06 0)
(1.16485e-05 8.45561e-06 0)
(1.22021e-05 8.95561e-06 0)
(1.27414e-05 9.44952e-06 0)
(1.32674e-05 9.93903e-06 0)
(1.37816e-05 1.04257e-05 0)
(1.42851e-05 1.09108e-05 0)
(1.47791e-05 1.13956e-05 0)
(1.52648e-05 1.18811e-05 0)
(1.57433e-05 1.23683e-05 0)
(1.62157e-05 1.2858e-05 0)
(1.6683e-05 1.3351e-05 0)
(1.71463e-05 1.38485e-05 0)
(1.76066e-05 1.43513e-05 0)
(1.80649e-05 1.48609e-05 0)
(1.85225e-05 1.53786e-05 0)
(1.89796e-05 1.59071e-05 -1.20814e-20)
(7.79611e-06 5.32076e-06 0)
(8.54427e-06 5.93153e-06 0)
(9.17745e-06 6.48775e-06 0)
(9.79337e-06 7.02887e-06 0)
(1.03918e-05 7.55966e-06 0)
(1.09738e-05 8.08101e-06 0)
(1.15401e-05 8.59466e-06 0)
(1.20916e-05 9.1021e-06 0)
(1.26295e-05 9.60479e-06 0)
(1.31548e-05 1.01041e-05 0)
(1.36688e-05 1.06012e-05 0)
(1.41725e-05 1.10972e-05 0)
(1.46671e-05 1.1593e-05 0)
(1.51537e-05 1.20896e-05 0)
(1.56335e-05 1.25878e-05 0)
(1.61075e-05 1.30883e-05 0)
(1.65767e-05 1.35919e-05 0)
(1.70426e-05 1.40997e-05 0)
(1.7506e-05 1.46127e-05 0)
(1.79688e-05 1.51321e-05 0)
(1.84321e-05 1.56605e-05 -1.2166e-20)
(7.26534e-06 5.00908e-06 0)
(7.98884e-06 5.61206e-06 0)
(8.61761e-06 6.16938e-06 0)
(9.23133e-06 6.71445e-06 0)
(9.82926e-06 7.25086e-06 0)
(1.04121e-05 7.77907e-06 0)
(1.09801e-05 8.3003e-06 0)
(1.1534e-05 8.8157e-06 0)
(1.20747e-05 9.3264e-06 0)
(1.26031e-05 9.83349e-06 0)
(1.31201e-05 1.0338e-05 0)
(1.36267e-05 1.08408e-05 0)
(1.41241e-05 1.13427e-05 0)
(1.46132e-05 1.18445e-05 0)
(1.50951e-05 1.23469e-05 0)
(1.5571e-05 1.28505e-05 0)
(1.60419e-05 1.3356e-05 0)
(1.65091e-05 1.38642e-05 0)
(1.69739e-05 1.43759e-05 0)
(1.74379e-05 1.48919e-05 0)
(1.79026e-05 1.54141e-05 -1.21309e-20)
(6.7942e-06 4.70891e-06 0)
(7.49088e-06 5.30372e-06 0)
(8.10862e-06 5.85978e-06 0)
(8.71453e-06 6.40658e-06 0)
(9.30678e-06 6.94681e-06 0)
(9.88581e-06 7.48035e-06 0)
(1.04514e-05 8.00794e-06 0)
(1.10041e-05 8.53032e-06 0)
(1.15443e-05 9.04827e-06 0)
(1.20727e-05 9.56259e-06 0)
(1.25902e-05 1.00741e-05 0)
(1.30976e-05 1.05834e-05 0)
(1.35959e-05 1.10911e-05 0)
(1.4086e-05 1.1598e-05 0)
(1.45689e-05 1.21045e-05 0)
(1.50456e-05 1.26112e-05 0)
(1.55173e-05 1.31185e-05 0)
(1.59853e-05 1.36269e-05 0)
(1.64508e-05 1.41371e-05 0)
(1.69156e-05 1.46493e-05 0)
(1.73811e-05 1.51647e-05 -1.211e-20)
(6.37404e-06 4.42271e-06 0)
(7.04227e-06 5.00736e-06 0)
(7.64508e-06 5.56003e-06 0)
(8.23906e-06 6.10676e-06 0)
(8.82168e-06 6.64923e-06 0)
(9.39315e-06 7.18675e-06 0)
(9.95283e-06 7.71953e-06 0)
(1.0501e-05 8.2479e-06 0)
(1.10378e-05 8.77228e-06 0)
(1.15638e-05 9.29317e-06 0)
(1.20795e-05 9.81105e-06 0)
(1.25857e-05 1.03264e-05 0)
(1.30832e-05 1.08398e-05 0)
(1.35727e-05 1.13515e-05 0)
(1.40553e-05 1.18619e-05 0)
(1.4532e-05 1.23715e-05 0)
(1.50037e-05 1.28804e-05 0)
(1.54717e-05 1.33889e-05 0)
(1.59373e-05 1.38972e-05 0)
(1.64027e-05 1.44054e-05 0)
(1.68686e-05 1.49137e-05 -1.21042e-20)
(5.99764e-06 4.15136e-06 0)
(6.63676e-06 4.72481e-06 0)
(7.22176e-06 5.27245e-06 0)
(7.80068e-06 5.81745e-06 0)
(8.37056e-06 6.36056e-06 0)
(8.93144e-06 6.90059e-06 0)
(9.48232e-06 7.43728e-06 0)
(1.00233e-05 7.97051e-06 0)
(1.05542e-05 8.50035e-06 0)
(1.10754e-05 9.02696e-06 0)
(1.15874e-05 9.55059e-06 0)
(1.20905e-05 1.00715e-05 0)
(1.25856e-05 1.05899e-05 0)
(1.30734e-05 1.1106e-05 0)
(1.35546e-05 1.16201e-05 0)
(1.40302e-05 1.21323e-05 0)
(1.45011e-05 1.26426e-05 0)
(1.49686e-05 1.31511e-05 0)
(1.54338e-05 1.36574e-05 0)
(1.58988e-05 1.41615e-05 0)
(1.63645e-05 1.46628e-05 -1.21141e-20)
(5.65747e-06 3.89493e-06 0)
(6.26768e-06 4.45631e-06 0)
(6.83303e-06 4.99761e-06 0)
(7.39472e-06 5.53952e-06 0)
(7.94959e-06 6.08192e-06 0)
(8.49752e-06 6.62318e-06 0)
(9.03731e-06 7.16257e-06 0)
(9.56881e-06 7.69958e-06 0)
(1.00918e-05 8.23389e-06 0)
(1.06063e-05 8.76537e-06 0)
(1.11127e-05 9.29398e-06 0)
(1.16113e-05 9.81972e-06 0)
(1.21026e-05 1.03426e-05 0)