/*--------------------------------*- C++ -*----------------------------------*\
  =========                 |
  \\      /  F ield         | OpenFOAM: The Open Source CFD Toolbox
   \\    /   O peration     | Website:  https://openfoam.org
    \\  /    A nd           | Version:  9
     \\/     M anipulation  |
\*---------------------------------------------------------------------------*/
FoamFile
{
    format      ascii;
    class       volScalarField;
    location    "15";
    object      sigmaEq;
}
// * * * * * * * * * * * * * * * * * * * * * * * * * * * * * * * * * * * * * //

dimensions      [1 -1 -2 0 0 0 0];

internalField   nonuniform List<scalar> 
1000
(
2.5844e+06
2.46183e+06
2.42608e+06
2.43014e+06
2.42277e+06
2.40745e+06
2.38344e+06
2.35171e+06
2.31881e+06
2.27807e+06
3.02292e+06
2.76734e+06
2.64078e+06
2.58559e+06
2.53785e+06
2.4936e+06
2.44766e+06
2.39999e+06
2.35011e+06
2.30259e+06
3.44207e+06
3.06318e+06
2.84087e+06
2.71955e+06
2.62648e+06
2.54895e+06
2.47817e+06
2.41141e+06
2.34555e+06
2.28713e+06
3.85434e+06
3.34364e+06
3.02507e+06
2.8326e+06
2.69039e+06
2.57641e+06
2.47879e+06
2.39206e+06
2.31041e+06
2.24126e+06
4.24079e+06
3.60276e+06
3.19317e+06
2.92559e+06
2.73047e+06
2.57743e+06
2.45146e+06
2.34399e+06
2.24725e+06
2.16707e+06
4.59611e+06
3.84883e+06
3.34109e+06
2.99865e+06
2.7476e+06
2.55453e+06
2.39976e+06
2.27176e+06
2.16075e+06
2.06964e+06
4.86849e+06
4.06155e+06
3.45412e+06
3.03963e+06
2.73522e+06
2.50519e+06
2.32475e+06
2.17886e+06
2.05611e+06
1.95527e+06
5.16505e+06
4.23194e+06
3.5264e+06
3.04434e+06
2.69521e+06
2.43582e+06
2.23649e+06
2.07811e+06
1.94796e+06
1.84021e+06
5.36597e+06
4.30451e+06
3.50516e+06
2.97146e+06
2.60592e+06
2.33826e+06
2.13577e+06
1.97535e+06
1.84473e+06
1.73447e+06
5.71615e+06
4.22721e+06
3.39031e+06
2.86849e+06
2.5227e+06
2.26825e+06
2.07433e+06
1.91838e+06
1.79036e+06
1.67945e+06
10108.9
19146.1
87921.4
185033
292840
404638
513516
617444
713374
803839
22436.6
126499
266704
404045
527305
637622
734777
823765
900885
973994
101159
296324
473588
631613
764401
876149
969326
1.04845e+06
1.11112e+06
1.17135e+06
237625
505219
704686
870757
1.00513e+06
1.11461e+06
1.20055e+06
1.27023e+06
1.32079e+06
1.37063e+06
434152
742752
953511
1.12107e+06
1.2505e+06
1.35076e+06
1.42604e+06
1.48445e+06
1.52275e+06
1.56214e+06
690094
999505
1.20837e+06
1.3727e+06
1.4906e+06
1.57803e+06
1.64029e+06
1.68585e+06
1.71156e+06
1.73995e+06
999297
1.27138e+06
1.46631e+06
1.61705e+06
1.71927e+06
1.7912e+06
1.83868e+06
1.87017e+06
1.88311e+06
1.89972e+06
1.35414e+06
1.55539e+06
1.71937e+06
1.84773e+06
1.93005e+06
1.98415e+06
2.01579e+06
2.03251e+06
2.03337e+06
2.03738e+06
1.74353e+06
1.85224e+06
1.9648e+06
2.06134e+06
2.11908e+06
2.15296e+06
2.16747e+06
2.16889e+06
2.15808e+06
2.15012e+06
2.15817e+06
2.15549e+06
2.20048e+06
2.25534e+06
2.28311e+06
2.29358e+06
2.2894e+06
2.27409e+06
2.25432e+06
2.22926e+06
885122
955482
1.02059e+06
1.0794e+06
1.13257e+06
1.18036e+06
1.22326e+06
1.26157e+06
1.29569e+06
1.32589e+06
1.35244e+06
1.37552e+06
1.39529e+06
1.41184e+06
1.42523e+06
1.43551e+06
1.44266e+06
1.44694e+06
1.44829e+06
1.44766e+06
1.03057e+06
1.0731e+06
1.11583e+06
1.15522e+06
1.19218e+06
1.22632e+06
1.25784e+06
1.28664e+06
1.3129e+06
1.33663e+06
1.35796e+06
1.37694e+06
1.39366e+06
1.40817e+06
1.4205e+06
1.43068e+06
1.43861e+06
1.4443e+06
1.44716e+06
1.44707e+06
1.20587e+06
1.22187e+06
1.24183e+06
1.26046e+06
1.27942e+06
1.29779e+06
1.31582e+06
1.33304e+06
1.34954e+06
1.36506e+06
1.37962e+06
1.39312e+06
1.40554e+06
1.41685e+06
1.42697e+06
1.43583e+06
1.44313e+06
1.44861e+06
1.45104e+06
1.44997e+06
1.3865e+06
1.37968e+06
1.37959e+06
1.37934e+06
1.38133e+06
1.3843e+06
1.38878e+06
1.39401e+06
1.40014e+06
1.40671e+06
1.41369e+06
1.42083e+06
1.42803e+06
1.43513e+06
1.44196e+06
1.44832e+06
1.45373e+06
1.45783e+06
1.45908e+06
1.45716e+06
1.56147e+06
1.53531e+06
1.51786e+06
1.5011e+06
1.488e+06
1.47684e+06
1.46864e+06
1.46233e+06
1.45824e+06
1.45576e+06
1.45488e+06
1.45524e+06
1.45669e+06
1.45899e+06
1.46187e+06
1.46505e+06
1.46798e+06
1.47022e+06
1.47026e+06
1.46789e+06
1.72448e+06
1.6821e+06
1.65003e+06
1.61902e+06
1.59301e+06
1.56936e+06
1.54985e+06
1.53299e+06
1.51937e+06
1.50826e+06
1.49968e+06
1.49323e+06
1.48874e+06
1.48593e+06
1.4845e+06
1.48413e+06
1.48429e+06
1.48456e+06
1.48372e+06
1.48153e+06
1.87128e+06
1.81573e+06
1.77223e+06
1.72914e+06
1.69255e+06
1.65805e+06
1.6286e+06
1.60224e+06
1.57987e+06
1.56071e+06
1.54483e+06
1.53183e+06
1.52153e+06
1.51364e+06
1.50787e+06
1.50391e+06
1.50133e+06
1.49974e+06
1.49839e+06
1.49694e+06
1.99812e+06
1.9323e+06
1.88113e+06
1.82787e+06
1.78303e+06
1.73984e+06
1.70219e+06
1.66787e+06
1.63785e+06
1.61148e+06
1.58884e+06
1.56963e+06
1.55371e+06
1.54083e+06
1.53076e+06
1.52324e+06
1.51801e+06
1.51472e+06
1.51326e+06
1.51304e+06
2.10458e+06
2.02925e+06
1.97591e+06
1.91523e+06
1.86364e+06
1.8133e+06
1.76834e+06
1.72713e+06
1.69039e+06
1.65771e+06
1.62912e+06
1.6044e+06
1.58341e+06
1.56598e+06
1.55195e+06
1.54113e+06
1.5335e+06
1.52875e+06
1.52745e+06
1.52877e+06
2.18677e+06
2.10717e+06
2.05373e+06
1.99209e+06
1.93632e+06
1.88189e+06
1.83122e+06
1.78414e+06
1.74121e+06
1.70247e+06
1.66802e+06
1.63777e+06
1.61169e+06
1.58964e+06
1.57158e+06
1.55739e+06
1.54729e+06
1.54105e+06
1.53995e+06
1.54298e+06
2.22384e+06
2.14911e+06
2.09387e+06
2.03438e+06
1.97757e+06
1.92219e+06
1.86973e+06
1.82033e+06
1.77465e+06
1.73286e+06
1.69519e+06
1.66168e+06
1.63241e+06
1.60735e+06
1.58659e+06
1.5701e+06
1.55833e+06
1.55115e+06
1.55037e+06
1.55486e+06
2.17201e+06
2.12719e+06
2.07627e+06
2.02384e+06
1.97216e+06
1.92106e+06
1.87196e+06
1.82506e+06
1.78111e+06
1.74037e+06
1.70321e+06
1.66979e+06
1.64028e+06
1.61479e+06
1.59353e+06
1.57659e+06
1.56461e+06
1.55754e+06
1.55764e+06
1.56359e+06
2.13166e+06
2.09428e+06
2.0536e+06
2.00748e+06
1.96166e+06
1.91484e+06
1.86924e+06
1.82494e+06
1.78293e+06
1.74351e+06
1.70718e+06
1.67419e+06
1.64482e+06
1.61927e+06
1.59786e+06
1.58079e+06
1.56882e+06
1.56196e+06
1.5627e+06
1.56962e+06
2.08037e+06
2.05295e+06
2.0209e+06
1.98129e+06
1.94137e+06
1.89922e+06
1.85761e+06
1.81651e+06
1.77711e+06
1.73974e+06
1.705e+06
1.67319e+06
1.64468e+06
1.61975e+06
1.59877e+06
1.58207e+06
1.57038e+06
1.56396e+06
1.56544e+06
1.5729e+06
2.02073e+06
2.00165e+06
1.9779e+06
1.94522e+06
1.91165e+06
1.8748e+06
1.8378e+06
1.80057e+06
1.76443e+06
1.72977e+06
1.69726e+06
1.66727e+06
1.64023e+06
1.61648e+06
1.59638e+06
1.58048e+06
1.56906e+06
1.56377e+06
1.56309e+06
1.57337e+06
1.95601e+06
1.94461e+06
1.9284e+06
1.90242e+06
1.87499e+06
1.84351e+06
1.81132e+06
1.77828e+06
1.74582e+06
1.71434e+06
1.68459e+06
1.65695e+06
1.63193e+06
1.60985e+06
1.59121e+06
1.57633e+06
1.56612e+06
1.5608e+06
1.5626e+06
1.56989e+06
1.8877e+06
1.88294e+06
1.87346e+06
1.85386e+06
1.83234e+06
1.80629e+06
1.77904e+06
1.75045e+06
1.72199e+06
1.69408e+06
1.6675e+06
1.64266e+06
1.62008e+06
1.60011e+06
1.58323e+06
1.56976e+06
1.56057e+06
1.55564e+06
1.5573e+06
1.56415e+06
1.81723e+06
1.81822e+06
1.81471e+06
1.80102e+06
1.78505e+06
1.76428e+06
1.74194e+06
1.71792e+06
1.69366e+06
1.66959e+06
1.6465e+06
1.62481e+06
1.60504e+06
1.58753e+06
1.57275e+06
1.56095e+06
1.5529e+06
1.54862e+06
1.55006e+06
1.55596e+06
1.74535e+06
1.75119e+06
1.75289e+06
1.7446e+06
1.73382e+06
1.71817e+06
1.70068e+06
1.68129e+06
1.66137e+06
1.64137e+06
1.62203e+06
1.6038e+06
1.58714e+06
1.5724e+06
1.55999e+06
1.55012e+06
1.54341e+06
1.53981e+06
1.54096e+06
1.54572e+06
1.67248e+06
1.6824e+06
1.68862e+06
1.68527e+06
1.67932e+06
1.66859e+06
1.65588e+06
1.64114e+06
1.62567e+06
1.6099e+06
1.59453e+06
1.57998e+06
1.56671e+06
1.55501e+06
1.54523e+06
1.53752e+06
1.53234e+06
1.52958e+06
1.53042e+06
1.53387e+06
1.59862e+06
1.61196e+06
1.62215e+06
1.62332e+06
1.62194e+06
1.61597e+06
1.60798e+06
1.59793e+06
1.58702e+06
1.57563e+06
1.56442e+06
1.55378e+06
1.54411e+06
1.53568e+06
1.52876e+06
1.52344e+06
1.51999e+06
1.51823e+06
1.51882e+06
1.52097e+06
1.5235e+06
1.53981e+06
1.55354e+06
1.55895e+06
1.56196e+06
1.56068e+06
1.55742e+06
1.55214e+06
1.54591e+06
1.53905e+06
1.53219e+06
1.52564e+06
1.51977e+06
1.5148e+06
1.51094e+06
1.5082e+06
1.50668e+06
1.50612e+06
1.50664e+06
1.50759e+06
1.44661e+06
1.46559e+06
1.48264e+06
1.49218e+06
1.49954e+06
1.50301e+06
1.5046e+06
1.50424e+06
1.50286e+06
1.50073e+06
1.49839e+06
1.49612e+06
1.49421e+06
1.49286e+06
1.49221e+06
1.49222e+06
1.49282e+06
1.49366e+06
1.49436e+06
1.49433e+06
1.36726e+06
1.38891e+06
1.40927e+06
1.42304e+06
1.43492e+06
1.44334e+06
1.45001e+06
1.45481e+06
1.45853e+06
1.46136e+06
1.46375e+06
1.46592e+06
1.46812e+06
1.4705e+06
1.47314e+06
1.476e+06
1.47885e+06
1.4813e+06
1.48246e+06
1.48178e+06
1.28456e+06
1.30917e+06
1.33315e+06
1.35152e+06
1.36832e+06
1.3821e+06
1.39424e+06
1.40459e+06
1.41374e+06
1.42183e+06
1.42918e+06
1.43596e+06
1.44237e+06
1.44854e+06
1.4545e+06
1.4602e+06
1.46536e+06
1.46952e+06
1.47145e+06
1.47052e+06
1.19785e+06
1.22612e+06
1.25433e+06
1.27799e+06
1.30035e+06
1.32009e+06
1.33827e+06
1.35464e+06
1.36963e+06
1.38329e+06
1.39584e+06
1.40739e+06
1.41808e+06
1.42801e+06
1.43721e+06
1.44563e+06
1.453e+06
1.45887e+06
1.46182e+06
1.46107e+06
1.1062e+06
1.13935e+06
1.1729e+06
1.20292e+06
1.23181e+06
1.25839e+06
1.28332e+06
1.30632e+06
1.32764e+06
1.34724e+06
1.36524e+06
1.3817e+06
1.3967e+06
1.41031e+06
1.42256e+06
1.43343e+06
1.44272e+06
1.45004e+06
1.45409e+06
1.4539e+06
1.01023e+06
1.05003e+06
1.09041e+06
1.12814e+06
1.16471e+06
1.19904e+06
1.23149e+06
1.2617e+06
1.28976e+06
1.31557e+06
1.33919e+06
1.3606e+06
1.37984e+06
1.39696e+06
1.41197e+06
1.42489e+06
1.43559e+06
1.44385e+06
1.44872e+06
1.44924e+06
910230
959298
1.00866e+06
1.05587e+06
1.10151e+06
1.14467e+06
1.18541e+06
1.22337e+06
1.25854e+06
1.29079e+06
1.32011e+06
1.34648e+06
1.36989e+06
1.39033e+06
1.40778e+06
1.42222e+06
1.43356e+06
1.44179e+06
1.44647e+06
1.44736e+06
813008
873888
934079
991941
1.04747e+06
1.09987e+06
1.14908e+06
1.19475e+06
1.23685e+06
1.27527e+06
1.31e+06
1.34102e+06
1.3683e+06
1.39178e+06
1.41134e+06
1.42688e+06
1.43819e+06
1.44536e+06
1.44819e+06
1.4479e+06
1.58577e+06
1.63925e+06
1.74103e+06
1.85486e+06
1.97133e+06
2.07348e+06
2.15429e+06
2.20811e+06
2.23554e+06
2.22976e+06
1.49964e+06
1.55009e+06
1.64569e+06
1.75576e+06
1.87328e+06
1.98222e+06
2.07538e+06
2.14468e+06
2.18849e+06
2.1961e+06
1.42201e+06
1.47002e+06
1.55934e+06
1.66298e+06
1.77586e+06
1.88326e+06
1.97922e+06
2.0572e+06
2.1163e+06
2.14965e+06
1.35087e+06
1.39742e+06
1.48205e+06
1.58061e+06
1.68985e+06
1.79603e+06
1.89322e+06
1.97522e+06
2.0391e+06
2.08706e+06
1.28411e+06
1.32945e+06
1.40971e+06
1.50284e+06
1.60724e+06
1.71054e+06
1.80735e+06
1.89295e+06
1.96105e+06
2.01907e+06
1.22134e+06
1.26596e+06
1.34281e+06
1.43131e+06
1.53113e+06
1.63098e+06
1.72555e+06
1.81184e+06
1.88113e+06
1.94573e+06
1.16132e+06
1.20536e+06
1.27921e+06
1.36343e+06
1.45874e+06
1.55497e+06
1.64693e+06
1.73308e+06
1.80251e+06
1.87032e+06
1.10375e+06
1.14733e+06
1.21867e+06
1.29907e+06
1.3901e+06
1.48248e+06
1.57118e+06
1.65597e+06
1.72477e+06
1.79392e+06
1.04814e+06
1.09115e+06
1.1602e+06
1.2371e+06
1.32408e+06
1.41265e+06
1.49799e+06
1.58074e+06
1.64841e+06
1.71739e+06
995143
1.03653e+06
1.10342e+06
1.177e+06
1.26005e+06
1.34474e+06
1.42658e+06
1.50674e+06
1.57298e+06
1.64095e+06
943652
983184
1.04782e+06
1.11808e+06
1.19725e+06
1.27798e+06
1.35626e+06
1.43347e+06
1.49805e+06
1.56442e+06
893760
931065
993115
1.05982e+06
1.13493e+06
1.21152e+06
1.28612e+06
1.3601e+06
1.42286e+06
1.48734e+06
845807
880858
939026
1.00159e+06
1.07223e+06
1.14438e+06
1.21511e+06
1.28566e+06
1.34649e+06
1.40895e+06
800467
832407
885316
942775
1.00822e+06
1.07546e+06
1.14208e+06
1.20903e+06
1.26789e+06
1.32834e+06
759100
786056
831544
882251
941382
1.0031e+06
1.06534e+06
1.12865e+06
1.18563e+06
1.24431e+06
723649
742058
777076
818833
870267
925770
983399
1.04312e+06
1.09851e+06
1.15582e+06
698021
701133
720212
748990
791125
839993
893230
949949
1.00452e+06
1.0614e+06
684789
659701
656609
670926
702174
744141
793664
848398
903431
961178
694407
612321
574464
571810
594543
632054
679856
734879
793119
854308
697712
525010
466088
449150
468277
505614
556509
615872
679736
747391
)
;

boundaryField
{
    left
    {
        type            calculated;
        value           nonuniform List<scalar> 
30
(
1.57245e+06
1.48655e+06
1.40909e+06
1.33801e+06
1.27136e+06
1.20875e+06
1.14901e+06
1.09187e+06
1.03705e+06
984946
934658
886335
840369
797528
759281
728204
709354
711421
760654
875479
6.0367e+06
4.12205e+06
3.27977e+06
2.80262e+06
2.48498e+06
2.24505e+06
2.05821e+06
1.90517e+06
1.77829e+06
1.66675e+06
)
;
    }
    right
    {
        type            calculated;
        value           nonuniform List<scalar> 
30
(
1.44736e+06
1.44707e+06
1.44981e+06
1.45689e+06
1.46758e+06
1.48123e+06
1.49671e+06
1.51294e+06
1.52881e+06
1.54323e+06
1.55517e+06
1.56412e+06
1.57021e+06
1.57354e+06
1.57354e+06
1.57045e+06
1.56476e+06
1.55649e+06
1.54614e+06
1.53418e+06
1.52116e+06
1.50766e+06
1.4943e+06
1.48168e+06
1.47039e+06
1.46094e+06
1.45383e+06
1.44924e+06
1.44743e+06
1.44756e+06
)
;
    }
    down
    {
        type            calculated;
        value           nonuniform List<scalar> 
30
(
7658.03
5660.99
65612.9
160750
270280
384724
496500
603064
701057
793450
876672
949197
1.01583e+06
1.07575e+06
1.1298e+06
1.17824e+06
1.22167e+06
1.26037e+06
1.29482e+06
1.32526e+06
1.352e+06
1.37523e+06
1.39511e+06
1.41175e+06
1.42519e+06
1.4355e+06
1.44266e+06
1.44693e+06
1.44829e+06
1.44781e+06
)
;
    }
    up
    {
        type            calculated;
        value           nonuniform List<scalar> 
30
(
676287
518907
464266
447546
466267
503096
553624
612789
676552
744269
810019
871217
931779
989952
1.0458e+06
1.09847e+06
1.14794e+06
1.19383e+06
1.23612e+06
1.27471e+06
1.3096e+06
1.34074e+06
1.36812e+06
1.39168e+06
1.4113e+06
1.42689e+06
1.43821e+06
1.44537e+06
1.44818e+06
1.44799e+06
)
;
    }
    hole
    {
        type            calculated;
        value           nonuniform List<scalar> 
20
(
2.5356e+06
2.85693e+06
3.25256e+06
3.72093e+06
4.20647e+06
4.54794e+06
4.89583e+06
5.21521e+06
4.93638e+06
4.78727e+06
3583.85
3513.6
50809.5
173621
364941
622900
938531
1.3029e+06
1.70361e+06
2.13064e+06
)
;
    }
    frontAndBack
    {
        type            empty;
    }
}


// ************************************************************************* //
