/*--------------------------------*- C++ -*----------------------------------*\
  =========                 |
  \\      /  F ield         | OpenFOAM: The Open Source CFD Toolbox
   \\    /   O peration     | Website:  https://openfoam.org
    \\  /    A nd           | Version:  9
     \\/     M anipulation  |
\*---------------------------------------------------------------------------*/
FoamFile
{
    format      ascii;
    class       volSymmTensorField;
    location    "15";
    object      sigma;
}
// * * * * * * * * * * * * * * * * * * * * * * * * * * * * * * * * * * * * * //

dimensions      [1 -1 -2 0 0 0 0];

internalField   nonuniform List<symmTensor> 
1000
(
(1.83898e+06 -1.26281e+06 -6.04409e-10 1.06984e+06 -8.8045e-10 249672)
(2.15624e+06 -974432 -3.91494e-10 581768 -6.07035e-10 205892)
(2.31862e+06 -747455 -2.32418e-10 356335 -4.17442e-10 187764)
(2.38825e+06 -576360 -1.20508e-10 175236 -2.77694e-10 170013)
(2.41464e+06 -437911 -3.32112e-11 70321.6 -1.71922e-10 159581)
(2.40561e+06 -329850 3.06859e-11 -8411.76 -9.22255e-11 150373)
(2.38219e+06 -241765 8.07898e-11 -59017.1 -3.0176e-11 143836)
(2.3453e+06 -171738 1.18053e-10 -95617.5 1.71948e-11 138202)
(2.30715e+06 -113463 1.48145e-10 -119676 5.52518e-11 133975)
(2.25629e+06 -64952.8 1.70329e-10 -142691 8.56651e-11 129115)
(2.32567e+06 -1.40661e+06 -6.22523e-10 1.08626e+06 -9.36324e-10 274071)
(2.54103e+06 -1.00775e+06 -3.55335e-10 610094 -5.99862e-10 228299)
(2.63061e+06 -719768 -1.68275e-10 407413 -3.78712e-10 210355)
(2.64078e+06 -513846 -4.30983e-11 235661 -2.22038e-10 191343)
(2.62131e+06 -355371 5.02031e-11 139001 -1.07847e-10 179980)
(2.57446e+06 -237271 1.14928e-10 63824.4 -2.51153e-11 169489)
(2.52017e+06 -144685 1.63393e-10 15547.3 3.70375e-11 161780)
(2.45772e+06 -74359.3 1.97073e-10 -22479.9 8.26141e-11 154689)
(2.39571e+06 -17280 2.22963e-10 -45645.2 1.17767e-10 149373)
(2.32698e+06 28384.4 2.40544e-10 -76955.4 1.45746e-10 142503)
(2.84656e+06 -1.49349e+06 -5.91107e-10 1.05181e+06 -9.45098e-10 293760)
(2.93674e+06 -1.00609e+06 -2.96097e-10 627271 -5.67377e-10 250282)
(2.93375e+06 -669609 -9.13134e-11 462680 -3.2636e-10 233363)
(2.87421e+06 -436802 4.10212e-11 312731 -1.60304e-10 214092)
(2.80235e+06 -264423 1.35717e-10 230290 -4.29776e-11 202164)
(2.71401e+06 -140710 1.98095e-10 162998 3.90588e-11 190712)
(2.62698e+06 -47331.8 2.42404e-10 119522 9.84229e-11 182006)
(2.53772e+06 20817.6 2.70832e-10 82128.7 1.40228e-10 173632)
(2.45384e+06 73878.7 2.91053e-10 59955.5 1.70767e-10 167299)
(2.3664e+06 116989 3.04181e-10 23719.5 1.96047e-10 158819)
(3.39998e+06 -1.52029e+06 -5.39439e-10 978354 -9.08459e-10 311974)
(3.33066e+06 -968932 -2.15105e-10 640524 -5.1113e-10 272160)
(3.22185e+06 -599844 -4.17644e-12 523799 -2.62993e-10 256657)
(3.08503e+06 -349942 1.28382e-10 405784 -9.58271e-11 237933)
(2.95572e+06 -171136 2.19184e-10 341579 1.88052e-11 225607)
(2.82346e+06 -46947.5 2.7573e-10 284809 9.62435e-11 213344)
(2.70244e+06 43235 3.13226e-10 246544 1.50031e-10 203579)
(2.58694e+06 106686 3.34925e-10 210173 1.86401e-10 193965)
(2.48192e+06 153536 3.48175e-10 187338 2.1113e-10 186407)
(2.37901e+06 191651 3.55863e-10 148466 2.32108e-10 176742)
(3.93946e+06 -1.4701e+06 -4.33293e-10 834175 -8.13233e-10 320771)
(3.70921e+06 -890685 -1.11053e-10 642844 -4.27772e-10 292417)
(3.48852e+06 -510650 9.19217e-11 584325 -1.88525e-10 279076)
(3.27009e+06 -255428 2.17055e-10 510204 -2.97715e-11 262078)
(3.07958e+06 -79997.6 2.97433e-10 468852 7.48435e-11 249634)
(2.90243e+06 38071.9 3.43967e-10 425273 1.42936e-10 236766)
(2.74764e+06 120031 3.71563e-10 392618 1.87798e-10 225936)
(2.60712e+06 175376 3.84588e-10 357232 2.16589e-10 215090)
(2.48312e+06 213498 3.89571e-10 332202 2.34202e-10 206178)
(2.36671e+06 244549 3.90817e-10 290689 2.49676e-10 195398)
(4.4596e+06 -1.35336e+06 -2.88044e-10 707403 -6.77661e-10 331798)
(4.07695e+06 -767012 1.95715e-11 639617 -3.1467e-10 312045)
(3.73459e+06 -397978 1.9997e-10 657306 -1.01712e-10 302418)
(3.42969e+06 -154096 3.06627e-10 628404 3.70587e-11 286845)
(3.17521e+06 5852.82 3.68698e-10 612237 1.23155e-10 274279)
(2.9531e+06 109307 3.99894e-10 580930 1.76388e-10 260567)
(2.76585e+06 177437 4.14249e-10 552450 2.08894e-10 248470)
(2.60248e+06 221080 4.16636e-10 516593 2.2808e-10 236261)
(2.46196e+06 248378 4.12356e-10 487411 2.37625e-10 225834)
(2.33449e+06 270672 4.0645e-10 442843 2.46732e-10 213983)
(4.93145e+06 -1.11469e+06 -7.36026e-11 591112 -4.66788e-10 343480)
(4.40833e+06 -590601 1.77906e-10 642532 -1.70491e-10 331394)
(3.94342e+06 -255522 3.21608e-10 747903 -3.83228e-13 326613)
(3.55081e+06 -47583.3 3.94253e-10 763126 1.02169e-10 311919)
(3.23495e+06 82153.5 4.29139e-10 769208 1.60568e-10 298773)
(2.97208e+06 160911 4.39215e-10 745914 1.93123e-10 283730)
(2.75714e+06 209471 4.37344e-10 717678 2.10335e-10 270013)
(2.57531e+06 238168 4.27637e-10 678433 2.18477e-10 256235)
(2.42224e+06 253403 4.13833e-10 642625 2.19754e-10 244152)
(2.28664e+06 266111 4.00663e-10 594033 2.22304e-10 231237)
(5.40964e+06 -814473 1.47072e-10 522494 -2.18996e-10 363275)
(4.7058e+06 -361422 3.65751e-10 704937 -1.14125e-12 357539)
(4.11382e+06 -85345 4.56167e-10 885719 1.10595e-10 355431)
(3.63425e+06 57123.3 4.76124e-10 930440 1.59162e-10 339337)
(3.26362e+06 140211 4.74142e-10 943440 1.81321e-10 323714)
(2.96742e+06 185144 4.58192e-10 916763 1.89104e-10 306099)
(2.73171e+06 210470 4.38601e-10 880442 1.90141e-10 289970)
(2.53719e+06 223268 4.16911e-10 832756 1.87677e-10 274238)
(2.37617e+06 227373 3.94756e-10 787289 1.82039e-10 260345)
(2.23574e+06 231423 3.75351e-10 733539 1.79054e-10 246398)
(5.74766e+06 -350159 2.39297e-10 449255 1.60691e-10 383490)
(4.92252e+06 -64491.5 5.87153e-10 884754 1.92675e-10 395902)
(4.19021e+06 83583 5.78131e-10 1.09481e+06 2.04629e-10 388834)
(3.63911e+06 129812 5.27618e-10 1.13657e+06 1.8391e-10 367452)
(3.23817e+06 154635 4.84235e-10 1.12405e+06 1.67945e-10 346183)
(2.92818e+06 163330 4.43118e-10 1.07567e+06 1.53113e-10 324548)
(2.68616e+06 167408 4.08859e-10 1.02022e+06 1.41777e-10 305316)
(2.48853e+06 167740 3.78587e-10 958904 1.3238e-10 287480)
(2.32582e+06 164921 3.51566e-10 901970 1.23343e-10 271912)
(2.18426e+06 163617 3.28516e-10 842903 1.17334e-10 257141)
(6.274e+06 358151 5.33481e-10 731074 6.60074e-10 461735)
(5.01398e+06 371916 8.84666e-10 1.34559e+06 4.35792e-10 466582)
(4.18474e+06 239183 6.83213e-10 1.42993e+06 2.68467e-10 434397)
(3.61654e+06 159761 5.49615e-10 1.38507e+06 1.73231e-10 399127)
(3.21277e+06 124219 4.66178e-10 1.29627e+06 1.25908e-10 366936)
(2.90438e+06 107582 4.08324e-10 1.20325e+06 9.96037e-11 339213)
(2.66375e+06 100878 3.66752e-10 1.11791e+06 8.46939e-11 316005)
(2.4671e+06 97713.5 3.34011e-10 1.04034e+06 7.49384e-11 296051)
(2.30456e+06 94813.8 3.06687e-10 973012 6.70571e-11 279136)
(2.16242e+06 93030.4 2.83172e-10 910876 6.10359e-11 263929)
(-8433.25 2922.95 -3.48958e-11 -4782.43 -1.77514e-11 1550.73)
(6876.98 -10641 -4.2094e-11 924.319 -2.69177e-11 3350.05)
(68181 -33308.4 -5.49518e-11 -3391.89 -4.18166e-11 8733.93)
(166141 -51434.2 -6.34523e-11 -6967.11 -5.35437e-11 17731.7)
(279914 -62598.4 -6.66682e-11 -8821.7 -6.0573e-11 28434.5)
(399265 -68946.2 -6.64618e-11 -9716.92 -6.43675e-11 39783.9)
(516163 -71419.9 -6.37604e-11 -9860.12 -6.55857e-11 50985.3)
(627834 -71581 -5.96993e-11 -9499.29 -6.52811e-11 61741.1)
(730228 -69665 -5.17595e-11 -9313.46 -6.14561e-11 70369.9)
(825675 -68201.8 -3.68754e-11 -7708.26 -5.26258e-11 75356.6)
(11219.2 -11476 -4.27096e-11 -646.746 -2.74296e-11 3641.11)
(90217.1 -61703.7 -6.58488e-11 37940.5 -6.16487e-11 13776.2)
(204817 -117049 -9.66526e-11 39562.2 -9.84081e-11 24477)
(326307 -159316 -1.20974e-10 27564.2 -1.26081e-10 34905)
(448438 -185286 -1.34807e-10 16076.3 -1.42821e-10 45561.2)
(564481 -199825 -1.41413e-10 5664.27 -1.51931e-10 55803.8)
(672125 -205035 -1.42016e-10 -2374.12 -1.54859e-10 65493.4)
(771767 -204710 -1.2979e-10 -8030.49 -1.47339e-10 70729.9)
(859664 -199085 -1.13588e-10 -12882.4 -1.35653e-10 74556.7)
(943032 -194599 -9.8638e-11 -13319 -1.25609e-10 78717.3)
(34621 -56108.1 -6.42877e-11 38201 -5.81063e-11 8498.15)
(172760 -153839 -1.1476e-10 81733.7 -1.24097e-10 24320.1)
(330885 -222329 -1.53525e-10 75685.5 -1.6936e-10 38515.6)
(476026 -268197 -1.81958e-10 46298.9 -1.99004e-10 49863.7)
(609605 -293446 -1.97334e-10 19133.7 -2.14894e-10 60431.6)
(727271 -305337 -1.98875e-10 -4502.41 -2.17991e-10 67572.8)
(830662 -306848 -1.85204e-10 -22345.5 -2.08221e-10 70379.7)
(922815 -302004 -1.69082e-10 -35254.8 -1.95765e-10 73357.8)
(999873 -291351 -1.5146e-10 -45015.3 -1.81107e-10 76074.7)
(1.07446e+06 -282393 -1.3507e-10 -47843.2 -1.68573e-10 79548.2)
(82962.7 -126019 -9.32945e-11 127271 -1.06695e-10 19378)
(284373 -264178 -1.72219e-10 138354 -1.98922e-10 38491.1)
(478380 -336132 -2.14582e-10 114768 -2.46014e-10 54771.6)
(643977 -376472 -2.41573e-10 67057.1 -2.71493e-10 66733)
(787268 -393207 -2.44064e-10 25211.6 -2.74413e-10 73213.6)
(906630 -396400 -2.296e-10 -10991.3 -2.62296e-10 74400.6)
(1.00634e+06 -389713 -2.11628e-10 -38849.3 -2.46268e-10 75832.7)
(1.09184e+06 -377266 -1.91945e-10 -59458.9 -2.28465e-10 77581.7)
(1.15878e+06 -359925 -1.7179e-10 -75035.2 -2.09571e-10 79129.3)
(1.22545e+06 -345270 -1.53096e-10 -81276.2 -1.93548e-10 81842.9)
(165404 -224715 -1.33027e-10 257527 -1.75329e-10 36445)
(434063 -384213 -2.33587e-10 200607 -2.80229e-10 56673.6)
(657976 -448827 -2.75083e-10 145250 -3.21627e-10 73465.6)
(837709 -475738 -2.86808e-10 74203.7 -3.30328e-10 80964.7)
(985071 -477617 -2.67999e-10 17035.8 -3.12572e-10 80833.4)
(1.10204e+06 -467166 -2.457e-10 -30983.3 -2.90284e-10 80551)
(1.19535e+06 -448792 -2.21607e-10 -67345.3 -2.66095e-10 80718.5)
(1.27242e+06 -426254 -1.97036e-10 -94193.1 -2.41617e-10 81374.5)
(1.32836e+06 -400897 -1.7361e-10 -114227 -2.17841e-10 81904.7)
(1.38645e+06 -379338 -1.51933e-10 -122842 -1.97707e-10 83977)
(292786 -354374 -1.86026e-10 418919 -2.65222e-10 59958.3)
(626715 -505829 -2.93238e-10 270253 -3.62588e-10 79534.6)
(874418 -550147 -3.25133e-10 174247 -3.87902e-10 94797)
(1.06121e+06 -556841 -3.04623e-10 77601.1 -3.65466e-10 91419.3)
(1.20633e+06 -539768 -2.74726e-10 5755.44 -3.33689e-10 89527.3)
(1.31578e+06 -513280 -2.43806e-10 -52418.8 -3.0027e-10 87769.6)
(1.3989e+06 -481752 -2.13188e-10 -95614.8 -2.67463e-10 86721.5)
(1.46453e+06 -448247 -1.83582e-10 -127203 -2.36157e-10 86342.1)
(1.50761e+06 -414641 -1.56988e-10 -150720 -2.07615e-10 85891.7)
(1.55527e+06 -385828 -1.32355e-10 -160899 -1.83386e-10 87341.3)
(473898 -513509 -2.53962e-10 592409 -3.74953e-10 89324.4)
(861645 -624183 -3.48873e-10 342379 -4.42649e-10 106672)
(1.12388e+06 -634208 -3.4035e-10 202078 -4.25615e-10 109689)
(1.30921e+06 -613707 -3.03829e-10 78532 -3.82239e-10 103111)
(1.44513e+06 -574562 -2.61889e-10 -6930.85 -3.35087e-10 99292.4)
(1.5414e+06 -530737 -2.22323e-10 -73741 -2.90331e-10 95993.5)
(1.61014e+06 -485697 -1.85521e-10 -121961 -2.49229e-10 93761.8)
(1.66083e+06 -441397 -1.51457e-10 -156826 -2.11674e-10 92360.8)
(1.68912e+06 -400095 -1.22285e-10 -182506 -1.79044e-10 90998.5)
(1.72385e+06 -364257 -9.51876e-11 -193615 -1.51157e-10 91780.4)
(716975 -696280 -3.35517e-10 760499 -5.00207e-10 124048)
(1.13688e+06 -734700 -3.95386e-10 414340 -5.15324e-10 136600)
(1.4007e+06 -696967 -3.38218e-10 233067 -4.47307e-10 126652)
(1.57465e+06 -643208 -2.83299e-10 84879.9 -3.80082e-10 116758)
(1.6942e+06 -579836 -2.28962e-10 -12020.3 -3.16987e-10 110970)
(1.77177e+06 -518446 -1.81363e-10 -85600.3 -2.61421e-10 106101)
(1.82216e+06 -460571 -1.39338e-10 -137379 -2.12976e-10 102670)
(1.85474e+06 -406668 -1.01987e-10 -174152 -1.70384e-10 100250)
(1.86659e+06 -358993 -7.12932e-11 -201717 -1.34711e-10 97912.2)
(1.88591e+06 -317044 -4.2643e-11 -212989 -1.04067e-10 97989)
(1.0263e+06 -891657 -4.2636e-10 904700 -6.33184e-10 163218)
(1.44819e+06 -832857 -4.09322e-10 481021 -5.61603e-10 159441)
(1.69723e+06 -736693 -3.18749e-10 268382 -4.52616e-10 145480)
(1.84852e+06 -645146 -2.44116e-10 100671 -3.60085e-10 132439)
(1.9444e+06 -556350 -1.77603e-10 -4015.75 -2.8129e-10 124810)
(1.99786e+06 -478012 -1.23088e-10 -82220.7 -2.16027e-10 118372)
(2.02641e+06 -408543 -7.70708e-11 -135572 -1.61582e-10 113808)
(2.03759e+06 -347009 -3.81275e-11 -173808 -1.15582e-10 110238)
(2.03232e+06 -294549 -6.96756e-12 -201935 -7.81276e-11 107040)
(2.03303e+06 -247624 2.19812e-11 -216452 -4.53905e-11 105836)
(1.40254e+06 -1.0864e+06 -5.20018e-10 1.01213e+06 -7.64724e-10 206023)
(1.79025e+06 -914366 -4.08629e-10 539038 -5.93291e-10 182917)
(2.00548e+06 -753350 -2.83028e-10 309983 -4.42413e-10 166034)
(2.12195e+06 -621705 -1.88815e-10 130443 -3.24963e-10 150273)
(2.18646e+06 -507459 -1.11109e-10 22615.6 -2.31635e-10 141025)
(2.21064e+06 -413307 -5.10636e-11 -57334.5 -1.5819e-10 133120)
(2.21382e+06 -333945 -2.58791e-12 -110785 -9.93348e-11 127416)
(2.20149e+06 -266966 3.63385e-11 -148215 -5.18118e-11 122855)
(2.17904e+06 -212594 6.61197e-11 -178658 -1.42766e-11 118525)
(2.15846e+06 -165404 9.22245e-11 -189464 1.64136e-11 116747)
(911033 -63278.6 -2.13516e-11 -7701.25 -4.21761e-11 79680.3)
(986157 -56464.4 -6.09753e-12 -5990.44 -3.15355e-11 83742.3)
(1.05501e+06 -50541.9 7.67323e-12 -4771.12 -2.19562e-11 87415.5)
(1.11685e+06 -45164.2 2.00723e-11 -3867.19 -1.32925e-11 90690)
(1.17267e+06 -40177.9 3.13479e-11 -2974.25 -5.39385e-12 93657.7)
(1.22262e+06 -35712.6 4.14375e-11 -2321.13 1.69378e-12 96294.7)
(1.26742e+06 -31617.8 5.05428e-11 -1697.01 8.10511e-12 98665.8)
(1.30732e+06 -27924.4 5.86789e-11 -1216.18 1.38546e-11 100768)
(1.34282e+06 -24537.6 6.59809e-11 -790.473 1.90369e-11 102640)
(1.37418e+06 -21435.2 7.24995e-11 -458.792 2.36932e-11 104290)
(1.40171e+06 -18549 7.83231e-11 -188.435 2.78911e-11 105737)
(1.42562e+06 -15837.6 8.35064e-11 9.44799 3.16758e-11 106992)
(1.44607e+06 -13248.4 8.81072e-11 143.777 3.50955e-11 108065)
(1.46316e+06 -10742.7 9.21637e-11 212.322 3.81844e-11 108961)
(1.47695e+06 -8289.11 9.57044e-11 213.649 4.0968e-11 109682)
(1.4875e+06 -5884.57 9.87421e-11 158.431 4.34536e-11 110235)
(1.4948e+06 -3563.42 1.01249e-10 43.9594 4.56156e-11 110616)
(1.49915e+06 -1457.96 1.03193e-10 -43.0093 4.73837e-11 110850)
(1.50056e+06 154.648 1.04404e-10 -33.5585 4.85668e-11 110944)
(1.50042e+06 532.842 1.0464e-10 777.406 4.87116e-11 111048)
(1.01014e+06 -181215 -8.06091e-11 -17187.9 -1.10661e-10 81744.2)
(1.06553e+06 -163111 -6.12373e-11 -16760.8 -9.40774e-11 84811.9)
(1.11891e+06 -147167 -4.34759e-11 -15345.6 -7.92028e-11 87878.8)
(1.16656e+06 -132288 -2.72341e-11 -14624 -6.54362e-11 90554.6)
(1.21074e+06 -118347 -1.20665e-11 -13270.6 -5.26546e-11 93126.6)
(1.25047e+06 -105748 1.60513e-12 -12379.8 -4.10811e-11 95398.3)
(1.28677e+06 -94085 1.41964e-11 -11304.8 -3.04372e-11 97509.7)
(1.31939e+06 -83492.8 2.55763e-11 -10491.1 -2.07814e-11 99388.5)
(1.34884e+06 -73719.2 3.59844e-11 -9706.25 -1.19296e-11 101095)
(1.37516e+06 -64726.3 4.54426e-11 -9099.65 -3.83793e-12 102610)
(1.39862e+06 -56342.3 5.4104e-11 -8593.34 3.62255e-12 103963)
(1.41933e+06 -48470.6 6.20398e-11 -8224.6 1.05281e-11 105152)
(1.43746e+06 -40981.7 6.93578e-11 -7955.83 1.69742e-11 106195)
(1.4531e+06 -33786.1 7.61287e-11 -7765.54 2.30264e-11 107099)
(1.46635e+06 -26813.2 8.24106e-11 -7600.16 2.87324e-11 107878)
(1.47733e+06 -20061.4 8.82257e-11 -7346.58 3.40908e-11 108553)
(1.48604e+06 -13611.2 9.3528e-11 -6857.36 3.9031e-11 109140)
(1.49275e+06 -7744.54 9.81902e-11 -5753.32 4.3346e-11 109700)
(1.49716e+06 -2885.48 1.0192e-10 -3541.77 4.66749e-11 110275)
(1.5e+06 -308.674 1.04063e-10 1070.33 4.80867e-11 111054)
(1.12525e+06 -262323 -1.15292e-10 -52966.6 -1.50439e-10 81691.1)
(1.16057e+06 -237643 -9.47289e-11 -51697.4 -1.31298e-10 83960.2)
(1.19858e+06 -215508 -7.52689e-11 -47049.4 -1.14001e-10 86768)
(1.23145e+06 -194955 -5.75876e-11 -44008.4 -9.79977e-11 89088.2)
(1.26356e+06 -175377 -4.05884e-11 -39669.1 -8.28512e-11 91526.5)
(1.29241e+06 -157603 -2.52174e-11 -36328.5 -6.90578e-11 93646.8)
(1.31962e+06 -140974 -1.07932e-11 -32795.5 -5.61814e-11 95694.4)
(1.3443e+06 -125780 2.35058e-12 -29891.5 -4.43946e-11 97514)
(1.3671e+06 -111674 1.45369e-11 -27224.4 -3.34573e-11 99194.1)
(1.38776e+06 -98650.5 2.57235e-11 -25045.5 -2.33596e-11 100689)
(1.40657e+06 -86495.1 3.60894e-11 -23225.7 -1.39504e-11 102033)
(1.4235e+06 -75103.5 4.56943e-11 -21815 -5.15738e-12 103219)
(1.43869e+06 -64319.6 5.4658e-11 -20740.6 3.12612e-12 104266)
(1.45221e+06 -54035 6.30591e-11 -19945.3 1.0971e-11 105186)
(1.46413e+06 -44154 7.09702e-11 -19304.3 1.84311e-11 106001)
(1.47454e+06 -34641 7.84357e-11 -18590 2.55135e-11 106746)
(1.48338e+06 -25518.9 8.54381e-11 -17474 3.21585e-11 107458)
(1.49083e+06 -16932.9 9.19324e-11 -15292.2 3.82094e-11 108233)
(1.49623e+06 -9146.93 9.76824e-11 -11107.1 4.33286e-11 109156)
(1.50021e+06 -2514.1 1.02604e-10 -3283.68 4.71477e-11 110466)
(1.25997e+06 -319576 -1.32237e-10 -88170 -1.72866e-10 83022)
(1.2739e+06 -291300 -1.12568e-10 -87383 -1.53097e-10 84212.2)
(1.29597e+06 -265231 -9.29174e-11 -80261.3 -1.34828e-10 86602.6)
(1.31289e+06 -241447 -7.55178e-11 -75954 -1.18181e-10 88337.8)
(1.332e+06 -218300 -5.81286e-11 -69203.2 -1.0205e-10 90491.8)
(1.34881e+06 -197287 -4.24446e-11 -63929.8 -8.73528e-11 92309)
(1.36589e+06 -177382 -2.74006e-11 -58241.8 -7.34136e-11 94178.2)
(1.38157e+06 -159109 -1.36011e-11 -53447.1 -6.05678e-11 95838.6)
(1.39673e+06 -142028 -6.2792e-13 -48986.1 -4.85146e-11 97413.4)
(1.41081e+06 -126198 1.1387e-11 -45240.1 -3.72983e-11 98823.1)
(1.42408e+06 -111387 2.26357e-11 -42042.7 -2.67596e-11 100107)
(1.43637e+06 -97499.9 3.31498e-11 -39467.7 -1.68422e-11 101249)
(1.44779e+06 -84371.4 4.30496e-11 -37419.9 -7.43946e-12 102267)
(1.45832e+06 -71880.5 5.24095e-11 -35821.5 1.51834e-12 103174)
(1.46795e+06 -59905.7 6.13101e-11 -34505.3 1.00922e-11 103992)
(1.47674e+06 -48356.1 6.98228e-11 -33185.4 1.83134e-11 104762)
(1.48449e+06 -37172.6 7.79661e-11 -31461.3 2.61586e-11 105529)
(1.49133e+06 -26283.3 8.58254e-11 -28583.8 3.36007e-11 106396)
(1.49633e+06 -15781.9 9.32306e-11 -23585.1 4.03872e-11 107443)
(1.5003e+06 -4909.55 1.0082e-10 -14722.9 4.68875e-11 108947)
(1.40464e+06 -349260 -1.30735e-10 -130084 -1.75465e-10 84357.9)
(1.39632e+06 -320860 -1.14253e-10 -129943 -1.57416e-10 84356.5)
(1.40274e+06 -293173 -9.57886e-11 -119440 -1.39787e-10 86429.9)
(1.40333e+06 -268786 -8.03564e-11 -113680 -1.24284e-10 87549.3)
(1.4094e+06 -244290 -6.39534e-11 -104038 -1.08693e-10 89448.8)
(1.41385e+06 -222148 -4.93078e-11 -96414.5 -9.4563e-11 90971.7)
(1.4205e+06 -200853 -3.48488e-11 -88116.3 -8.08841e-11 92681)
(1.42679e+06 -181199 -2.14962e-11 -80956.7 -6.81894e-11 94200.7)
(1.43389e+06 -162676 -8.74246e-12 -74251.6 -5.61216e-11 95685.6)
(1.44089e+06 -145416 3.18425e-12 -68503.4 -4.47868e-11 97023.4)
(1.44808e+06 -129200 1.4468e-11 -63540.6 -3.40357e-11 98254.2)
(1.45516e+06 -113957 2.51064e-11 -59462.1 -2.38345e-11 99350.6)
(1.46217e+06 -99528.6 3.52054e-11 -56171.3 -1.40874e-11 100329)
(1.46901e+06 -85782.1 4.48352e-11 -53584.6 -4.72477e-12 101198)
(1.4756e+06 -72570.8 5.40834e-11 -51520.7 4.32442e-12 101980)
(1.48194e+06 -59731.1 6.30558e-11 -49679.3 1.31315e-11 102714)
(1.48775e+06 -47115.4 7.18166e-11 -47652.1 2.17249e-11 103443)
(1.49311e+06 -34411 8.05917e-11 -44713.4 3.02341e-11 104270)
(1.49702e+06 -21607.8 8.92635e-11 -40002.6 3.84825e-11 105257)
(1.50033e+06 -7017.02 9.90526e-11 -31878.5 4.74692e-11 106683)
(1.55676e+06 -352906 -1.1182e-10 -168068 -1.60681e-10 86939.2)
(1.52523e+06 -328041 -1.00992e-10 -170300 -1.46653e-10 85422.4)
(1.51633e+06 -300955 -8.50587e-11 -156865 -1.31049e-10 87106.2)
(1.50027e+06 -278366 -7.31592e-11 -150459 -1.18213e-10 87454.7)
(1.49327e+06 -254515 -5.90047e-11 -138571 -1.04408e-10 88986.7)
(1.48516e+06 -233039 -4.65558e-11 -129059 -9.19942e-11 90120.8)
(1.48117e+06 -212005 -3.3756e-11 -118600 -7.96337e-11 91577)
(1.4778e+06 -192429 -2.18062e-11 -109350 -6.80456e-11 92886.7)
(1.47647e+06 -173809 -1.0167e-11 -100604 -5.68588e-11 94219)
(1.47601e+06 -156321 8.64762e-13 -92935.1 -4.62227e-11 95438.8)
(1.47669e+06 -139794 1.14384e-11 -86216.9 -3.60169e-11 96577.9)
(1.47809e+06 -124175 2.15221e-11 -80583.4 -2.62261e-11 97598.7)
(1.48017e+06 -109332 3.11954e-11 -75973.2 -1.67721e-11 98509.5)
(1.48275e+06 -95127.4 4.05189e-11 -72333.7 -7.58595e-12 99310.2)
(1.48573e+06 -81400.9 4.95792e-11 -69516.7 1.41161e-12 100016)
(1.48899e+06 -67926 5.85104e-11 -67270.6 1.0333e-11 100659)
(1.49227e+06 -54486.7 6.74136e-11 -65250.8 1.92576e-11 101272)
(1.49555e+06 -40564.2 7.663e-11 -62864.9 2.84605e-11 101941)
(1.498e+06 -26089.5 8.60949e-11 -59446.5 3.78384e-11 102709)
(1.50026e+06 -8659.29 9.74386e-11 -53629.6 4.88782e-11 103822)
(1.7091e+06 -330506 -7.64824e-11 -199897 -1.29375e-10 90695.8)
(1.65444e+06 -313134 -7.38149e-11 -206542 -1.21741e-10 87347.1)
(1.63133e+06 -288963 -6.17237e-11 -191312 -1.09468e-10 88516)
(1.59911e+06 -270451 -5.4725e-11 -184986 -1.00679e-10 87991.8)
(1.57948e+06 -249376 -4.41089e-11 -171765 -8.99281e-11 89029)
(1.55924e+06 -230281 -3.48699e-11 -160637 -8.02956e-11 89736)
(1.54472e+06 -211120 -2.47234e-11 -148322 -7.02736e-11 90883.8)
(1.53186e+06 -192947 -1.49791e-11 -137047 -6.0646e-11 91964.5)
(1.52208e+06 -175427 -5.20512e-12 -126325 -5.11252e-11 93118.3)
(1.51412e+06 -158752 4.27624e-12 -116750 -4.18785e-11 94201.1)
(1.50813e+06 -142857 1.35288e-11 -108297 -3.28521e-11 95225)
(1.50362e+06 -127718 2.24938e-11 -101129 -2.40518e-11 96144.8)
(1.50049e+06 -113245 3.12091e-11 -95238.8 -1.54299e-11 96957.4)
(1.49849e+06 -99310.8 3.97215e-11 -90616 -6.92175e-12 97653.9)
(1.49746e+06 -85751.4 4.81099e-11 -87168.7 1.55519e-12 98240.4)
(1.49725e+06 -72296.3 5.65262e-11 -84729 1.01481e-11 98734.8)
(1.49761e+06 -58683.6 6.51032e-11 -83054.4 1.89812e-11 99160.2)
(1.49843e+06 -44241.4 7.42551e-11 -81754.9 2.84449e-11 99571.5)
(1.4992e+06 -28875.5 8.39757e-11 -80381.8 3.85054e-11 100002)
(1.50013e+06 -9714.89 9.61109e-11 -78019.9 5.09737e-11 100623)
(1.85554e+06 -283719 -2.64945e-11 -219693 -8.38356e-11 96064.9)
(1.77933e+06 -277697 -3.42137e-11 -232774 -8.47784e-11 90646)
(1.74335e+06 -258943 -2.74001e-11 -218500 -7.70599e-11 90973.6)
(1.69648e+06 -246040 -2.60511e-11 -212811 -7.31399e-11 89558.1)
(1.66473e+06 -229643 -2.01314e-11 -200126 -6.64399e-11 89856.7)
(1.63336e+06 -214265 -1.48197e-11 -188501 -6.02597e-11 90021.8)
(1.60866e+06 -198455 -8.23066e-12 -175574 -5.33811e-11 90695.2)
(1.58673e+06 -182975 -1.45498e-12 -163128 -4.64314e-11 91439.3)
(1.56867e+06 -167765 5.70664e-12 -151048 -3.92923e-11 92324.8)
(1.55332e+06 -152976 1.29758e-11 -139917 -3.20938e-11 93215.8)
(1.54066e+06 -138659 2.03154e-11 -129886 -2.48532e-11 94091.2)
(1.53021e+06 -124828 2.76382e-11 -121203 -1.7593e-11 94894.2)
(1.52177e+06 -111456 3.49292e-11 -113970 -1.03002e-11 95601.8)
(1.51505e+06 -98447.8 4.22048e-11 -108276 -2.92493e-12 96189.8)
(1.50986e+06 -85661.4 4.95233e-11 -104130 4.61019e-12 96649.4)
(1.50599e+06 -72817 5.70296e-11 -101498 1.24685e-11 96977.8)
(1.50326e+06 -59637 6.48749e-11 -100279 2.08078e-11 97184.1)
(1.50144e+06 -45366.8 7.34977e-11 -100341 3.00916e-11 97283.8)
(1.50046e+06 -29909.1 8.29537e-11 -101459 4.0352e-11 97304.2)
(1.49993e+06 -10155.9 9.51326e-11 -103303 5.35721e-11 97312.2)
(1.99111e+06 -217071 3.4706e-11 -223590 -2.79149e-11 103241)
(1.89561e+06 -224482 1.56047e-11 -244071 -3.85107e-11 95709.2)
(1.84772e+06 -215006 1.47019e-11 -237200 -3.7077e-11 94349.3)
(1.78905e+06 -208813 1.01079e-11 -233096 -3.84026e-11 92046.2)
(1.74571e+06 -199052 1.01483e-11 -222397 -3.68376e-11 91415.7)
(1.70474e+06 -188310 1.11773e-11 -210566 -3.45534e-11 91065)
(1.67064e+06 -176617 1.38392e-11 -197289 -3.1228e-11 91258.2)
(1.64053e+06 -164410 1.74043e-11 -183974 -2.72313e-11 91662.2)
(1.61479e+06 -152027 2.17112e-11 -170920 -2.27192e-11 92252.9)
(1.59253e+06 -139653 2.64969e-11 -158705 -1.78237e-11 92907.3)
(1.57352e+06 -127447 3.16235e-11 -147586 -1.26385e-11 93578.5)
(1.55731e+06 -115476 3.69741e-11 -137867 -7.21241e-12 94203.4)
(1.54363e+06 -103761 4.24936e-11 -129726 -1.55991e-12 94745.4)
(1.53218e+06 -92239.1 4.81704e-11 -123339 4.35372e-12 95167.3)
(1.52277e+06 -80796.1 5.40458e-11 -118816 1.06016e-11 95446.6)
(1.51512e+06 -69162.7 6.02451e-11 -116271 1.73518e-11 95558.9)
(1.50921e+06 -57066.7 6.693e-11 -115758 2.4787e-11 95499)
(1.50463e+06 -43736.2 7.45216e-11 -117435 3.34025e-11 95237.6)
(1.50185e+06 -29071.2 8.31479e-11 -121306 4.33036e-11 94798.4)
(1.49975e+06 -9946.09 9.45842e-11 -127725 5.65024e-11 94123.1)
(2.10406e+06 -131500 1.04706e-10 -215726 3.725e-11 111085)
(2.00703e+06 -147866 7.99091e-11 -232220 2.01494e-11 103872)
(1.94567e+06 -151651 6.83998e-11 -239567 1.3319e-11 99803.6)
(1.88036e+06 -153126 5.79154e-11 -240892 6.9904e-12 96355.5)
(1.8255e+06 -152298 5.05385e-11 -236670 2.42692e-12 94183)
(1.77549e+06 -148784 4.5648e-11 -228420 -4.1706e-13 92814.1)
(1.73188e+06 -143404 4.29345e-11 -217220 -1.82626e-12 92175.1)
(1.6934e+06 -136465 4.19805e-11 -204538 -1.94287e-12 92006.2)
(1.65992e+06 -128447 4.2445e-11 -191185 -1.0029e-12 92189)
(1.63074e+06 -119709 4.39802e-11 -178040 7.99148e-13 92569)
(1.60548e+06 -110540 4.63373e-11 -165646 3.30388e-12 93052.8)
(1.58366e+06 -101145 4.93026e-11 -154513 6.39236e-12 93546.7)
(1.56493e+06 -91648.4 5.274e-11 -144997 9.99529e-12 93985.4)
(1.54893e+06 -82077.8 5.65689e-11 -137431 1.41006e-11 94307)
(1.53544e+06 -72386.4 6.078e-11 -132069 1.87507e-11 94468)
(1.52413e+06 -62365.7 6.54477e-11 -129209 2.40897e-11 94416.1)
(1.51506e+06 -51784.4 7.07198e-11 -129082 3.0303e-11 94128)
(1.50772e+06 -39927.8 7.69524e-11 -132160 3.78727e-11 93525.8)
(1.50313e+06 -26707.6 8.43429e-11 -138698 4.69728e-11 92628.7)
(1.49948e+06 -9183.42 9.44316e-11 -149741 5.95142e-11 91251.2)
(2.16821e+06 -60857.8 1.58708e-10 -191980 8.66098e-11 118359)
(2.07887e+06 -69531 1.39808e-10 -209174 7.53217e-11 111545)
(2.00861e+06 -85722.1 1.19021e-10 -225936 6.06256e-11 105634)
(1.94119e+06 -93346.8 1.04239e-10 -233164 5.07332e-11 101226)
(1.88154e+06 -98711 9.21869e-11 -233350 4.21804e-11 98153.5)
(1.82692e+06 -101096 8.28474e-11 -228940 3.54916e-11 95972.7)
(1.77837e+06 -101136 7.59588e-11 -220636 3.04171e-11 94634.5)
(1.73483e+06 -99240.1 7.10669e-11 -210128 2.67912e-11 93860.4)
(1.69634e+06 -95779.2 6.79221e-11 -198277 2.44705e-11 93534.4)
(1.66228e+06 -91142.6 6.61652e-11 -186088 2.32613e-11 93489.8)
(1.63238e+06 -85632.2 6.555e-11 -174229 2.30178e-11 93621.2)
(1.60617e+06 -79502.1 6.58347e-11 -163332 2.36062e-11 93820.2)
(1.58336e+06 -72926 6.68553e-11 -153881 2.49421e-11 94006.5)
(1.56358e+06 -65994.5 6.84885e-11 -146333 2.69872e-11 94100.8)
(1.54666e+06 -58720.8 7.06896e-11 -141079 2.97626e-11 94043.1)
(1.53223e+06 -50978.7 7.34738e-11 -138580 3.33748e-11 93757.3)
(1.52049e+06 -42604.5 7.696e-11 -139238 3.79946e-11 93202.8)
(1.51079e+06 -33041.7 8.13786e-11 -143792 4.40184e-11 92258.5)
(1.50456e+06 -22230.2 8.69672e-11 -152732 5.16658e-11 90933.7)
(1.49941e+06 -7669.7 9.48847e-11 -167752 6.25796e-11 88922.1)
(2.13558e+06 8639.84 1.97948e-10 -165460 1.26734e-10 121155)
(2.0654e+06 -1396.89 1.80493e-10 -201435 1.1832e-10 112829)
(2.00081e+06 -21205.9 1.58263e-10 -218803 1.0178e-10 107071)
(1.93954e+06 -34176.1 1.4098e-10 -228586 8.91675e-11 102562)
(1.88428e+06 -44389.2 1.26502e-10 -230521 7.79824e-11 99414.1)
(1.83295e+06 -51621.5 1.1458e-10 -227722 6.85529e-11 97119.7)
(1.78658e+06 -56289.9 1.05088e-10 -220893 6.07737e-11 95633.8)
(1.7443e+06 -58812.8 9.75904e-11 -211681 5.44818e-11 94691.7)
(1.70629e+06 -59523.7 9.18876e-11 -200932 4.95717e-11 94188)
(1.6721e+06 -58790.9 8.76559e-11 -189654 4.58769e-11 93964)
(1.6416e+06 -56906.9 8.46759e-11 -178531 4.3272e-11 93919.8)
(1.61448e+06 -54131.1 8.27213e-11 -168232 4.16349e-11 93948.6)
(1.59053e+06 -50651.7 8.16326e-11 -159282 4.08861e-11 93969.5)
(1.56947e+06 -46595.3 8.12761e-11 -152202 4.09776e-11 93899.2)
(1.55122e+06 -42009.9 8.1596e-11 -147447 4.19221e-11 93673)
(1.53548e+06 -36855.5 8.25591e-11 -145575 4.37854e-11 93203.9)
(1.52254e+06 -31017.7 8.42679e-11 -147087 4.67263e-11 92443.3)
(1.51175e+06 -24147.8 8.68172e-11 -152870 5.10202e-11 91247)
(1.50487e+06 -16256.6 9.04422e-11 -163610 5.68892e-11 89614.2)
(1.49914e+06 -5597.65 9.57758e-11 -181250 6.54778e-11 87178.5)
(2.11096e+06 78347.2 2.38618e-10 -134033 1.67108e-10 124992)
(2.04628e+06 62458.5 2.18166e-10 -175831 1.5596e-10 116101)
(1.99156e+06 39064.6 1.95031e-10 -197372 1.38364e-10 110241)
(1.93509e+06 21780.2 1.75641e-10 -211659 1.23823e-10 105325)
(1.88424e+06 7474.78 1.59156e-10 -217414 1.10744e-10 101841)
(1.83559e+06 -3907.14 1.44947e-10 -218047 9.91932e-11 99175.4)
(1.79118e+06 -12598.3 1.33157e-10 -214100 8.92519e-11 97355.7)
(1.75001e+06 -19051.4 1.23311e-10 -207316 8.07368e-11 96098.2)
(1.71259e+06 -23529 1.15294e-10 -198540 7.36135e-11 95314.2)
(1.67851e+06 -26381.1 1.08803e-10 -188843 6.77405e-11 94839.6)
(1.64778e+06 -27874.4 1.03652e-10 -178962 6.30273e-11 94575.3)
(1.62016e+06 -28265.9 9.96264e-11 -169634 5.93676e-11 94408.9)
(1.59554e+06 -27753.8 9.65698e-11 -161455 5.66894e-11 94254.4)
(1.57369e+06 -26492.8 9.43391e-11 -155019 5.49407e-11 94021.7)
(1.55458e+06 -24573.5 9.28563e-11 -150871 5.41206e-11 93636.4)
(1.53797e+06 -22037.5 9.20458e-11 -149639 5.42547e-11 93004.7)
(1.52422e+06 -18829.1 9.19759e-11 -151966 5.54829e-11 92060.8)
(1.5127e+06 -14858.6 9.25863e-11 -158734 5.7913e-11 90659.5)
(1.50539e+06 -10087.6 9.41723e-11 -170724 6.1828e-11 88799.3)
(1.49909e+06 -3482.17 9.68434e-11 -190345 6.79167e-11 86019.9)
(2.06737e+06 132407 2.66638e-10 -107631 1.96121e-10 127012)
(2.01132e+06 116142 2.47084e-10 -154164 1.85996e-10 117928)
(1.96582e+06 91635.5 2.24532e-10 -178325 1.68742e-10 112171)
(1.91565e+06 72302.5 2.04706e-10 -195596 1.53723e-10 107151)
(1.87042e+06 55313.1 1.87297e-10 -203981 1.39646e-10 103568)
(1.82593e+06 40959.8 1.71781e-10 -207058 1.26764e-10 100750)
(1.78488e+06 29102.3 1.58451e-10 -205311 1.15267e-10 98767.2)
(1.74622e+06 19422.9 1.46906e-10 -200491 1.05056e-10 97333.3)
(1.71065e+06 11725.5 1.3711e-10 -193431 9.61593e-11 96373.9)
(1.67787e+06 5723.06 1.28806e-10 -185211 8.84842e-11 95727.8)
(1.64802e+06 1185.26 1.21853e-10 -176582 8.19763e-11 95301.1)
(1.62091e+06 -2124.14 1.16056e-10 -168307 7.65526e-11 94982.4)
(1.59653e+06 -4400.12 1.11274e-10 -161010 7.21537e-11 94686.5)