/*--------------------------------*- C++ -*----------------------------------*\
  =========                 |
  \\      /  F ield         | OpenFOAM: The Open Source CFD Toolbox
   \\    /   O peration     | Website:  https://openfoam.org
    \\  /    A nd           | Version:  9
     \\/     M anipulation  |
\*---------------------------------------------------------------------------*/
FoamFile
{
    format      ascii;
    class       volVectorField;
    location    "5";
    object      D;
}
// * * * * * * * * * * * * * * * * * * * * * * * * * * * * * * * * * * * * * //

dimensions      [0 1 0 0 0 0 0];

internalField   nonuniform List<vector> 
1000
(
(3.38153e-06 1.13716e-06 0)
(3.15542e-06 1.25591e-06 0)
(2.99094e-06 1.35587e-06 0)
(2.87209e-06 1.43398e-06 0)
(2.7873e-06 1.50141e-06 0)
(2.72749e-06 1.55943e-06 0)
(2.68702e-06 1.6117e-06 0)
(2.66134e-06 1.65932e-06 0)
(2.64688e-06 1.70374e-06 0)
(2.64182e-06 1.74585e-06 0)
(3.04738e-06 1.02542e-06 0)
(2.81257e-06 1.1117e-06 0)
(2.6429e-06 1.18738e-06 0)
(2.52086e-06 1.24579e-06 0)
(2.4339e-06 1.29711e-06 0)
(2.37235e-06 1.34123e-06 0)
(2.33018e-06 1.38125e-06 0)
(2.30261e-06 1.41785e-06 0)
(2.28595e-06 1.45181e-06 0)
(2.27773e-06 1.48494e-06 0)
(2.7061e-06 9.13432e-07 0)
(2.46911e-06 9.6511e-07 0)
(2.29891e-06 1.01551e-06 0)
(2.17712e-06 1.05398e-06 0)
(2.09063e-06 1.08945e-06 0)
(2.0294e-06 1.12025e-06 0)
(1.98718e-06 1.14881e-06 0)
(1.95905e-06 1.17525e-06 0)
(1.94133e-06 1.19974e-06 0)
(1.9314e-06 1.22428e-06 0)
(2.35942e-06 8.03e-07 0)
(2.12709e-06 8.19306e-07 0)
(1.96129e-06 8.44328e-07 0)
(1.84349e-06 8.6328e-07 0)
(1.76033e-06 8.83664e-07 0)
(1.70166e-06 9.02094e-07 0)
(1.66118e-06 9.2026e-07 0)
(1.63394e-06 9.37617e-07 0)
(1.61646e-06 9.53819e-07 0)
(1.60591e-06 9.70684e-07 0)
(2.0082e-06 6.95764e-07 0)
(1.78757e-06 6.77367e-07 0)
(1.63136e-06 6.78021e-07 0)
(1.52156e-06 6.78716e-07 0)
(1.44479e-06 6.85479e-07 0)
(1.39103e-06 6.93056e-07 0)
(1.35409e-06 7.02369e-07 0)
(1.32914e-06 7.12088e-07 0)
(1.31301e-06 7.21458e-07 0)
(1.30278e-06 7.31842e-07 0)
(1.65395e-06 5.92481e-07 0)
(1.45151e-06 5.41469e-07 0)
(1.31022e-06 5.20112e-07 0)
(1.2126e-06 5.04856e-07 0)
(1.14537e-06 5.00306e-07 0)
(1.09886e-06 4.9919e-07 0)
(1.06718e-06 5.01667e-07 0)
(1.04582e-06 5.05582e-07 0)
(1.03199e-06 5.09868e-07 0)
(1.02285e-06 5.1531e-07 0)
(1.29531e-06 4.93082e-07 0)
(1.11811e-06 4.13063e-07 0)
(9.97488e-07 3.73736e-07 0)
(9.16539e-07 3.46307e-07 0)
(8.621e-07 3.33797e-07 0)
(8.25084e-07 3.26869e-07 0)
(8.00227e-07 3.24959e-07 0)
(7.83511e-07 3.25175e-07 0)
(7.727e-07 3.26277e-07 0)
(7.6525e-07 3.28462e-07 0)
(9.34781e-07 3.94731e-07 0)
(7.88723e-07 2.91649e-07 0)
(6.94982e-07 2.41342e-07 0)
(6.35013e-07 2.07576e-07 0)
(5.96079e-07 1.91731e-07 0)
(5.7016e-07 1.82615e-07 0)
(5.53045e-07 1.79111e-07 0)
(5.41545e-07 1.77889e-07 0)
(5.34097e-07 1.77726e-07 0)
(5.287e-07 1.78375e-07 0)
(5.64285e-07 2.87709e-07 0)
(4.61086e-07 1.7372e-07 0)
(4.01759e-07 1.24286e-07 0)
(3.66547e-07 9.35074e-08 0)
(3.4519e-07 8.03008e-08 0)
(3.31211e-07 7.29976e-08 0)
(3.22184e-07 7.04521e-08 0)
(3.16005e-07 6.95929e-08 0)
(3.11936e-07 6.95269e-08 0)
(3.0873e-07 6.98725e-08 0)
(1.94489e-07 1.50568e-07 0)
(1.46608e-07 6.38996e-08 0)
(1.28349e-07 3.34672e-08 0)
(1.18693e-07 1.81674e-08 0)
(1.13088e-07 1.29014e-08 0)
(1.09171e-07 1.05196e-08 0)
(1.06611e-07 1.0187e-08 0)
(1.04733e-07 1.03846e-08 0)
(1.03448e-07 1.07727e-08 0)
(1.02313e-07 1.12016e-08 0)
(5.96264e-06 1.84188e-06 0)
(5.95282e-06 2.071e-06 0)
(5.94606e-06 2.2845e-06 0)
(5.94632e-06 2.47996e-06 0)
(5.95531e-06 2.65939e-06 0)
(5.97368e-06 2.82503e-06 0)
(6.00155e-06 2.97944e-06 0)
(6.03833e-06 3.12488e-06 0)
(6.08371e-06 3.26309e-06 0)
(6.13654e-06 3.39606e-06 0)
(5.77568e-06 1.82676e-06 0)
(5.74922e-06 2.05522e-06 0)
(5.73121e-06 2.26611e-06 0)
(5.72325e-06 2.45763e-06 0)
(5.72623e-06 2.63226e-06 0)
(5.73961e-06 2.79235e-06 0)
(5.76296e-06 2.94074e-06 0)
(5.79518e-06 3.07979e-06 0)
(5.83583e-06 3.21134e-06 0)
(5.88332e-06 3.33765e-06 0)
(5.57739e-06 1.79607e-06 0)
(5.53122e-06 2.02394e-06 0)
(5.49788e-06 2.23054e-06 0)
(5.47782e-06 2.41588e-06 0)
(5.47125e-06 2.58372e-06 0)
(5.47659e-06 2.73675e-06 0)
(5.49289e-06 2.87799e-06 0)
(5.51849e-06 3.00986e-06 0)
(5.55279e-06 3.13427e-06 0)
(5.59366e-06 3.25351e-06 0)
(5.36311e-06 1.75145e-06 0)
(5.29478e-06 1.97823e-06 0)
(5.24364e-06 2.17957e-06 0)
(5.20924e-06 2.35736e-06 0)
(5.19095e-06 2.51702e-06 0)
(5.18633e-06 2.66168e-06 0)
(5.19392e-06 2.79463e-06 0)
(5.21153e-06 2.9183e-06 0)
(5.23842e-06 3.03469e-06 0)
(5.2718e-06 3.14605e-06 0)
(5.13035e-06 1.69333e-06 0)
(5.03774e-06 1.91721e-06 0)
(4.96754e-06 2.11162e-06 0)
(4.91804e-06 2.28011e-06 0)
(4.88736e-06 2.43001e-06 0)
(4.8722e-06 2.56485e-06 0)
(4.8706e-06 2.68828e-06 0)
(4.87982e-06 2.80269e-06 0)
(4.89897e-06 2.91018e-06 0)
(4.92469e-06 3.01287e-06 0)
(4.8788e-06 1.62305e-06 0)
(4.76052e-06 1.84094e-06 0)
(4.67087e-06 2.02641e-06 0)
(4.60628e-06 2.18401e-06 0)
(4.56332e-06 2.32283e-06 0)
(4.53779e-06 2.44669e-06 0)
(4.52713e-06 2.55957e-06 0)
(4.52813e-06 2.66379e-06 0)
(4.53971e-06 2.7616e-06 0)
(4.55801e-06 2.85484e-06 0)
(4.60909e-06 1.54167e-06 0)
(4.46477e-06 1.74942e-06 0)
(4.35609e-06 1.92341e-06 0)
(4.27711e-06 2.06837e-06 0)
(4.22264e-06 2.19483e-06 0)
(4.18747e-06 2.30668e-06 0)
(4.16843e-06 2.40816e-06 0)
(4.16186e-06 2.50147e-06 0)
(4.16643e-06 2.58896e-06 0)
(4.17793e-06 2.67216e-06 0)
(4.32261e-06 1.45073e-06 0)
(4.15315e-06 1.64351e-06 0)
(4.02667e-06 1.80318e-06 0)
(3.93454e-06 1.93378e-06 0)
(3.86978e-06 2.04676e-06 0)
(3.82609e-06 2.1458e-06 0)
(3.79966e-06 2.23528e-06 0)
(3.78646e-06 2.31716e-06 0)
(3.7848e-06 2.3939e-06 0)
(3.79042e-06 2.46654e-06 0)
(4.02118e-06 1.35177e-06 0)
(3.82884e-06 1.52453e-06 0)
(3.68661e-06 1.66696e-06 0)
(3.58313e-06 1.78149e-06 0)
(3.50966e-06 1.87998e-06 0)
(3.45888e-06 1.96562e-06 0)
(3.42629e-06 2.0427e-06 0)
(3.40759e-06 2.11294e-06 0)
(3.40062e-06 2.17862e-06 0)
(3.40144e-06 2.24057e-06 0)
(3.7068e-06 1.2466e-06 0)
(3.49516e-06 1.39449e-06 0)
(3.34001e-06 1.51689e-06 0)
(3.22746e-06 1.61382e-06 0)
(3.14721e-06 1.69706e-06 0)
(3.09094e-06 1.76892e-06 0)
(3.0536e-06 1.83353e-06 0)
(3.03065e-06 1.89211e-06 0)
(3.01944e-06 1.94692e-06 0)
(3.01684e-06 1.99748e-06 0)
(6.19966e-06 3.52397e-06 0)
(6.27213e-06 3.65091e-06 0)
(6.35016e-06 3.77582e-06 0)
(6.43312e-06 3.89929e-06 0)
(6.52059e-06 4.02194e-06 0)
(6.61206e-06 4.14413e-06 0)
(6.70716e-06 4.26629e-06 0)
(6.80547e-06 4.38868e-06 0)
(6.90666e-06 4.51158e-06 0)
(7.0104e-06 4.63521e-06 0)
(7.11638e-06 4.75975e-06 0)
(7.22433e-06 4.88535e-06 0)
(7.33398e-06 5.01216e-06 0)
(7.44507e-06 5.14026e-06 0)
(7.55735e-06 5.26974e-06 0)
(7.67056e-06 5.40062e-06 0)
(7.78448e-06 5.53289e-06 0)
(7.89883e-06 5.66644e-06 0)
(8.01343e-06 5.80105e-06 0)
(8.12801e-06 5.93631e-06 0)
(5.94912e-06 3.46071e-06 0)
(6.03051e-06 3.58554e-06 0)
(6.11626e-06 3.70846e-06 0)
(6.20569e-06 3.83016e-06 0)
(6.29865e-06 3.95131e-06 0)
(6.39473e-06 4.07223e-06 0)
(6.4937e-06 4.19335e-06 0)
(6.59525e-06 4.31492e-06 0)
(6.69916e-06 4.43721e-06 0)
(6.80517e-06 4.56041e-06 0)
(6.91307e-06 4.68471e-06 0)
(7.02265e-06 4.81026e-06 0)
(7.13371e-06 4.93717e-06 0)
(7.24606e-06 5.06556e-06 0)
(7.35951e-06 5.19548e-06 0)
(7.47389e-06 5.32698e-06 0)
(7.58902e-06 5.46002e-06 0)
(7.70471e-06 5.59452e-06 0)
(7.8208e-06 5.73024e-06 0)
(7.93703e-06 5.86686e-06 0)
(5.6631e-06 3.37293e-06 0)
(5.75599e-06 3.49797e-06 0)
(5.85204e-06 3.62116e-06 0)
(5.95034e-06 3.7431e-06 0)
(6.05114e-06 3.86458e-06 0)
(6.15401e-06 3.98586e-06 0)
(6.25895e-06 4.10742e-06 0)
(6.36573e-06 4.22951e-06 0)
(6.47423e-06 4.3524e-06 0)
(6.58431e-06 4.4763e-06 0)
(6.69583e-06 4.60139e-06 0)
(6.80867e-06 4.72782e-06 0)
(6.9227e-06 4.85573e-06 0)
(7.0378e-06 4.98521e-06 0)
(7.15386e-06 5.11635e-06 0)
(7.27076e-06 5.2492e-06 0)
(7.38838e-06 5.38376e-06 0)
(7.50656e-06 5.52001e-06 0)
(7.62519e-06 5.65782e-06 0)
(7.74393e-06 5.79698e-06 0)
(5.34579e-06 3.26254e-06 0)
(5.45235e-06 3.3896e-06 0)
(5.56089e-06 3.51489e-06 0)
(5.67015e-06 3.63869e-06 0)
(5.78081e-06 3.76202e-06 0)
(5.89241e-06 3.88505e-06 0)
(6.00517e-06 4.00834e-06 0)
(6.11892e-06 4.13213e-06 0)
(6.2337e-06 4.25673e-06 0)
(6.34942e-06 4.38235e-06 0)
(6.46606e-06 4.50919e-06 0)
(6.58358e-06 4.63742e-06 0)
(6.70192e-06 4.76717e-06 0)
(6.82105e-06 4.89857e-06 0)
(6.9409e-06 5.03172e-06 0)
(7.06142e-06 5.1667e-06 0)
(7.18254e-06 5.30358e-06 0)
(7.30414e-06 5.44238e-06 0)
(7.42612e-06 5.58314e-06 0)
(7.54815e-06 5.72578e-06 0)
(5.0041e-06 3.12742e-06 0)
(5.12595e-06 3.25855e-06 0)
(5.24865e-06 3.38802e-06 0)
(5.37042e-06 3.51552e-06 0)
(5.49248e-06 3.64244e-06 0)
(5.61426e-06 3.76878e-06 0)
(5.73626e-06 3.89526e-06 0)
(5.85832e-06 4.02208e-06 0)
(5.98064e-06 4.14961e-06 0)
(6.10322e-06 4.27808e-06 0)
(6.22613e-06 4.40772e-06 0)
(6.34941e-06 4.53871e-06 0)
(6.47308e-06 4.67122e-06 0)
(6.59717e-06 4.80539e-06 0)
(6.7217e-06 4.94136e-06 0)
(6.84665e-06 5.07926e-06 0)
(6.97203e-06 5.21921e-06 0)
(7.09774e-06 5.36132e-06 0)
(7.22374e-06 5.50579e-06 0)
(7.34973e-06 5.65265e-06 0)
(4.64361e-06 2.96837e-06 0)
(4.78191e-06 3.10548e-06 0)
(4.92001e-06 3.24106e-06 0)
(5.05544e-06 3.374e-06 0)
(5.19006e-06 3.50612e-06 0)
(5.32315e-06 3.6373e-06 0)
(5.45546e-06 3.76834e-06 0)
(5.58688e-06 3.89948e-06 0)
(5.71775e-06 4.03114e-06 0)
(5.84814e-06 4.16357e-06 0)
(5.97823e-06 4.29704e-06 0)
(6.1081e-06 4.43176e-06 0)
(6.23789e-06 4.56792e-06 0)
(6.36769e-06 4.7057e-06 0)
(6.49756e-06 4.84529e-06 0)
(6.62757e-06 4.98684e-06 0)
(6.75776e-06 5.13056e-06 0)
(6.88812e-06 5.27664e-06 0)
(7.01865e-06 5.4254e-06 0)
(7.14914e-06 5.57701e-06 0)
(4.27028e-06 2.78566e-06 0)
(4.42562e-06 2.93068e-06 0)
(4.57988e-06 3.07427e-06 0)
(4.72972e-06 3.21442e-06 0)
(4.87766e-06 3.35332e-06 0)
(5.02284e-06 3.49082e-06 0)
(5.16623e-06 3.62778e-06 0)
(5.30776e-06 3.76452e-06 0)
(5.4479e-06 3.90148e-06 0)
(5.58678e-06 4.03898e-06 0)
(5.72468e-06 4.1773e-06 0)
(5.86177e-06 4.3167e-06 0)
(5.99825e-06 4.45742e-06 0)
(6.13426e-06 4.59966e-06 0)
(6.26996e-06 4.74363e-06 0)
(6.40547e-06 4.88956e-06 0)
(6.54089e-06 5.03769e-06 0)
(6.67629e-06 5.1883e-06 0)
(6.81171e-06 5.34183e-06 0)
(6.9471e-06 5.49853e-06 0)
(3.88972e-06 2.58095e-06 0)
(4.06214e-06 2.73568e-06 0)
(4.23276e-06 2.88878e-06 0)
(4.39737e-06 3.03778e-06 0)
(4.55897e-06 3.18488e-06 0)
(4.71671e-06 3.33014e-06 0)
(4.87163e-06 3.47435e-06 0)
(5.02379e-06 3.61792e-06 0)
(5.17369e-06 3.76134e-06 0)
(5.32157e-06 3.90495e-06 0)
(5.46776e-06 4.04912e-06 0)
(5.6125e-06 4.19413e-06 0)
(5.75606e-06 4.34024e-06 0)
(5.89866e-06 4.48772e-06 0)
(6.04052e-06 4.6368e-06 0)
(6.18182e-06 4.78774e-06 0)
(6.32273e-06 4.94084e-06 0)
(6.4634e-06 5.09644e-06 0)
(6.60396e-06 5.25508e-06 0)
(6.74451e-06 5.41707e-06 0)
(3.50764e-06 2.35615e-06 0)
(3.69672e-06 2.52249e-06 0)
(3.88325e-06 2.68627e-06 0)
(4.0627e-06 2.84564e-06 0)
(4.23792e-06 3.00213e-06 0)
(4.40837e-06 3.15628e-06 0)
(4.57496e-06 3.3088e-06 0)
(4.73794e-06 3.46024e-06 0)
(4.89781e-06 3.61112e-06 0)
(5.0549e-06 3.76185e-06 0)
(5.20961e-06 3.91281e-06 0)
(5.36224e-06 4.06432e-06 0)
(5.51311e-06 4.2167e-06 0)
(5.6625e-06 4.3702e-06 0)
(5.8107e-06 4.52511e-06 0)
(5.95796e-06 4.6817e-06 0)
(6.1045e-06 4.84033e-06 0)
(6.25059e-06 5.00133e-06 0)
(6.39639e-06 5.16533e-06 0)
(6.54225e-06 5.33267e-06 0)
(3.12852e-06 2.11469e-06 0)
(3.33338e-06 2.29384e-06 0)
(3.53416e-06 2.46866e-06 0)
(3.7281e-06 2.63949e-06 0)
(3.91669e-06 2.80663e-06 0)
(4.09991e-06 2.97089e-06 0)
(4.27834e-06 3.13288e-06 0)
(4.45236e-06 3.29324e-06 0)
(4.62242e-06 3.45251e-06 0)
(4.78894e-06 3.61121e-06 0)
(4.95233e-06 3.76975e-06 0)
(5.11299e-06 3.92851e-06 0)
(5.27128e-06 4.08782e-06 0)
(5.42755e-06 4.24799e-06 0)
(5.58214e-06 4.40931e-06 0)
(5.73538e-06 4.57208e-06 0)
(5.88757e-06 4.73665e-06 0)
(6.03906e-06 4.90339e-06 0)
(6.19009e-06 5.07292e-06 0)
(6.34125e-06 5.24559e-06 0)
(2.83612e-06 1.93365e-06 0)
(3.04972e-06 2.12211e-06 0)
(3.25799e-06 2.30317e-06 0)
(3.4598e-06 2.48053e-06 0)
(3.65597e-06 2.65418e-06 0)
(3.84653e-06 2.82489e-06 0)
(4.032e-06 2.99322e-06 0)
(4.21267e-06 3.15971e-06 0)
(4.38898e-06 3.3249e-06 0)
(4.56132e-06 3.48923e-06 0)
(4.73011e-06 3.65313e-06 0)
(4.89575e-06 3.81695e-06 0)
(5.0586e-06 3.98101e-06 0)
(5.21906e-06 4.14561e-06 0)
(5.37749e-06 4.31103e-06 0)
(5.53425e-06 4.47754e-06 0)
(5.68968e-06 4.64548e-06 0)
(5.84424e-06 4.81518e-06 0)
(5.99819e-06 4.98717e-06 0)
(6.15231e-06 5.16177e-06 0)
(2.64105e-06 1.82536e-06 0)
(2.85468e-06 2.01379e-06 0)
(3.06301e-06 2.19633e-06 0)
(3.26548e-06 2.37569e-06 0)
(3.46265e-06 2.55182e-06 0)
(3.65447e-06 2.72524e-06 0)
(3.84136e-06 2.8964e-06 0)
(4.02353e-06 3.06574e-06 0)
(4.20137e-06 3.23369e-06 0)
(4.3752e-06 3.40065e-06 0)
(4.5454e-06 3.56697e-06 0)
(4.71232e-06 3.73296e-06 0)
(4.87634e-06 3.89891e-06 0)
(5.03782e-06 4.06509e-06 0)
(5.19711e-06 4.23174e-06 0)
(5.35462e-06 4.3991e-06 0)
(5.51067e-06 4.56745e-06 0)
(5.66577e-06 4.73706e-06 0)
(5.82019e-06 4.90836e-06 0)
(5.97484e-06 5.08157e-06 0)
(2.46886e-06 1.72138e-06 0)
(2.67864e-06 1.90925e-06 0)
(2.88485e-06 2.09231e-06 0)
(3.08576e-06 2.27289e-06 0)
(3.28214e-06 2.4508e-06 0)
(3.4736e-06 2.62636e-06 0)
(3.66051e-06 2.79991e-06 0)
(3.84295e-06 2.97175e-06 0)
(4.02123e-06 3.14223e-06 0)
(4.19562e-06 3.31164e-06 0)
(4.36642e-06 3.48027e-06 0)
(4.53396e-06 3.64838e-06 0)
(4.69857e-06 3.8162e-06 0)
(4.8606e-06 3.98395e-06 0)
(5.0204e-06 4.15183e-06 0)
(5.17834e-06 4.32003e-06 0)
(5.33478e-06 4.48875e-06 0)
(5.49022e-06 4.65821e-06 0)
(5.64497e-06 4.82866e-06 0)
(5.79999e-06 5.00028e-06 0)
(2.31453e-06 1.62123e-06 0)
(2.51929e-06 1.80758e-06 0)
(2.7218e-06 1.99047e-06 0)
(2.91972e-06 2.17177e-06 0)
(3.11388e-06 2.35102e-06 0)
(3.30367e-06 2.52839e-06 0)
(3.4894e-06 2.70405e-06 0)
(3.67102e-06 2.87817e-06 0)
(3.84878e-06 3.05098e-06 0)
(4.02285e-06 3.22269e-06 0)
(4.19351e-06 3.39351e-06 0)
(4.36102e-06 3.56365e-06 0)
(4.52568e-06 3.73327e-06 0)
(4.68781e-06 3.90253e-06 0)
(4.84772e-06 4.07159e-06 0)
(5.00579e-06 4.24059e-06 0)
(5.16237e-06 4.40963e-06 0)
(5.31795e-06 4.57888e-06 0)
(5.47287e-06 4.74843e-06 0)
(5.62809e-06 4.91831e-06 0)
(2.17629e-06 1.52597e-06 0)
(2.3749e-06 1.71024e-06 0)
(2.57244e-06 1.89236e-06 0)
(2.76616e-06 2.07376e-06 0)
(2.95693e-06 2.2538e-06 0)
(3.14395e-06 2.43249e-06 0)
(3.32747e-06 2.60981e-06 0)
(3.50734e-06 2.78584e-06 0)
(3.68372e-06 2.96068e-06 0)
(3.85673e-06 3.13445e-06 0)
(4.02657e-06 3.30727e-06 0)
(4.19346e-06 3.47927e-06 0)
(4.35766e-06 3.65056e-06 0)
(4.51946e-06 3.82125e-06 0)
(4.67914e-06 3.99142e-06 0)
(4.83703e-06 4.16114e-06 0)
(4.99352e-06 4.33047e-06 0)
(5.14895e-06 4.49945e-06 0)
(5.30399e-06 4.66795e-06 0)
(5.45932e-06 4.83607e-06 0)
(2.05148e-06 1.43554e-06 0)
(2.24332e-06 1.6172e-06 0)
(2.43507e-06 1.79804e-06 0)
(2.62375e-06 1.97905e-06 0)
(2.81024e-06 2.15943e-06 0)
(2.99363e-06 2.33901e-06 0)
(3.17409e-06 2.51763e-06 0)
(3.3514e-06 2.69524e-06 0)
(3.52567e-06 2.87181e-06 0)
(3.69694e-06 3.04738e-06 0)
(3.86537e-06 3.22198e-06 0)
(4.03112e-06 3.39566e-06 0)
(4.19441e-06 3.56847e-06 0)
(4.35549e-06 3.74045e-06 0)
(4.51461e-06 3.91162e-06 0)
(4.6721e-06 4.08199e-06 0)
(4.82825e-06 4.25153e-06 0)
(4.98354e-06 4.42014e-06 0)
(5.13825e-06 4.58767e-06 0)
(5.29329e-06 4.75411e-06 0)
(1.93794e-06 1.35e-06 0)
(2.12264e-06 1.52875e-06 0)
(2.308e-06 1.70794e-06 0)
(2.49102e-06 1.88813e-06 0)
(2.67256e-06 2.06842e-06 0)
(2.85162e-06 2.24849e-06 0)
(3.02836e-06 2.42803e-06 0)
(3.20247e-06 2.60685e-06 0)
(3.37402e-06 2.78484e-06 0)
(3.54299e-06 2.96192e-06 0)
(3.70949e-06 3.13805e-06 0)
(3.87364e-06 3.31319e-06 0)
(4.03562e-06 3.48734e-06 0)
(4.19564e-06 3.66045e-06 0)
(4.35392e-06 3.83251e-06 0)
(4.51074e-06 4.00343e-06 0)
(4.66637e-06 4.17312e-06 0)
(4.82125e-06 4.34141e-06 0)
(4.97559e-06 4.50801e-06 0)
(5.13027e-06 4.67277e-06 0)
(1.83355e-06 1.26916e-06 0)
(2.01091e-06 1.44479e-06 0)
(2.18954e-06 1.62205e-06 0)
(2.36648e-06 1.80111e-06 0)
(2.54258e-06 1.98096e-06 0)
(2.71682e-06 2.16117e-06 0)
(2.8893e-06 2.34128e-06 0)
(3.0597e-06 2.52101e-06 0)
(3.22803e-06 2.70011e-06 0)
(3.39423e-06 2.87842e-06 0)
(3.55837e-06 3.05581e-06 0)
(3.72054e-06 3.23219e-06 0)
(3.88087e-06 3.40746e-06 0)
(4.03953e-06 3.58155e-06 0)
(4.1967e-06 3.75434e-06 0)
(4.35265e-06 3.92572e-06 0)
(4.50758e-06 4.09551e-06 0)
(4.66188e-06 4.26347e-06 0)
(4.81574e-06 4.4292e-06 0)
(4.96991e-06 4.59247e-06 0)
(1.73643e-06 1.19276e-06 0)
(1.90637e-06 1.36523e-06 0)
(2.07805e-06 1.54038e-06 0)
(2.24866e-06 1.71808e-06 0)
(2.41897e-06 1.89723e-06 0)
(2.58801e-06 2.07728e-06 0)
(2.75584e-06 2.25766e-06 0)
(2.92212e-06 2.43797e-06 0)
(3.08684e-06 2.61789e-06 0)
(3.2499e-06 2.79715e-06 0)
(3.41134e-06 2.97555e-06 0)
(3.5712e-06 3.15292e-06 0)
(3.7296e-06 3.32911e-06 0)
(3.88665e-06 3.50398e-06 0)
(4.04251e-06 3.67737e-06 0)
(4.19739e-06 3.84911e-06 0)
(4.35146e-06 4.01894e-06 0)
(4.50506e-06 4.1866e-06 0)
(4.65831e-06 4.35157e-06 0)
(4.81185e-06 4.51355e-06 0)
(1.64481e-06 1.12051e-06 0)
(1.80733e-06 1.28985e-06 0)
(1.97196e-06 1.46282e-06 0)
(2.13606e-06 1.63901e-06 0)
(2.30036e-06 1.81726e-06 0)
(2.46393e-06 1.99691e-06 0)
(2.62683e-06 2.17729e-06 0)
(2.7887e-06 2.35792e-06 0)
(2.9495e-06 2.53838e-06 0)
(3.10914e-06 2.71832e-06 0)
(3.2676e-06 2.89747e-06 0)
(3.42491e-06 3.0756e-06 0)
(3.58114e-06 3.25249e-06 0)
(3.73638e-06 3.42796e-06 0)
(3.89076e-06 3.60179e-06 0)
(4.04442e-06 3.77378e-06 0)
(4.19752e-06 3.94362e-06 0)
(4.3503e-06 4.111e-06 0)
(4.50286e-06 4.27534e-06 0)
(4.65566e-06 4.4363e-06 0)
(1.55709e-06 1.05214e-06 0)
(1.71223e-06 1.21847e-06 0)
(1.86975e-06 1.38926e-06 0)
(2.02723e-06 1.56385e-06 0)
(2.18537e-06 1.74105e-06 0)
(2.3433e-06 1.92011e-06 0)
(2.50106e-06 2.10027e-06 0)
(2.65831e-06 2.28098e-06 0)
(2.815e-06 2.46171e-06 0)
(2.971e-06 2.64208e-06 0)
(3.12629e-06 2.82173e-06 0)
(3.28087e-06 3.00038e-06 0)
(3.43477e-06 3.17776e-06 0)
(3.58806e-06 3.35363e-06 0)
(3.74081e-06 3.52776e-06 0)
(3.89315e-06 3.69989e-06 0)
(4.04518e-06 3.86969e-06 0)
(4.19706e-06 4.03683e-06 0)
(4.34885e-06 4.2007e-06 0)
(4.50084e-06 4.36093e-06 0)
(1.47176e-06 9.87402e-07 0)
(1.61954e-06 1.15089e-06 0)
(1.76992e-06 1.31954e-06 0)
(1.92074e-06 1.49251e-06 0)
(2.07263e-06 1.66857e-06 0)
(2.22481e-06 1.84688e-06 0)
(2.37731e-06 2.02664e-06 0)
(2.52981e-06 2.2072e-06 0)
(2.68225e-06 2.38798e-06 0)
(2.83449e-06 2.56853e-06 0)
(2.98649e-06 2.74845e-06 0)
(3.13822e-06 2.92738e-06 0)
(3.28968e-06 3.10503e-06 0)
(3.44092e-06 3.28112e-06 0)
(3.59197e-06 3.45539e-06 0)
(3.74291e-06 3.62755e-06 0)
(3.8938e-06 3.79728e-06 0)
(4.04472e-06 3.96421e-06 0)
(4.1957e-06 4.12776e-06 0)
(4.34684e-06 4.28757e-06 0)
(1.38737e-06 9.26075e-07 0)
(1.52778e-06 1.08694e-06 0)
(1.67101e-06 1.25354e-06 0)
(1.81513e-06 1.42489e-06 0)
(1.96072e-06 1.59974e-06 0)
(2.1071e-06 1.77719e-06 0)
(2.25429e-06 1.95637e-06 0)
(2.40199e-06 2.13658e-06 0)
(2.55012e-06 2.3172e-06 0)
(2.69855e-06 2.49771e-06 0)
(2.84721e-06 2.67765e-06 0)
(2.99604e-06 2.85665e-06 0)
(3.14503e-06 3.03437e-06 0)
(3.29418e-06 3.2105e-06 0)
(3.44349e-06 3.38475e-06 0)
(3.593e-06 3.55684e-06 0)
(3.74271e-06 3.72643e-06 0)
(3.89266e-06 3.8932e-06 0)
(4.04281e-06 4.05658e-06 0)
(4.19311e-06 4.21627e-06 0)
(1.30248e-06 8.68072e-07 0)
(1.43549e-06 1.02652e-06 0)
(1.57154e-06 1.19117e-06 0)
(1.70894e-06 1.36092e-06 0)
(1.84823e-06 1.53451e-06 0)
(1.9888e-06 1.71098e-06 0)
(2.13069e-06 1.88943e-06 0)
(2.2736e-06 2.06911e-06 0)
(2.41745e-06 2.24935e-06 0)
(2.56209e-06 2.4296e-06 0)
(2.70744e-06 2.60936e-06 0)
(2.85341e-06 2.78822e-06 0)
(2.99995e-06 2.9658e-06 0)
(3.14703e-06 3.14179e-06 0)
(3.29462e-06 3.31587e-06 0)
(3.44271e-06 3.48777e-06 0)
(3.59127e-06 3.65718e-06 0)
(3.74025e-06 3.82379e-06 0)
(3.88959e-06 3.98714e-06 0)
(4.03907e-06 4.14698e-06 0)
(1.2156e-06 8.1323e-07 0)
(1.34113e-06 9.69468e-07 0)
(1.46995e-06 1.13226e-06 0)
(1.60063e-06 1.30045e-06 0)
(1.73365e-06 1.47272e-06 0)
(1.86848e-06 1.64812e-06 0)
(2.00513e-06 1.8257e-06 0)
(2.14334e-06 2.00467e-06 0)
(2.28302e-06 2.18434e-06 0)
(2.42398e-06 2.36412e-06 0)
(2.56613e-06 2.54349e-06 0)
(2.70935e-06 2.72201e-06 0)
(2.85356e-06 2.89927e-06 0)
(2.99867e-06 3.07495e-06 0)
(3.14463e-06 3.24873e-06 0)
(3.29136e-06 3.42033e-06 0)
(3.43882e-06 3.58948e-06 0)
(3.58689e-06 3.75594e-06 0)
(3.73545e-06 3.91935e-06 0)
(3.8842e-06 4.07956e-06 0)
(1.12519e-06 7.61734e-07 0)
(1.24312e-06 9.15916e-07 0)
(1.36466e-06 1.07691e-06 0)
(1.48864e-06 1.24349e-06 0)
(1.61545e-06 1.41438e-06 0)
(1.74464e-06 1.58857e-06 0)
(1.87621e-06 1.7651e-06 0)
(2.00991e-06 1.94318e-06 0)
(2.14559e-06 2.12208e-06 0)
(2.28309e-06 2.30118e-06 0)
(2.42225e-06 2.47995e-06 0)
(2.56293e-06 2.65792e-06 0)
(2.70499e-06 2.83469e-06 0)
(2.84832e-06 3.00989e-06 0)
(2.9928e-06 3.18322e-06 0)
(3.13833e-06 3.35442e-06 0)
(3.2848e-06 3.52325e-06 0)
(3.43205e-06 3.68952e-06 0)
(3.57993e-06 3.85304e-06 0)
(3.72804e-06 4.01377e-06 0)
(1.02945e-06 7.13311e-07 0)
(1.13965e-06 8.65562e-07 0)
(1.25387e-06 1.02478e-06 0)
(1.37119e-06 1.18974e-06 0)
(1.49193e-06 1.35914e-06 0)
(1.61568e-06 1.532e-06 0)
(1.74241e-06 1.70734e-06 0)
(1.87185e-06 1.88434e-06 0)
(2.00385e-06 2.06227e-06 0)
(2.13819e-06 2.2405e-06 0)
(2.27469e-06 2.41849e-06 0)
(2.41314e-06 2.59575e-06 0)
(2.55338e-06 2.77185e-06 0)
(2.69522e-06 2.94645e-06 0)
(2.8385e-06 3.11922e-06 0)
(2.98306e-06 3.28992e-06 0)
(3.12873e-06 3.45835e-06 0)
(3.27533e-06 3.62439e-06 0)
(3.42264e-06 3.788e-06 0)
(3.57026e-06 3.94931e-06 0)
(9.26625e-07 6.68728e-07 0)
(1.02894e-06 8.19003e-07 0)
(1.13582e-06 9.76317e-07 0)
(1.2466e-06 1.13948e-06 0)
(1.36145e-06 1.3072e-06 0)
(1.48004e-06 1.4785e-06 0)
(1.60226e-06 1.65239e-06 0)
(1.72784e-06 1.82806e-06 0)
(1.85656e-06 2.00478e-06 0)
(1.98817e-06 2.18191e-06 0)
(2.12244e-06 2.35889e-06 0)
(2.25911e-06 2.53524e-06 0)
(2.39795e-06 2.71052e-06 0)
(2.53871e-06 2.88436e-06 0)
(2.68118e-06 3.05647e-06 0)
(2.82511e-06 3.22658e-06 0)
(2.97029e-06 3.39455e-06 0)
(3.11647e-06 3.56031e-06 0)
(3.2634e-06 3.72395e-06 0)
(3.4107e-06 3.88577e-06 0)
(8.141e-07 6.26914e-07 0)
(9.0842e-07 7.75182e-07 0)
(1.00804e-06 9.30504e-07 0)
(1.11249e-06 1.09175e-06 0)
(1.2218e-06 1.25764e-06 0)
(1.33565e-06 1.4272e-06 0)
(1.45386e-06 1.59946e-06 0)
(1.5761e-06 1.77363e-06 0)
(1.70212e-06 1.94896e-06 0)
(1.83159e-06 2.12482e-06 0)
(1.96424e-06 2.30064e-06 0)
(2.09973e-06 2.47594e-06 0)
(2.23778e-06 2.65027e-06 0)
(2.37807e-06 2.82328e-06 0)
(2.52029e-06 2.99465e-06 0)
(2.66414e-06 3.16414e-06 0)
(2.80931e-06 3.33161e-06 0)
(2.95546e-06 3.49703e-06 0)
(3.10232e-06 3.66059e-06 0)
(3.24948e-06 3.82276e-06 0)
(6.90411e-07 5.90333e-07 0)
(7.76682e-07 7.36113e-07 0)
(8.69217e-07 8.88951e-07 0)
(9.67637e-07 1.04779e-06 0)
(1.07184e-06 1.21137e-06 0)
(1.18147e-06 1.37875e-06 0)
(1.29624e-06 1.54897e-06 0)
(1.41578e-06 1.72123e-06 0)
(1.53976e-06 1.89481e-06 0)
(1.66778e-06 2.06907e-06 0)
(1.79949e-06 2.24344e-06 0)
(1.93451e-06 2.41744e-06 0)
(2.07247e-06 2.59064e-06 0)
(2.21297e-06 2.76266e-06 0)
(2.35564e-06 2.9332e-06 0)
(2.50008e-06 3.10203e-06 0)
(2.64587e-06 3.269e-06 0)
(2.79257e-06 3.4341e-06 0)
(2.9398e-06 3.59752e-06 0)
(3.08706e-06 3.75979e-06 0)
(9.8911e-08 1.06916e-08 0)
(2.98797e-07 6.58564e-08 0)
(5.11282e-07 1.68611e-07 0)
(7.39046e-07 3.12107e-07 0)
(9.86461e-07 4.92458e-07 0)
(1.25489e-06 7.03256e-07 0)
(1.5454e-06 9.37649e-07 0)
(1.85751e-06 1.18846e-06 0)
(2.19026e-06 1.44842e-06 0)
(2.54192e-06 1.71159e-06 0)
(9.31732e-08 9.54772e-09 0)
(2.81668e-07 5.91116e-08 0)
(4.81532e-07 1.52414e-07 0)
(6.94841e-07 2.83905e-07 0)
(9.2558e-07 4.50654e-07 0)
(1.17501e-06 6.47273e-07 0)
(1.44423e-06 8.67812e-07 0)
(1.73277e-06 1.10594e-06 0)
(2.03958e-06 1.35468e-06 0)
(2.36281e-06 1.60931e-06 0)
(8.80155e-08 8.20244e-09 0)
(2.663e-07 5.22915e-08 0)
(4.54993e-07 1.36756e-07 0)
(6.55482e-07 2.57038e-07 0)
(8.7132e-07 4.10939e-07 0)
(1.10357e-06 5.93891e-07 0)
(1.35341e-06 8.0071e-07 0)
(1.62065e-06 1.02595e-06 0)
(1.9049e-06 1.26327e-06 0)
(2.20416e-06 1.50931e-06 0)
(8.32956e-08 6.6444e-09 0)
(2.52299e-07 4.54481e-08 0)
(4.31107e-07 1.21931e-07 0)
(6.20474e-07 2.32245e-07 0)
(8.23572e-07 3.7473e-07 0)
(1.04118e-06 5.45449e-07 0)
(1.2744e-06 7.39771e-07 0)
(1.5229e-06 9.52825e-07 0)
(1.78674e-06 1.17861e-06 0)
(2.06351e-06 1.41422e-06 0)
(7.88829e-08 4.8579e-09 0)
(2.39231e-07 3.83429e-08 0)
(4.08965e-07 1.07257e-07 0)
(5.88255e-07 2.08283e-07 0)
(7.79944e-07 3.40158e-07 0)
(9.84545e-07 4.99449e-07 0)
(1.20315e-06 6.82019e-07 0)
(1.43529e-06 8.83543e-07 0)
(1.6815e-06 1.09854e-06 0)
(1.9386e-06 1.32404e-06 0)
(7.47412e-08 2.87269e-09 0)
(2.26985e-07 3.10223e-08 0)
(3.88364e-07 9.28127e-08 0)
(5.58523e-07 1.85314e-07 0)
(7.40016e-07 3.07549e-07 0)
(9.33067e-07 4.5645e-07 0)
(1.13872e-06 6.2824e-07 0)
(1.35631e-06 8.18942e-07 0)
(1.5868e-06 1.02356e-06 0)
(1.8265e-06 1.23894e-06 0)
(7.07871e-08 6.78654e-10 0)
(2.15302e-07 2.33795e-08 0)
(3.68811e-07 7.829e-08 0)
(5.30486e-07 1.62768e-07 0)
(7.02646e-07 2.76047e-07 0)
(8.85259e-07 4.15344e-07 0)
(1.07935e-06 5.772e-07 0)
(1.28404e-06 7.57898e-07 0)
(1.5006e-06 9.52927e-07 0)
(1.72499e-06 1.15878e-06 0)
(6.69896e-08 -1.69584e-09 0)
(2.04085e-07 1.54468e-08 0)
(3.50116e-07 6.36988e-08 0)
(5.03828e-07 1.4063e-07 0)
(6.67339e-07 2.4562e-07 0)
(8.40384e-07 3.76083e-07 0)
(1.02395e-06 5.28806e-07 0)
(1.21702e-06 7.00239e-07 0)
(1.42105e-06 8.86319e-07 0)
(1.63188e-06 1.08326e-06 0)
(6.32999e-08 -4.25212e-09 0)
(1.93188e-07 7.18108e-09 0)
(3.3201e-07 4.89018e-08 0)
(4.78125e-07 1.18639e-07 0)
(6.33483e-07 2.15872e-07 0)
(7.97619e-07 3.38158e-07 0)
(9.71488e-07 4.82483e-07 0)
(1.15398e-06 6.45414e-07 0)
(1.34663e-06 8.23262e-07 0)
(1.54533e-06 1.01202e-06 0)
(5.96909e-08 -6.97278e-09 0)
(1.82529e-07 -1.40239e-09 0)
(3.14336e-07 3.38853e-08 0)
(4.53115e-07 9.674e-08 0)
(6.00665e-07 1.867e-07 0)
(7.56362e-07 3.01408e-07 0)
(9.21124e-07 4.38001e-07 0)
(1.09382e-06 5.93123e-07 0)
(1.27596e-06 7.63396e-07 0)
(1.46366e-06 9.44689e-07 0)
(5.61332e-08 -9.85653e-09 0)
(1.72022e-07 -1.03237e-08 0)
(2.96935e-07 1.8582e-08 0)
(4.28538e-07 7.48091e-08 0)
(5.68492e-07 1.57913e-07 0)
(7.16056e-07 2.65583e-07 0)
(8.72111e-07 3.9506e-07 0)
(1.03555e-06 5.43041e-07 0)
(1.20784e-06 7.06384e-07 0)
(1.38539e-06 8.80916e-07 0)
(5.26078e-08 -1.28981e-08 0)
(1.61615e-07 -1.95841e-08 0)
(2.79701e-07 2.9728e-09 0)
(4.042e-07 5.2809e-08 0)
(5.36647e-07 1.29447e-07 0)
(6.76222e-07 2.30582e-07 0)
(8.23781e-07 3.53511e-07 0)
(9.78297e-07 4.94968e-07 0)
(1.14116e-06 6.51992e-07 0)
(1.30913e-06 8.20427e-07 0)
(4.91034e-08 -1.61051e-08 0)
(1.51284e-07 -2.92127e-08 0)
(2.62565e-07 -1.29938e-08 0)
(3.79949e-07 3.06726e-08 0)
(5.04848e-07 1.01216e-07 0)
(6.36419e-07 1.96292e-07 0)
(7.7551e-07 3.13211e-07 0)
(9.21223e-07 4.48729e-07 0)
(1.07487e-06 6.00014e-07 0)
(1.23358e-06 7.62979e-07 0)
(4.56196e-08 -1.95044e-08 0)
(1.41046e-07 -3.92427e-08 0)
(2.45504e-07 -2.93342e-08 0)
(3.55675e-07 8.4194e-09 0)
(4.72853e-07 7.32596e-08 0)
(5.96237e-07 1.62758e-07 0)
(7.26699e-07 2.74188e-07 0)
(8.63516e-07 4.04319e-07 0)
(1.00792e-06 5.50415e-07 0)
(1.15746e-06 7.08489e-07 0)
(4.21878e-08 -2.31459e-08 0)
(1.31026e-07 -4.97617e-08 0)
(2.28611e-07 -4.61284e-08 0)
(3.31355e-07 -1.40051e-08 0)
(4.40464e-07 4.55479e-08 0)
(5.55274e-07 1.29951e-07 0)
(6.76728e-07 2.36401e-07 0)
(8.04323e-07 3.61671e-07 0)
(9.39233e-07 5.03095e-07 0)
(1.07944e-06 6.56809e-07 0)
(3.88746e-08 -2.71997e-08 0)
(1.21431e-07 -6.08968e-08 0)
(2.12042e-07 -6.33481e-08 0)
(3.06998e-07 -3.6401e-08 0)
(4.07489e-07 1.83915e-08 0)
(5.13114e-07 9.82365e-08 0)
(6.24949e-07 2.00222e-07 0)
(7.42762e-07 3.21131e-07 0)
(8.67688e-07 4.58356e-07 0)
(9.98145e-07 6.08183e-07 0)
(3.59273e-08 -3.1866e-08 0)
(1.12902e-07 -7.28996e-08 0)
(1.96326e-07 -8.116e-08 0)
(2.82833e-07 -5.88847e-08 0)
(3.73801e-07 -8.2809e-09 0)
(4.69287e-07 6.7544e-08 0)
(5.70578e-07 1.65563e-07 0)
(6.77751e-07 2.82571e-07 0)
(7.91924e-07 4.16027e-07 0)
(9.11949e-07 5.62381e-07 0)
(3.38709e-08 -3.8015e-08 0)
(1.06179e-07 -8.61633e-08 0)
(1.8198e-07 -9.92106e-08 0)
(2.58975e-07 -8.05627e-08 0)
(3.39169e-07 -3.33261e-08 0)
(4.23229e-07 3.91093e-08 0)
(5.12764e-07 1.33645e-07 0)
(6.08169e-07 2.47148e-07 0)
(7.10566e-07 3.77163e-07 0)
(8.19227e-07 5.20337e-07 0)
(3.52623e-08 -4.62815e-08 0)
(1.04022e-07 -1.01165e-07 0)
(1.70761e-07 -1.17841e-07 0)
(2.36044e-07 -1.01945e-07 0)
(3.03323e-07 -5.73607e-08 0)
(3.74029e-07 1.21917e-08 0)
(4.50111e-07 1.0363e-07 0)
(5.32224e-07 2.13933e-07 0)
(6.21489e-07 3.40767e-07 0)
(7.17526e-07 4.80985e-07 0)
(4.55173e-08 -6.12686e-08 0)
(1.0817e-07 -1.18271e-07 0)
(1.63504e-07 -1.34695e-07 0)
(2.13958e-07 -1.19368e-07 0)
(2.65848e-07 -7.6485e-08 0)
(3.20994e-07 -9.34163e-09 0)
(3.81738e-07 7.91971e-08 0)
(4.48849e-07 1.86374e-07 0)
(5.23479e-07 3.10012e-07 0)
(6.0544e-07 4.47202e-07 0)
)
;

boundaryField
{
    left
    {
        type            fixedDisplacement;
        value           uniform (0 0 0);
    }
    right
    {
        type            solidTraction;
        tractionSeries  
{
        file            "$FOAM_CASE/constant/timeVsTraction";
        outOfBounds     clamp;
}
        pressure        uniform 0;
        secondOrder     false;
        setEffectiveTraction false;
        relaxationFactor 1;
        value           nonuniform List<vector> 
30
(
(8.18506e-06 6.00379e-06 1.61289e-21)
(7.99442e-06 5.93502e-06 1.61815e-21)
(7.80209e-06 5.86673e-06 1.65961e-21)
(7.60754e-06 5.79765e-06 1.74513e-21)
(7.41079e-06 5.72701e-06 1.87192e-21)
(7.21229e-06 5.65409e-06 2.036e-21)
(7.01274e-06 5.57845e-06 2.23081e-21)
(6.81298e-06 5.49987e-06 2.44921e-21)
(6.61388e-06 5.41835e-06 2.68333e-21)
(6.4163e-06 5.3341e-06 2.92416e-21)
(6.22942e-06 5.25121e-06 3.09876e-21)
(6.05223e-06 5.16974e-06 3.17995e-21)
(5.87757e-06 5.08706e-06 3.23521e-21)
(5.70577e-06 5.00357e-06 3.26559e-21)
(5.537e-06 4.91985e-06 3.26636e-21)
(5.37088e-06 4.83646e-06 3.23944e-21)
(5.20767e-06 4.7537e-06 3.18917e-21)
(5.04706e-06 4.67216e-06 3.11559e-21)
(4.88867e-06 4.5922e-06 3.02287e-21)
(4.7321e-06 4.51414e-06 2.91478e-21)
(4.57686e-06 4.43822e-06 2.79615e-21)
(4.42243e-06 4.36459e-06 2.67196e-21)
(4.26826e-06 4.2933e-06 2.5479e-21)
(4.1138e-06 4.2243e-06 2.42951e-21)
(3.95856e-06 4.15741e-06 2.32264e-21)
(3.80209e-06 4.09235e-06 2.23214e-21)
(3.64407e-06 4.02874e-06 2.16411e-21)