/*--------------------------------*- C++ -*----------------------------------*\
  =========                 |
  \\      /  F ield         | OpenFOAM: The Open Source CFD Toolbox
   \\    /   O peration     | Website:  https://openfoam.org
    \\  /    A nd           | Version:  9
     \\/     M anipulation  |
\*---------------------------------------------------------------------------*/
FoamFile
{
    format      ascii;
    class       volVectorField;
    location    "5";
    object      D_0;
}
// * * * * * * * * * * * * * * * * * * * * * * * * * * * * * * * * * * * * * //

dimensions      [0 1 0 0 0 0 0];

internalField   nonuniform List<vector> 
1000
(
(2.70552e-06 9.0919e-07 0)
(2.52459e-06 1.00412e-06 0)
(2.39297e-06 1.08403e-06 0)
(2.29787e-06 1.14648e-06 0)
(2.23001e-06 1.20039e-06 0)
(2.18214e-06 1.24678e-06 0)
(2.14973e-06 1.28857e-06 0)
(2.12916e-06 1.32664e-06 0)
(2.11757e-06 1.36215e-06 0)
(2.1135e-06 1.39582e-06 0)
(2.43816e-06 8.19813e-07 0)
(2.25028e-06 8.88763e-07 0)
(2.11452e-06 9.49265e-07 0)
(2.01685e-06 9.9596e-07 0)
(1.94725e-06 1.03699e-06 0)
(1.89798e-06 1.07226e-06 0)
(1.86422e-06 1.10426e-06 0)
(1.84213e-06 1.13352e-06 0)
(1.82878e-06 1.16066e-06 0)
(1.82218e-06 1.18715e-06 0)
(2.1651e-06 7.3025e-07 0)
(1.97549e-06 7.71523e-07 0)
(1.83929e-06 8.118e-07 0)
(1.74182e-06 8.42551e-07 0)
(1.6726e-06 8.70905e-07 0)
(1.62358e-06 8.95529e-07 0)
(1.58978e-06 9.18358e-07 0)
(1.56725e-06 9.39498e-07 0)
(1.55304e-06 9.59071e-07 0)
(1.54508e-06 9.78687e-07 0)
(1.88772e-06 6.41942e-07 0)
(1.70183e-06 6.54925e-07 0)
(1.56916e-06 6.74908e-07 0)
(1.47489e-06 6.90046e-07 0)
(1.40833e-06 7.06338e-07 0)
(1.36136e-06 7.21067e-07 0)
(1.32894e-06 7.35586e-07 0)
(1.30713e-06 7.49457e-07 0)
(1.29312e-06 7.62402e-07 0)
(1.28465e-06 7.75878e-07 0)
(1.60671e-06 5.56213e-07 0)
(1.43018e-06 5.41436e-07 0)
(1.30518e-06 5.41927e-07 0)
(1.21732e-06 5.42462e-07 0)
(1.15587e-06 5.47861e-07 0)
(1.11283e-06 5.53909e-07 0)
(1.08325e-06 5.61347e-07 0)
(1.06327e-06 5.69108e-07 0)
(1.05034e-06 5.76588e-07 0)
(1.04213e-06 5.8488e-07 0)
(1.32327e-06 4.73651e-07 0)
(1.1613e-06 4.32789e-07 0)
(1.04824e-06 4.15676e-07 0)
(9.70121e-07 4.03455e-07 0)
(9.16312e-07 3.99805e-07 0)
(8.79076e-07 3.98899e-07 0)
(8.53715e-07 4.00868e-07 0)
(8.36601e-07 4.03985e-07 0)
(8.25518e-07 4.07401e-07 0)
(8.18186e-07 4.1174e-07 0)
(1.03633e-06 3.94199e-07 0)
(8.94547e-07 3.30144e-07 0)
(7.9803e-07 2.98663e-07 0)
(7.33249e-07 2.76709e-07 0)
(6.8968e-07 2.66692e-07 0)
(6.60049e-07 2.61135e-07 0)
(6.40146e-07 2.59594e-07 0)
(6.26754e-07 2.59753e-07 0)
(6.18088e-07 2.60623e-07 0)
(6.1211e-07 2.62357e-07 0)
(7.47881e-07 3.15587e-07 0)
(6.31012e-07 2.331e-07 0)
(5.56007e-07 1.92845e-07 0)
(5.08015e-07 1.65826e-07 0)
(4.76856e-07 1.5314e-07 0)
(4.56109e-07 1.45833e-07 0)
(4.42403e-07 1.43018e-07 0)
(4.33188e-07 1.42028e-07 0)
(4.27216e-07 1.41885e-07 0)
(4.22886e-07 1.42394e-07 0)
(4.5146e-07 2.30042e-07 0)
(3.68884e-07 1.38847e-07 0)
(3.21413e-07 9.93016e-08 0)
(2.93234e-07 7.46745e-08 0)
(2.76143e-07 6.40975e-08 0)
(2.64952e-07 5.8244e-08 0)
(2.57722e-07 5.61969e-08 0)
(2.5277e-07 5.55002e-08 0)
(2.49508e-07 5.54386e-08 0)
(2.46935e-07 5.57071e-08 0)
(1.55603e-07 1.20407e-07 0)
(1.1729e-07 5.10832e-08 0)
(1.02679e-07 2.6742e-08 0)
(9.49515e-08 1.44969e-08 0)
(9.04655e-08 1.02773e-08 0)
(8.73303e-08 8.36582e-09 0)
(8.52802e-08 8.09472e-09 0)
(8.3775e-08 8.24858e-09 0)
(8.27444e-08 8.55562e-09 0)
(8.18335e-08 8.89561e-09 0)
(4.7709e-06 1.47296e-06 0)
(4.76298e-06 1.65623e-06 0)
(4.75751e-06 1.82698e-06 0)
(4.75766e-06 1.98331e-06 0)
(4.76481e-06 2.1268e-06 0)
(4.77947e-06 2.25925e-06 0)
(4.80173e-06 2.38273e-06 0)
(4.83113e-06 2.49902e-06 0)
(4.86741e-06 2.60954e-06 0)
(4.90965e-06 2.71586e-06 0)
(4.62129e-06 1.46085e-06 0)
(4.60005e-06 1.64359e-06 0)
(4.58558e-06 1.81226e-06 0)
(4.57916e-06 1.96543e-06 0)
(4.5815e-06 2.10508e-06 0)
(4.59217e-06 2.23309e-06 0)
(4.61082e-06 2.35175e-06 0)
(4.63657e-06 2.46293e-06 0)
(4.66906e-06 2.56812e-06 0)
(4.70704e-06 2.66911e-06 0)
(4.46261e-06 1.4363e-06 0)
(4.42559e-06 1.61857e-06 0)
(4.39887e-06 1.7838e-06 0)
(4.38277e-06 1.93202e-06 0)
(4.37747e-06 2.06624e-06 0)
(4.38171e-06 2.1886e-06 0)
(4.39473e-06 2.30154e-06 0)
(4.41518e-06 2.40698e-06 0)
(4.4426e-06 2.50645e-06 0)
(4.47528e-06 2.60179e-06 0)
(4.29113e-06 1.40061e-06 0)
(4.23639e-06 1.58199e-06 0)
(4.19542e-06 1.74301e-06 0)
(4.16786e-06 1.88519e-06 0)
(4.15319e-06 2.01286e-06 0)
(4.14946e-06 2.12853e-06 0)
(4.15552e-06 2.23484e-06 0)
(4.16958e-06 2.33372e-06 0)
(4.19107e-06 2.42677e-06 0)
(4.21776e-06 2.51581e-06 0)
(4.10487e-06 1.3541e-06 0)
(4.0307e-06 1.53316e-06 0)
(3.97449e-06 1.68864e-06 0)
(3.93485e-06 1.82337e-06 0)
(3.91027e-06 1.94324e-06 0)
(3.89812e-06 2.05106e-06 0)
(3.89682e-06 2.14974e-06 0)
(3.90418e-06 2.24122e-06 0)
(3.91948e-06 2.32716e-06 0)
(3.94004e-06 2.40927e-06 0)
(3.90357e-06 1.29788e-06 0)
(3.80887e-06 1.47214e-06 0)
(3.73711e-06 1.62046e-06 0)
(3.6854e-06 1.74648e-06 0)
(3.651e-06 1.85748e-06 0)
(3.63055e-06 1.95652e-06 0)
(3.62201e-06 2.04677e-06 0)
(3.62279e-06 2.1301e-06 0)
(3.63204e-06 2.2083e-06 0)
(3.64666e-06 2.28285e-06 0)
(3.68775e-06 1.23278e-06 0)
(3.57222e-06 1.39892e-06 0)
(3.48524e-06 1.53805e-06 0)
(3.42202e-06 1.65396e-06 0)
(3.37842e-06 1.75508e-06 0)
(3.35027e-06 1.84451e-06 0)
(3.33502e-06 1.92565e-06 0)
(3.32975e-06 2.00025e-06 0)
(3.33338e-06 2.0702e-06 0)
(3.34257e-06 2.13672e-06 0)
(3.45852e-06 1.16002e-06 0)
(3.32288e-06 1.31418e-06 0)
(3.22166e-06 1.44187e-06 0)
(3.14793e-06 1.54629e-06 0)
(3.0961e-06 1.63662e-06 0)
(3.06112e-06 1.71581e-06 0)
(3.03996e-06 1.78735e-06 0)
(3.02939e-06 1.85281e-06 0)
(3.02804e-06 1.91417e-06 0)
(3.03252e-06 1.97224e-06 0)
(3.21732e-06 1.08086e-06 0)
(3.06339e-06 1.219e-06 0)
(2.94957e-06 1.33288e-06 0)
(2.86676e-06 1.42445e-06 0)
(2.80797e-06 1.50321e-06 0)
(2.76732e-06 1.57168e-06 0)
(2.74123e-06 1.6333e-06 0)
(2.72625e-06 1.68946e-06 0)
(2.72066e-06 1.74197e-06 0)
(2.72129e-06 1.79149e-06 0)
(2.96578e-06 9.96732e-07 0)
(2.79641e-06 1.11497e-06 0)
(2.67227e-06 1.21283e-06 0)
(2.5822e-06 1.29033e-06 0)
(2.51797e-06 1.35689e-06 0)
(2.47294e-06 1.41434e-06 0)
(2.44304e-06 1.466e-06 0)
(2.42466e-06 1.51283e-06 0)
(2.41566e-06 1.55665e-06 0)
(2.41356e-06 1.59707e-06 0)
(4.96013e-06 2.81813e-06 0)
(5.01809e-06 2.91963e-06 0)
(5.0805e-06 3.01951e-06 0)
(5.14686e-06 3.11823e-06 0)
(5.21682e-06 3.2163e-06 0)
(5.28999e-06 3.31401e-06 0)
(5.36605e-06 3.41168e-06 0)
(5.44469e-06 3.50955e-06 0)
(5.52563e-06 3.60783e-06 0)
(5.6086e-06 3.70668e-06 0)
(5.69338e-06 3.80626e-06 0)
(5.77973e-06 3.9067e-06 0)
(5.86743e-06 4.00809e-06 0)
(5.95629e-06 4.11053e-06 0)
(6.0461e-06 4.21406e-06 0)
(6.13666e-06 4.31872e-06 0)
(6.22777e-06 4.42448e-06 0)
(6.31924e-06 4.53127e-06 0)
(6.4109e-06 4.63891e-06 0)
(6.50255e-06 4.74706e-06 0)
(4.75966e-06 2.76751e-06 0)
(4.82476e-06 2.86732e-06 0)
(4.89335e-06 2.9656e-06 0)
(4.96488e-06 3.06292e-06 0)
(5.03924e-06 3.15979e-06 0)
(5.11608e-06 3.25648e-06 0)
(5.19525e-06 3.35333e-06 0)
(5.27648e-06 3.45054e-06 0)
(5.35959e-06 3.54832e-06 0)
(5.44439e-06 3.64684e-06 0)
(5.5307e-06 3.74623e-06 0)
(5.61835e-06 3.84662e-06 0)
(5.70718e-06 3.94811e-06 0)
(5.79705e-06 4.05077e-06 0)
(5.8878e-06 4.15466e-06 0)
(5.97928e-06 4.2598e-06 0)
(6.07137e-06 4.36619e-06 0)
(6.16391e-06 4.47374e-06 0)
(6.25677e-06 4.58226e-06 0)
(6.34973e-06 4.69151e-06 0)
(4.53082e-06 2.69727e-06 0)
(4.60512e-06 2.79726e-06 0)
(4.68194e-06 2.89576e-06 0)
(4.76057e-06 2.99327e-06 0)
(4.8412e-06 3.0904e-06 0)
(4.92348e-06 3.18738e-06 0)
(5.00742e-06 3.28458e-06 0)
(5.09283e-06 3.3822e-06 0)
(5.17962e-06 3.48048e-06 0)
(5.26767e-06 3.57955e-06 0)
(5.35688e-06 3.67958e-06 0)
(5.44713e-06 3.78068e-06 0)
(5.53835e-06 3.88295e-06 0)
(5.63041e-06 3.98649e-06 0)
(5.72325e-06 4.09136e-06 0)
(5.81675e-06 4.19759e-06 0)
(5.91083e-06 4.30519e-06 0)
(6.00537e-06 4.41413e-06 0)
(6.10025e-06 4.52433e-06 0)
(6.19523e-06 4.6356e-06 0)
(4.27694e-06 2.60895e-06 0)
(4.36218e-06 2.71056e-06 0)
(4.44899e-06 2.81074e-06 0)
(4.53639e-06 2.90973e-06 0)
(4.62491e-06 3.00836e-06 0)
(4.71417e-06 3.10673e-06 0)
(4.80438e-06 3.20532e-06 0)
(4.89536e-06 3.3043e-06 0)
(4.98717e-06 3.40394e-06 0)
(5.07973e-06 3.50439e-06 0)
(5.17304e-06 3.60582e-06 0)
(5.26703e-06 3.70836e-06 0)
(5.3617e-06 3.81211e-06 0)
(5.45698e-06 3.91718e-06 0)
(5.55285e-06 4.02366e-06 0)
(5.64925e-06 4.13159e-06 0)
(5.74613e-06 4.24104e-06 0)
(5.8434e-06 4.35203e-06 0)
(5.94097e-06 4.46459e-06 0)
(6.03858e-06 4.57864e-06 0)
(4.00356e-06 2.50086e-06 0)
(4.10103e-06 2.60572e-06 0)
(4.19918e-06 2.70925e-06 0)
(4.29658e-06 2.8112e-06 0)
(4.39422e-06 2.91269e-06 0)
(4.49163e-06 3.01373e-06 0)
(4.58922e-06 3.11486e-06 0)
(4.68686e-06 3.21627e-06 0)
(4.7847e-06 3.31825e-06 0)
(4.88275e-06 3.42098e-06 0)
(4.98107e-06 3.52465e-06 0)
(5.07967e-06 3.6294e-06 0)
(5.1786e-06 3.73536e-06 0)
(5.27786e-06 3.84265e-06 0)
(5.37747e-06 3.95138e-06 0)
(5.47742e-06 4.06165e-06 0)
(5.5777e-06 4.17356e-06 0)
(5.67825e-06 4.28719e-06 0)
(5.77904e-06 4.40271e-06 0)
(5.87982e-06 4.52015e-06 0)
(3.71513e-06 2.37363e-06 0)
(3.82577e-06 2.48327e-06 0)
(3.93624e-06 2.59169e-06 0)
(4.04458e-06 2.698e-06 0)
(4.15226e-06 2.80365e-06 0)
(4.25872e-06 2.90854e-06 0)
(4.36456e-06 3.01333e-06 0)
(4.46968e-06 3.11821e-06 0)
(4.57437e-06 3.22349e-06 0)
(4.67867e-06 3.32939e-06 0)
(4.78272e-06 3.43612e-06 0)
(4.88661e-06 3.54384e-06 0)
(4.99043e-06 3.65273e-06 0)
(5.09425e-06 3.76291e-06 0)
(5.19813e-06 3.87453e-06 0)
(5.30212e-06 3.98773e-06 0)
(5.40626e-06 4.10265e-06 0)
(5.51054e-06 4.21946e-06 0)
(5.61494e-06 4.33842e-06 0)
(5.71932e-06 4.45965e-06 0)
(3.41643e-06 2.22748e-06 0)
(3.5407e-06 2.34345e-06 0)
(3.66411e-06 2.45827e-06 0)
(3.78397e-06 2.57035e-06 0)
(3.90232e-06 2.68142e-06 0)
(4.01845e-06 2.79138e-06 0)
(4.13315e-06 2.90091e-06 0)
(4.24636e-06 3.01025e-06 0)
(4.35846e-06 3.11978e-06 0)
(4.46955e-06 3.22972e-06 0)
(4.57986e-06 3.34034e-06 0)
(4.68952e-06 3.45182e-06 0)
(4.79869e-06 3.56434e-06 0)
(4.90748e-06 3.67809e-06 0)
(5.01603e-06 3.79322e-06 0)
(5.12442e-06 3.90991e-06 0)
(5.23274e-06 4.02837e-06 0)
(5.34104e-06 4.1488e-06 0)
(5.44937e-06 4.27157e-06 0)
(5.55766e-06 4.39687e-06 0)
(3.11195e-06 2.06373e-06 0)
(3.24989e-06 2.18747e-06 0)
(3.38638e-06 2.30991e-06 0)
(3.51806e-06 2.42906e-06 0)
(3.64733e-06 2.5467e-06 0)
(3.77351e-06 2.66286e-06 0)
(3.89744e-06 2.77818e-06 0)
(4.01916e-06 2.893e-06 0)
(4.13907e-06 3.00768e-06 0)
(4.25736e-06 3.12253e-06 0)
(4.3743e-06 3.23781e-06 0)
(4.49008e-06 3.35377e-06 0)
(4.60491e-06 3.47062e-06 0)
(4.71898e-06 3.58855e-06 0)
(4.83245e-06 3.70776e-06 0)
(4.94547e-06 3.82847e-06 0)
(5.05818e-06 3.9509e-06 0)
(5.17071e-06 4.07533e-06 0)
(5.28313e-06 4.20218e-06 0)
(5.39556e-06 4.33171e-06 0)
(2.80625e-06 1.88392e-06 0)
(2.95751e-06 2.01695e-06 0)
(3.10673e-06 2.14793e-06 0)
(3.25029e-06 2.27538e-06 0)
(3.39046e-06 2.40052e-06 0)
(3.52681e-06 2.5238e-06 0)
(3.66008e-06 2.64576e-06 0)
(3.79045e-06 2.76687e-06 0)
(3.91833e-06 2.88753e-06 0)
(4.044e-06 3.00806e-06 0)
(4.16775e-06 3.12878e-06 0)
(4.28984e-06 3.24995e-06 0)
(4.41052e-06 3.3718e-06 0)
(4.53002e-06 3.49455e-06 0)
(4.64856e-06 3.61843e-06 0)
(4.76635e-06 3.74366e-06 0)
(4.88357e-06 3.8705e-06 0)
(5.00043e-06 3.99926e-06 0)
(5.11705e-06 4.1304e-06 0)
(5.23372e-06 4.26422e-06 0)
(2.5029e-06 1.6908e-06 0)
(2.66679e-06 1.83407e-06 0)
(2.82742e-06 1.97387e-06 0)
(2.98257e-06 2.11049e-06 0)
(3.13344e-06 2.24415e-06 0)
(3.28001e-06 2.37552e-06 0)
(3.42275e-06 2.50506e-06 0)
(3.56195e-06 2.6333e-06 0)
(3.69799e-06 2.76067e-06 0)
(3.8312e-06 2.88758e-06 0)
(3.9619e-06 3.01436e-06 0)
(4.09041e-06 3.14132e-06 0)
(4.21703e-06 3.26872e-06 0)
(4.34203e-06 3.3968e-06 0)
(4.46569e-06 3.52581e-06 0)
(4.58826e-06 3.65598e-06 0)
(4.70999e-06 3.78758e-06 0)
(4.83117e-06 3.92092e-06 0)
(4.95198e-06 4.05649e-06 0)
(5.07288e-06 4.19457e-06 0)
(2.26893e-06 1.546e-06 0)
(2.43981e-06 1.6967e-06 0)
(2.60643e-06 1.8415e-06 0)
(2.76788e-06 1.98334e-06 0)
(2.92482e-06 2.12222e-06 0)
(3.07727e-06 2.25873e-06 0)
(3.22564e-06 2.39335e-06 0)
(3.37016e-06 2.52649e-06 0)
(3.51121e-06 2.65859e-06 0)
(3.64907e-06 2.79001e-06 0)
(3.78409e-06 2.92108e-06 0)
(3.91658e-06 3.05209e-06 0)
(4.04685e-06 3.18329e-06 0)
(4.17521e-06 3.31491e-06 0)
(4.30193e-06 3.4472e-06 0)
(4.42732e-06 3.58036e-06 0)
(4.55165e-06 3.71466e-06 0)
(4.67528e-06 3.85037e-06 0)
(4.79842e-06 3.9879e-06 0)
(4.9217e-06 4.12754e-06 0)
(2.11282e-06 1.45937e-06 0)
(2.28373e-06 1.61006e-06 0)
(2.4504e-06 1.75604e-06 0)
(2.61238e-06 1.89948e-06 0)
(2.77012e-06 2.04033e-06 0)
(2.92357e-06 2.17902e-06 0)
(3.07308e-06 2.3159e-06 0)
(3.21881e-06 2.45132e-06 0)
(3.36108e-06 2.58564e-06 0)
(3.50013e-06 2.71915e-06 0)
(3.63627e-06 2.85216e-06 0)
(3.7698e-06 2.9849e-06 0)
(3.901e-06 3.11762e-06 0)
(4.03017e-06 3.25051e-06 0)
(4.15759e-06 3.38378e-06 0)
(4.28357e-06 3.51762e-06 0)
(4.4084e-06 3.65225e-06 0)
(4.53246e-06 3.78789e-06 0)
(4.65598e-06 3.92487e-06 0)
(4.77968e-06 4.06339e-06 0)
(1.97502e-06 1.37619e-06 0)
(2.14286e-06 1.52644e-06 0)
(2.30783e-06 1.67283e-06 0)
(2.46856e-06 1.81724e-06 0)
(2.62566e-06 1.95952e-06 0)
(2.77883e-06 2.09992e-06 0)
(2.92835e-06 2.23871e-06 0)
(3.0743e-06 2.37614e-06 0)
(3.21692e-06 2.51247e-06 0)
(3.35642e-06 2.64796e-06 0)
(3.49305e-06 2.78281e-06 0)
(3.62707e-06 2.91725e-06 0)
(3.75874e-06 3.05146e-06 0)
(3.88835e-06 3.18561e-06 0)
(4.01617e-06 3.31986e-06 0)
(4.14251e-06 3.45437e-06 0)
(4.26764e-06 3.5893e-06 0)
(4.39198e-06 3.72482e-06 0)
(4.51576e-06 3.86114e-06 0)
(4.63976e-06 3.99838e-06 0)
(1.85152e-06 1.29608e-06 0)
(2.01534e-06 1.44511e-06 0)
(2.17735e-06 1.59137e-06 0)
(2.33568e-06 1.73635e-06 0)
(2.49101e-06 1.87971e-06 0)
(2.64284e-06 2.02156e-06 0)
(2.79142e-06 2.16203e-06 0)
(2.93671e-06 2.30128e-06 0)
(3.07891e-06 2.43948e-06 0)
(3.21816e-06 2.5768e-06 0)
(3.35468e-06 2.71341e-06 0)
(3.48867e-06 2.84947e-06 0)
(3.62038e-06 2.98512e-06 0)
(3.75007e-06 3.12048e-06 0)
(3.87798e-06 3.25568e-06 0)
(4.00442e-06 3.39083e-06 0)
(4.12967e-06 3.52602e-06 0)
(4.25411e-06 3.66137e-06 0)
(4.37803e-06 3.79696e-06 0)
(4.50219e-06 3.93283e-06 0)
(1.74089e-06 1.21988e-06 0)
(1.89978e-06 1.36724e-06 0)
(2.05782e-06 1.51289e-06 0)
(2.21279e-06 1.65795e-06 0)
(2.36541e-06 1.80194e-06 0)
(2.51502e-06 1.94484e-06 0)
(2.66183e-06 2.08665e-06 0)
(2.80572e-06 2.22743e-06 0)
(2.94681e-06 2.36725e-06 0)
(3.08521e-06 2.50622e-06 0)
(3.22107e-06 2.64443e-06 0)
(3.35457e-06 2.78198e-06 0)
(3.48592e-06 2.91897e-06 0)
(3.61534e-06 3.05547e-06 0)
(3.74307e-06 3.19156e-06 0)
(3.86937e-06 3.32729e-06 0)
(3.99454e-06 3.4627e-06 0)
(4.11887e-06 3.59784e-06 0)
(4.24288e-06 3.7326e-06 0)
(4.36713e-06 3.86705e-06 0)
(1.64101e-06 1.14754e-06 0)
(1.79448e-06 1.29282e-06 0)
(1.94788e-06 1.43744e-06 0)
(2.09882e-06 1.58219e-06 0)
(2.24801e-06 1.72645e-06 0)
(2.39471e-06 1.87006e-06 0)
(2.53908e-06 2.01292e-06 0)
(2.68092e-06 2.15495e-06 0)
(2.82033e-06 2.29617e-06 0)
(2.95733e-06 2.43657e-06 0)
(3.09206e-06 2.5762e-06 0)
(3.22465e-06 2.7151e-06 0)
(3.35527e-06 2.8533e-06 0)
(3.48411e-06 2.99084e-06 0)
(3.6114e-06 3.12773e-06 0)
(3.73737e-06 3.26398e-06 0)
(3.86227e-06 3.39957e-06 0)
(3.98649e-06 3.53441e-06 0)
(4.11023e-06 3.6684e-06 0)
(4.23425e-06 3.8015e-06 0)
(1.55014e-06 1.07912e-06 0)
(1.69789e-06 1.22207e-06 0)
(1.84618e-06 1.36537e-06 0)
(1.99259e-06 1.50947e-06 0)
(2.13782e-06 1.65365e-06 0)
(2.28106e-06 1.79766e-06 0)
(2.42244e-06 1.94124e-06 0)
(2.56173e-06 2.08425e-06 0)
(2.69895e-06 2.2266e-06 0)
(2.83412e-06 2.36822e-06 0)
(2.9673e-06 2.50907e-06 0)
(3.09861e-06 2.64914e-06 0)
(3.22818e-06 2.78841e-06 0)
(3.35618e-06 2.92686e-06 0)
(3.48278e-06 3.06445e-06 0)
(3.60823e-06 3.20115e-06 0)
(3.73271e-06 3.33685e-06 0)
(3.8566e-06 3.47145e-06 0)
(3.98005e-06 3.60468e-06 0)
(4.10377e-06 3.73645e-06 0)
(1.4666e-06 1.01445e-06 0)
(1.60847e-06 1.15491e-06 0)
(1.75137e-06 1.29666e-06 0)
(1.89292e-06 1.43986e-06 0)
(2.03379e-06 1.5837e-06 0)
(2.17317e-06 1.72781e-06 0)
(2.31115e-06 1.87186e-06 0)
(2.44746e-06 2.01559e-06 0)
(2.58211e-06 2.15882e-06 0)
(2.71506e-06 2.30143e-06 0)
(2.84636e-06 2.44329e-06 0)
(2.97608e-06 2.58435e-06 0)
(3.10432e-06 2.72452e-06 0)
(3.23123e-06 2.86374e-06 0)
(3.35696e-06 3.00194e-06 0)
(3.48169e-06 3.139e-06 0)
(3.60562e-06 3.27478e-06 0)
(3.72904e-06 3.40911e-06 0)
(3.85211e-06 3.54165e-06 0)
(3.97543e-06 3.67223e-06 0)
(1.38886e-06 9.53338e-07 0)
(1.5248e-06 1.09126e-06 0)
(1.66214e-06 1.23133e-06 0)
(1.79861e-06 1.37344e-06 0)
(1.93486e-06 1.51672e-06 0)
(2.07007e-06 1.66071e-06 0)
(2.20433e-06 1.80497e-06 0)
(2.33734e-06 1.94917e-06 0)
(2.4691e-06 2.09306e-06 0)
(2.59954e-06 2.23642e-06 0)
(2.72867e-06 2.37909e-06 0)
(2.85655e-06 2.52095e-06 0)
(2.98325e-06 2.66185e-06 0)
(3.10887e-06 2.8017e-06 0)
(3.23354e-06 2.94037e-06 0)
(3.35743e-06 3.07772e-06 0)
(3.48067e-06 3.21354e-06 0)
(3.60353e-06 3.34763e-06 0)
(3.72611e-06 3.47956e-06 0)
(3.84892e-06 3.60911e-06 0)
(1.31553e-06 8.9555e-07 0)
(1.44554e-06 1.03097e-06 0)
(1.57723e-06 1.1693e-06 0)
(1.70849e-06 1.3102e-06 0)
(1.83992e-06 1.45275e-06 0)
(1.97076e-06 1.59642e-06 0)
(2.10107e-06 1.74068e-06 0)
(2.23055e-06 1.88514e-06 0)
(2.35918e-06 2.02946e-06 0)
(2.48687e-06 2.17337e-06 0)
(2.61362e-06 2.31664e-06 0)
(2.73946e-06 2.4591e-06 0)
(2.86442e-06 2.60057e-06 0)
(2.9886e-06 2.74089e-06 0)
(3.11208e-06 2.87992e-06 0)
(3.235e-06 3.01746e-06 0)
(3.35746e-06 3.1533e-06 0)
(3.47966e-06 3.28716e-06 0)
(3.60169e-06 3.41859e-06 0)
(3.72391e-06 3.54733e-06 0)
(1.24532e-06 8.40859e-07 0)
(1.36941e-06 9.73874e-07 0)
(1.49541e-06 1.11045e-06 0)
(1.62139e-06 1.25008e-06 0)
(1.74788e-06 1.39179e-06 0)
(1.87421e-06 1.53499e-06 0)
(2.0004e-06 1.67908e-06 0)
(2.12618e-06 1.8236e-06 0)
(2.25152e-06 1.96814e-06 0)
(2.3763e-06 2.11239e-06 0)
(2.50052e-06 2.25606e-06 0)
(2.62416e-06 2.39893e-06 0)
(2.74727e-06 2.54079e-06 0)
(2.86988e-06 2.68145e-06 0)
(2.99206e-06 2.8207e-06 0)
(3.11392e-06 2.95836e-06 0)
(3.23552e-06 3.09417e-06 0)
(3.357e-06 3.22784e-06 0)
(3.47841e-06 3.35889e-06 0)
(3.59999e-06 3.48704e-06 0)
(1.17702e-06 7.89076e-07 0)
(1.29522e-06 9.19821e-07 0)
(1.41551e-06 1.05469e-06 0)
(1.53615e-06 1.19302e-06 0)
(1.65764e-06 1.33382e-06 0)
(1.77936e-06 1.47642e-06 0)
(1.90135e-06 1.62018e-06 0)
(2.02333e-06 1.76458e-06 0)
(2.14526e-06 1.90916e-06 0)
(2.26703e-06 2.05356e-06 0)
(2.38862e-06 2.19744e-06 0)
(2.50998e-06 2.34054e-06 0)
(2.63114e-06 2.48262e-06 0)
(2.75211e-06 2.62345e-06 0)
(2.87293e-06 2.76282e-06 0)
(2.99366e-06 2.90051e-06 0)
(3.11435e-06 3.03624e-06 0)
(3.23507e-06 3.16976e-06 0)
(3.35583e-06 3.30056e-06 0)
(3.47673e-06 3.42837e-06 0)
(1.10947e-06 7.40021e-07 0)
(1.22178e-06 8.68663e-07 0)
(1.33634e-06 1.0019e-06 0)
(1.45161e-06 1.13893e-06 0)
(1.56807e-06 1.27876e-06 0)
(1.68515e-06 1.42068e-06 0)
(1.80288e-06 1.56398e-06 0)
(1.92101e-06 1.7081e-06 0)
(2.0395e-06 1.85255e-06 0)
(2.15822e-06 1.99691e-06 0)
(2.27713e-06 2.14082e-06 0)
(2.39618e-06 2.28397e-06 0)
(2.51535e-06 2.4261e-06 0)
(2.63465e-06 2.56696e-06 0)
(2.75408e-06 2.70632e-06 0)
(2.87367e-06 2.84395e-06 0)
(2.99342e-06 2.97958e-06 0)
(3.11336e-06 3.11296e-06 0)
(3.23346e-06 3.24362e-06 0)
(3.35367e-06 3.37134e-06 0)
(1.04152e-06 6.93625e-07 0)
(1.1479e-06 8.20333e-07 0)
(1.25672e-06 9.52006e-07 0)
(1.36661e-06 1.08776e-06 0)
(1.47802e-06 1.22658e-06 0)
(1.59046e-06 1.36772e-06 0)
(1.70394e-06 1.51043e-06 0)
(1.81825e-06 1.65413e-06 0)
(1.93331e-06 1.79828e-06 0)
(2.049e-06 1.94243e-06 0)
(2.16526e-06 2.08619e-06 0)
(2.28201e-06 2.22923e-06 0)
(2.39923e-06 2.37126e-06 0)
(2.51687e-06 2.512e-06 0)
(2.63492e-06 2.65123e-06 0)
(2.75337e-06 2.7887e-06 0)
(2.8722e-06 2.92418e-06 0)
(2.99137e-06 3.05744e-06 0)
(3.11081e-06 3.18808e-06 0)
(3.23038e-06 3.31591e-06 0)
(9.71977e-07 6.49758e-07 0)
(1.07237e-06 7.74701e-07 0)
(1.1754e-06 9.04892e-07 0)
(1.27991e-06 1.03939e-06 0)
(1.3863e-06 1.17717e-06 0)
(1.49414e-06 1.31744e-06 0)
(1.60344e-06 1.45945e-06 0)
(1.71399e-06 1.60259e-06 0)
(1.8257e-06 1.74628e-06 0)
(1.93845e-06 1.89006e-06 0)
(2.05215e-06 2.03351e-06 0)
(2.16671e-06 2.17627e-06 0)
(2.28205e-06 2.31804e-06 0)
(2.39812e-06 2.45854e-06 0)
(2.51486e-06 2.59752e-06 0)
(2.63223e-06 2.73475e-06 0)
(2.75018e-06 2.87003e-06 0)
(2.86862e-06 3.00316e-06 0)
(2.98745e-06 3.13385e-06 0)
(3.10642e-06 3.26198e-06 0)
(8.99607e-07 6.08567e-07 0)
(9.93922e-07 7.31865e-07 0)
(1.09112e-06 8.60612e-07 0)
(1.19027e-06 9.93837e-07 0)
(1.29169e-06 1.1305e-06 0)
(1.39502e-06 1.26981e-06 0)
(1.50025e-06 1.41099e-06 0)
(1.60718e-06 1.5534e-06 0)
(1.71571e-06 1.69647e-06 0)
(1.82568e-06 1.83971e-06 0)
(1.93699e-06 1.98268e-06 0)
(2.04951e-06 2.12501e-06 0)
(2.16314e-06 2.26638e-06 0)
(2.27778e-06 2.4065e-06 0)
(2.39335e-06 2.54512e-06 0)
(2.50975e-06 2.68203e-06 0)
(2.6269e-06 2.81705e-06 0)
(2.74468e-06 2.95003e-06 0)
(2.86296e-06 3.08081e-06 0)
(2.98143e-06 3.20936e-06 0)
(8.22976e-07 5.69833e-07 0)
(9.11099e-07 6.91588e-07 0)
(1.00244e-06 8.18914e-07 0)
(1.09627e-06 9.50838e-07 0)
(1.19282e-06 1.08632e-06 0)
(1.2918e-06 1.22456e-06 0)
(1.39315e-06 1.36478e-06 0)
(1.49668e-06 1.50633e-06 0)
(1.60226e-06 1.64863e-06 0)
(1.7097e-06 1.79117e-06 0)
(1.81888e-06 1.93352e-06 0)
(1.92962e-06 2.07528e-06 0)
(2.04179e-06 2.21612e-06 0)
(2.15524e-06 2.35575e-06 0)
(2.26984e-06 2.49392e-06 0)
(2.38547e-06 2.63044e-06 0)
(2.50199e-06 2.76514e-06 0)
(2.61924e-06 2.89793e-06 0)
(2.73707e-06 3.02878e-06 0)
(2.85515e-06 3.15779e-06 0)
(7.40666e-07 5.3417e-07 0)
(8.22477e-07 6.54344e-07 0)
(9.07949e-07 7.80149e-07 0)
(9.96536e-07 9.10636e-07 0)
(1.08839e-06 1.04477e-06 0)
(1.18323e-06 1.18176e-06 0)
(1.28098e-06 1.32082e-06 0)
(1.38141e-06 1.46131e-06 0)
(1.48436e-06 1.60264e-06 0)
(1.58963e-06 1.7443e-06 0)
(1.69702e-06 1.88584e-06 0)
(1.80633e-06 2.02687e-06 0)
(1.91738e-06 2.16705e-06 0)
(2.02998e-06 2.30608e-06 0)
(2.14393e-06 2.44372e-06 0)
(2.25905e-06 2.57978e-06 0)
(2.37518e-06 2.71411e-06 0)
(2.4921e-06 2.84667e-06 0)
(2.60962e-06 2.97754e-06 0)
(2.72744e-06 3.10696e-06 0)
(6.50595e-07 5.00721e-07 0)
(7.2601e-07 6.19288e-07 0)
(8.05672e-07 7.435e-07 0)
(8.89195e-07 8.72451e-07 0)
(9.76613e-07 1.00512e-06 0)
(1.06766e-06 1.14072e-06 0)
(1.1622e-06 1.27849e-06 0)
(1.25996e-06 1.41777e-06 0)
(1.36075e-06 1.55799e-06 0)
(1.46431e-06 1.69863e-06 0)
(1.5704e-06 1.83924e-06 0)
(1.67878e-06 1.97943e-06 0)
(1.78919e-06 2.11886e-06 0)
(1.9014e-06 2.25722e-06 0)
(2.01516e-06 2.39427e-06 0)
(2.13021e-06 2.52982e-06 0)
(2.24633e-06 2.66375e-06 0)
(2.36323e-06 2.79605e-06 0)
(2.4807e-06 2.92686e-06 0)
(2.5984e-06 3.05656e-06 0)
(5.51588e-07 4.71453e-07 0)
(6.20563e-07 5.88031e-07 0)
(6.94553e-07 7.10255e-07 0)
(7.73254e-07 8.37279e-07 0)
(8.56587e-07 9.68101e-07 0)
(9.44255e-07 1.10196e-06 0)
(1.03604e-06 1.23809e-06 0)
(1.13165e-06 1.37585e-06 0)
(1.23081e-06 1.51467e-06 0)
(1.3332e-06 1.65403e-06 0)
(1.43855e-06 1.79348e-06 0)
(1.54654e-06 1.93264e-06 0)
(1.65688e-06 2.07115e-06 0)
(1.76927e-06 2.20873e-06 0)
(1.88339e-06 2.34512e-06 0)
(1.99891e-06 2.48013e-06 0)
(2.11553e-06 2.61367e-06 0)
(2.23287e-06 2.74571e-06 0)
(2.35062e-06 2.87641e-06 0)
(2.46841e-06 3.00618e-06 0)
(7.91098e-08 8.48654e-09 0)
(2.38982e-07 5.24915e-08 0)
(4.0894e-07 1.3458e-07 0)
(5.91131e-07 2.4927e-07 0)
(7.89055e-07 3.93455e-07 0)
(1.0038e-06 5.62008e-07 0)
(1.23623e-06 7.49445e-07 0)
(1.48593e-06 9.50021e-07 0)
(1.75217e-06 1.15793e-06 0)
(2.03354e-06 1.3684e-06 0)
(7.45181e-08 7.5724e-09 0)
(2.25274e-07 4.70982e-08 0)
(3.85133e-07 1.21627e-07 0)
(5.55755e-07 2.26715e-07 0)
(7.40333e-07 3.6002e-07 0)
(9.39875e-07 5.1723e-07 0)
(1.15526e-06 6.93585e-07 0)
(1.38611e-06 8.84015e-07 0)
(1.63159e-06 1.08294e-06 0)
(1.89021e-06 1.28659e-06 0)
(7.03904e-08 6.49702e-09 0)
(2.12975e-07 4.16443e-08 0)
(3.63894e-07 1.09103e-07 0)
(5.24258e-07 2.05226e-07 0)
(6.96911e-07 3.28254e-07 0)
(8.82704e-07 4.74531e-07 0)
(1.08258e-06 6.39911e-07 0)
(1.29639e-06 8.2003e-07 0)
(1.52381e-06 1.00982e-06 0)
(1.76324e-06 1.2066e-06 0)
(6.66132e-08 5.25137e-09 0)
(2.0177e-07 3.61717e-08 0)
(3.44779e-07 9.72466e-08 0)
(4.96242e-07 1.85396e-07 0)
(6.587e-07 2.99292e-07 0)
(8.32777e-07 4.35784e-07 0)
(1.01935e-06 5.91166e-07 0)
(1.21816e-06 7.6154e-07 0)
(1.42925e-06 9.42107e-07 0)
(1.65069e-06 1.13053e-06 0)
(6.30817e-08 3.82293e-09 0)
(1.91312e-07 3.04893e-08 0)
(3.27059e-07 8.55104e-08 0)
(4.70458e-07 1.66231e-07 0)
(6.23785e-07 2.71639e-07 0)
(7.87451e-07 3.9899e-07 0)
(9.62329e-07 5.4497e-07 0)
(1.14805e-06 7.06121e-07 0)
(1.34503e-06 8.78051e-07 0)
(1.55073e-06 1.05839e-06 0)
(5.97672e-08 2.23532e-09 0)
(1.81512e-07 2.46344e-08 0)
(3.10573e-07 7.39573e-08 0)
(4.46664e-07 1.47859e-07 0)
(5.91831e-07 2.45556e-07 0)
(7.46254e-07 3.64595e-07 0)
(9.10769e-07 5.01953e-07 0)
(1.08484e-06 6.54446e-07 0)
(1.26924e-06 8.18079e-07 0)
(1.46101e-06 9.90322e-07 0)
(5.66026e-08 4.80612e-10 0)
(1.72162e-07 1.85213e-08 0)
(2.94925e-07 6.23411e-08 0)
(4.24227e-07 1.29825e-07 0)
(5.61925e-07 2.20358e-07 0)
(7.07993e-07 3.31715e-07 0)
(8.63249e-07 4.61126e-07 0)
(1.027e-06 6.05617e-07 0)
(1.20025e-06 7.61577e-07 0)
(1.37977e-06 9.26204e-07 0)
(5.35635e-08 -1.41858e-09 0)
(1.63186e-07 1.21761e-08 0)
(2.79964e-07 5.06698e-08 0)
(4.02893e-07 1.12117e-07 0)
(5.33669e-07 1.9602e-07 0)
(6.7208e-07 3.0031e-07 0)
(8.18914e-07 4.22415e-07 0)
(9.73366e-07 5.59494e-07 0)
(1.13659e-06 7.08297e-07 0)
(1.30525e-06 8.65793e-07 0)
(5.06105e-08 -3.46341e-09 0)
(1.54465e-07 5.56418e-09 0)
(2.65473e-07 3.88333e-08 0)
(3.82323e-07 9.4525e-08 0)
(5.06574e-07 1.72224e-07 0)
(6.37855e-07 2.69973e-07 0)
(7.76929e-07 3.85361e-07 0)
(9.22913e-07 5.15639e-07 0)
(1.07702e-06 6.57856e-07 0)
(1.23598e-06 8.08806e-07 0)
(4.77221e-08 -5.63983e-09 0)
(1.45934e-07 -1.30228e-09 0)
(2.51329e-07 2.68208e-08 0)
(3.62307e-07 7.70074e-08 0)
(4.80309e-07 1.48888e-07 0)
(6.04836e-07 2.40576e-07 0)
(7.36621e-07 3.49779e-07 0)
(8.74757e-07 4.73812e-07 0)
(1.02046e-06 6.09969e-07 0)
(1.17062e-06 7.54946e-07 0)
(4.48746e-08 -7.94683e-09 0)
(1.37524e-07 -8.43946e-09 0)
(2.37403e-07 1.45783e-08 0)
(3.42638e-07 5.94636e-08 0)
(4.54561e-07 1.25861e-07 0)
(5.72578e-07 2.11918e-07 0)
(6.97394e-07 3.1543e-07 0)
(8.28123e-07 4.3375e-07 0)
(9.65941e-07 5.64365e-07 0)
(1.10797e-06 7.03933e-07 0)
(4.20531e-08 -1.03803e-08 0)
(1.29195e-07 -1.58483e-08 0)
(2.2361e-07 2.09068e-09 0)
(3.2316e-07 4.1864e-08 0)
(4.29074e-07 1.03089e-07 0)
(5.40697e-07 1.8392e-07 0)
(6.58712e-07 2.82194e-07 0)
(7.82299e-07 3.95296e-07 0)
(9.12572e-07 5.20856e-07 0)
(1.04693e-06 6.55549e-07 0)
(3.92483e-08 -1.29464e-08 0)
(1.20927e-07 -2.35522e-08 0)
(2.09896e-07 -1.06834e-08 0)
(3.03752e-07 2.41549e-08 0)
(4.03625e-07 8.05049e-08 0)
(5.0884e-07 1.56491e-07 0)
(6.20078e-07 2.49957e-07 0)
(7.36618e-07 3.58309e-07 0)
(8.59507e-07 4.79279e-07 0)
(9.86461e-07 6.09596e-07 0)
(3.646e-08 -1.56666e-08 0)
(1.12733e-07 -3.15777e-08 0)
(1.96241e-07 -2.3757e-08 0)
(2.84323e-07 6.35183e-09 0)
(3.78017e-07 5.81409e-08 0)
(4.7668e-07 1.29665e-07 0)
(5.8101e-07 2.18742e-07 0)
(6.90429e-07 3.22786e-07 0)
(8.05922e-07 4.39605e-07 0)
(9.25533e-07 5.66009e-07 0)
(3.37132e-08 -1.85809e-08 0)
(1.04714e-07 -3.99951e-08 0)
(1.82721e-07 -3.71942e-08 0)
(2.64859e-07 -1.15886e-08 0)
(3.52093e-07 3.5972e-08 0)
(4.43893e-07 1.03422e-07 0)
(5.41012e-07 1.88516e-07 0)
(6.43049e-07 2.88671e-07 0)
(7.50943e-07 4.01753e-07 0)
(8.63079e-07 5.24671e-07 0)
(3.10613e-08 -2.18256e-08 0)
(9.70346e-08 -4.89058e-08 0)
(1.69459e-07 -5.09721e-08 0)
(2.45364e-07 -2.95062e-08 0)
(3.257e-07 1.42474e-08 0)
(4.10147e-07 7.80519e-08 0)
(4.99566e-07 1.59576e-07 0)
(5.93773e-07 2.56243e-07 0)
(6.93675e-07 3.65967e-07 0)
(7.98007e-07 4.85776e-07 0)
(2.87024e-08 -2.55609e-08 0)
(9.02081e-08 -5.85114e-08 0)
(1.56881e-07 -6.52242e-08 0)
(2.26021e-07 -4.74942e-08 0)
(2.98734e-07 -7.09009e-09 0)
(3.75065e-07 5.34996e-08 0)
(4.56044e-07 1.31851e-07 0)
(5.41734e-07 2.25398e-07 0)
(6.33028e-07 3.32108e-07 0)
(7.29009e-07 4.49138e-07 0)
(2.70566e-08 -3.04834e-08 0)
(8.48271e-08 -6.91258e-08 0)
(1.45397e-07 -7.96669e-08 0)
(2.06923e-07 -6.48371e-08 0)
(2.71011e-07 -2.71255e-08 0)
(3.38195e-07 3.07535e-08 0)
(4.09764e-07 1.06319e-07 0)
(4.86035e-07 1.97063e-07 0)
(5.67903e-07 3.0102e-07 0)
(6.54788e-07 4.15506e-07 0)
(2.81707e-08 -3.71007e-08 0)
(8.30995e-08 -8.11308e-08 0)
(1.36413e-07 -9.45726e-08 0)
(1.88563e-07 -8.19434e-08 0)
(2.42312e-07 -4.63526e-08 0)
(2.98808e-07 9.22051e-09 0)
(3.59608e-07 8.23083e-08 0)
(4.2524e-07 1.70492e-07 0)
(4.96598e-07 2.71905e-07 0)
(5.73379e-07 3.84026e-07 0)
(3.63788e-08 -4.90945e-08 0)
(8.64146e-08 -9.48163e-08 0)
(1.30595e-07 -1.08056e-07 0)
(1.70873e-07 -9.58809e-08 0)
(2.12305e-07 -6.16516e-08 0)
(2.56346e-07 -8.00614e-09 0)
(3.04871e-07 6.27614e-08 0)
(3.58496e-07 1.48444e-07 0)
(4.18141e-07 2.47299e-07 0)
(4.83657e-07 3.56998e-07 0)
)
;

boundaryField
{
    left
    {
        type            fixedDisplacement;
        value           uniform (0 0 0);
    }
    right
    {
        type            solidTraction;
        tractionSeries  
{
        file            "$FOAM_CASE/constant/timeVsTraction";
        outOfBounds     clamp;
}
        pressure        uniform 0;
        secondOrder     false;
        setEffectiveTraction false;
        relaxationFactor 1;
        value           nonuniform List<vector> 
30
(
(6.54818e-06 4.80102e-06 2.1136e-21)
(6.39564e-06 4.746e-06 2.122e-21)
(6.24175e-06 4.69137e-06 2.16475e-21)
(6.08608e-06 4.63611e-06 2.24769e-21)
(5.92865e-06 4.57961e-06 2.36837e-21)
(5.76983e-06 4.52128e-06 2.52356e-21)
(5.61016e-06 4.46077e-06 2.70777e-21)
(5.45033e-06 4.39793e-06 2.91521e-21)
(5.29101e-06 4.33273e-06 3.13937e-21)
(5.13291e-06 4.26535e-06 3.37286e-21)
(4.98338e-06 4.19906e-06 3.53553e-21)
(4.84159e-06 4.1339e-06 3.60045e-21)
(4.70181e-06 4.06778e-06 3.64476e-21)
(4.56433e-06 4.00101e-06 3.6693e-21)
(4.42927e-06 3.93406e-06 3.67028e-21)
(4.29631e-06 3.86737e-06 3.64922e-21)
(4.16569e-06 3.80118e-06 3.60958e-21)
(4.03714e-06 3.73597e-06 3.55138e-21)
(3.91037e-06 3.67202e-06 3.47791e-21)
(3.78505e-06 3.60959e-06 3.39222e-21)
(3.6608e-06 3.54886e-06 3.29814e-21)
(3.53719e-06 3.48997e-06 3.19954e-21)
(3.41379e-06 3.43295e-06 3.10102e-21)
(3.29016e-06 3.37775e-06 3.007e-21)
(3.1659e-06 3.32425e-06 2.92204e-21)
(3.04066e-06 3.2722e-06 2.8501e-21)
(2.91418e-06 3.22132e-06 2.79587e-21)