/*--------------------------------*- C++ -*----------------------------------*\
  =========                 |
  \\      /  F ield         | OpenFOAM: The Open Source CFD Toolbox
   \\    /   O peration     | Website:  https://openfoam.org
    \\  /    A nd           | Version:  9
     \\/     M anipulation  |
\*---------------------------------------------------------------------------*/
FoamFile
{
    format      ascii;
    class       volScalarField;
    location    "5";
    object      epsilonEq;
}
// * * * * * * * * * * * * * * * * * * * * * * * * * * * * * * * * * * * * * //

dimensions      [0 0 0 0 0 0 0];

internalField   nonuniform List<scalar> 
1000
(
3.40753e-06
3.2353e-06
3.18607e-06
3.21056e-06
3.21399e-06
3.20737e-06
3.18517e-06
3.1513e-06
3.11347e-06
3.06621e-06
3.97242e-06
3.60707e-06
3.43035e-06
3.3759e-06
3.32712e-06
3.28544e-06
3.23698e-06
3.18558e-06
3.12736e-06
3.07595e-06
4.52466e-06
3.96526e-06
3.65156e-06
3.50714e-06
3.39756e-06
3.31431e-06
3.23509e-06
3.16162e-06
3.08435e-06
3.02256e-06
5.05339e-06
4.30545e-06
3.85034e-06
3.60738e-06
3.42948e-06
3.29934e-06
3.18622e-06
3.08919e-06
2.99347e-06
2.92069e-06
5.54214e-06
4.61954e-06
4.02284e-06
3.67576e-06
3.42348e-06
3.24191e-06
3.09242e-06
2.9704e-06
2.85732e-06
2.77288e-06
5.99332e-06
4.90509e-06
4.16659e-06
3.712e-06
3.38114e-06
3.14551e-06
2.95855e-06
2.81134e-06
2.68197e-06
2.58551e-06
6.38161e-06
5.14334e-06
4.26122e-06
3.70075e-06
3.29407e-06
3.00773e-06
2.78702e-06
2.61767e-06
2.47529e-06
2.3679e-06
6.74699e-06
5.32404e-06
4.28881e-06
3.63305e-06
3.16187e-06
2.83618e-06
2.5916e-06
2.40779e-06
2.25865e-06
2.14383e-06
7.00092e-06
5.34264e-06
4.15424e-06
3.44142e-06
2.95352e-06
2.62283e-06
2.3796e-06
2.19732e-06
2.05181e-06
1.9354e-06
7.21966e-06
5.03692e-06
3.8351e-06
3.16593e-06
2.74291e-06
2.44989e-06
2.234e-06
2.06581e-06
1.92966e-06
1.81395e-06
1.10179e-08
2.54513e-08
1.22447e-07
2.55213e-07
4.00848e-07
5.51215e-07
6.97295e-07
8.36525e-07
9.64389e-07
1.08288e-06
3.05945e-08
1.69389e-07
3.63499e-07
5.545e-07
7.23998e-07
8.74646e-07
1.00614e-06
1.12381e-06
1.22483e-06
1.31975e-06
1.38972e-07
4.05326e-07
6.50086e-07
8.71715e-07
1.05658e-06
1.21028e-06
1.33523e-06
1.44011e-06
1.52228e-06
1.60004e-06
3.22274e-07
6.93812e-07
9.69715e-07
1.20347e-06
1.38964e-06
1.53901e-06
1.65512e-06
1.74814e-06
1.81482e-06
1.87897e-06
5.82793e-07
1.01896e-06
1.3129e-06
1.54851e-06
1.72602e-06
1.86353e-06
1.96593e-06
2.04433e-06
2.09512e-06
2.14544e-06
9.19398e-07
1.36511e-06
1.65934e-06
1.88823e-06
2.05079e-06
2.17174e-06
2.25722e-06
2.31888e-06
2.35346e-06
2.38921e-06
1.32516e-06
1.72642e-06
1.99962e-06
2.21249e-06
2.35511e-06
2.4563e-06
2.52276e-06
2.5663e-06
2.58454e-06
2.60489e-06
1.7903e-06
2.09792e-06
2.32554e-06
2.51104e-06
2.62856e-06
2.7074e-06
2.75387e-06
2.77869e-06
2.782e-06
2.78608e-06
2.30183e-06
2.47606e-06
2.63337e-06
2.77878e-06
2.86527e-06
2.9191e-06
2.94425e-06
2.95035e-06
2.93945e-06
2.92947e-06
2.84599e-06
2.85675e-06
2.92045e-06
3.01189e-06
3.06028e-06
3.08522e-06
3.08748e-06
3.07302e-06
3.05264e-06
3.02033e-06
1.18961e-06
1.28138e-06
1.36649e-06
1.44346e-06
1.51305e-06
1.57566e-06
1.63188e-06
1.68212e-06
1.72689e-06
1.76653e-06
1.8014e-06
1.83174e-06
1.85775e-06
1.87956e-06
1.89723e-06
1.91083e-06
1.92034e-06
1.92604e-06
1.92786e-06
1.92675e-06
1.39323e-06
1.44681e-06
1.50089e-06
1.55114e-06
1.59828e-06
1.64209e-06
1.68257e-06
1.71972e-06
1.75365e-06
1.7844e-06
1.8121e-06
1.83681e-06
1.85862e-06
1.8776e-06
1.89373e-06
1.90705e-06
1.91735e-06
1.9245e-06
1.92756e-06
1.92588e-06
1.64358e-06
1.66084e-06
1.68291e-06
1.70419e-06
1.72583e-06
1.74737e-06
1.76868e-06
1.78938e-06
1.8094e-06
1.82845e-06
1.8465e-06
1.8634e-06
1.87909e-06
1.89348e-06
1.90643e-06
1.91776e-06
1.92695e-06
1.93344e-06
1.93524e-06
1.93121e-06
1.89768e-06
1.88463e-06
1.8791e-06
1.87472e-06
1.87281e-06
1.87306e-06
1.87544e-06
1.87938e-06
1.88483e-06
1.8913e-06
1.89866e-06
1.90658e-06
1.91488e-06
1.92331e-06
1.93157e-06
1.9393e-06
1.94573e-06
1.9501e-06
1.95008e-06
1.94459e-06
2.14223e-06
2.10421e-06
2.07493e-06
2.0485e-06
2.02586e-06
2.00677e-06
1.99156e-06
1.97945e-06
1.97062e-06
1.96441e-06
1.96072e-06
1.9591e-06
1.95932e-06
1.96099e-06
1.96371e-06
1.967e-06
1.96999e-06
1.97185e-06
1.97032e-06
1.96454e-06
2.36665e-06
2.30874e-06
2.25979e-06
2.21486e-06
2.17486e-06
2.13898e-06
2.10841e-06
2.08188e-06
2.05993e-06
2.04178e-06
2.0274e-06
2.01631e-06
2.00826e-06
2.00283e-06
1.99959e-06
1.99803e-06
1.99734e-06
1.99675e-06
1.99446e-06
1.98972e-06
2.56553e-06
2.49265e-06
2.42876e-06
2.36858e-06
2.31476e-06
2.26455e-06
2.22067e-06
2.18128e-06
2.14742e-06
2.11824e-06
2.09382e-06
2.0737e-06
2.05764e-06
2.04524e-06
2.03611e-06
2.02976e-06
2.02556e-06
2.02285e-06
2.02057e-06
2.01794e-06
2.73334e-06
2.64998e-06
2.57699e-06
2.50423e-06
2.4403e-06
2.37896e-06
2.32452e-06
2.27466e-06
2.23061e-06
2.1917e-06
2.15809e-06
2.12948e-06
2.10572e-06
2.0865e-06
2.07155e-06
2.06048e-06
2.05296e-06
2.04847e-06
2.04683e-06
2.04718e-06
2.86957e-06
2.77685e-06
2.70395e-06
2.62242e-06
2.55073e-06
2.48033e-06
2.41655e-06
2.35767e-06
2.30477e-06
2.25748e-06
2.21592e-06
2.1799e-06
2.14934e-06
2.12403e-06
2.10384e-06
2.08853e-06
2.07811e-06
2.07224e-06
2.07168e-06
2.07546e-06
2.97106e-06
2.87184e-06
2.80373e-06
2.72291e-06
2.64811e-06
2.5738e-06
2.5035e-06
2.43743e-06
2.37659e-06
2.3213e-06
2.27186e-06
2.22834e-06
2.19079e-06
2.15918e-06
2.13352e-06
2.11376e-06
2.10026e-06
2.09289e-06
2.09343e-06
2.10087e-06
3.01052e-06
2.91756e-06
2.85024e-06
2.77418e-06
2.69949e-06
2.62524e-06
2.55363e-06
2.48536e-06
2.42155e-06
2.36272e-06
2.3094e-06
2.26182e-06
2.22025e-06
2.1848e-06
2.15573e-06
2.13313e-06
2.11776e-06
2.10964e-06
2.11136e-06
2.12186e-06
2.9334e-06
2.88564e-06
2.82396e-06
2.75788e-06
2.69042e-06
2.6223e-06
2.55561e-06
2.49109e-06
2.42999e-06
2.37293e-06
2.32061e-06
2.27343e-06
2.23181e-06
2.19603e-06
2.16654e-06
2.14363e-06
2.12829e-06
2.12073e-06
2.12413e-06
2.13731e-06
2.87135e-06
2.83509e-06
2.78785e-06
2.73124e-06
2.6725e-06
2.61095e-06
2.54967e-06
2.48926e-06
2.43129e-06
2.37646e-06
2.32564e-06
2.27937e-06
2.23821e-06
2.20261e-06
2.17314e-06
2.15028e-06
2.13524e-06
2.12827e-06
2.13289e-06
2.14787e-06
2.79739e-06
2.77561e-06
2.74017e-06
2.69279e-06
2.64238e-06
2.58752e-06
2.53199e-06
2.47628e-06
2.42218e-06
2.37043e-06
2.32204e-06
2.27763e-06
2.23787e-06
2.20331e-06
2.17463e-06
2.15246e-06
2.13796e-06
2.13176e-06
2.13764e-06
2.15359e-06
2.71312e-06
2.70276e-06
2.67847e-06
2.64078e-06
2.59925e-06
2.55191e-06
2.50296e-06
2.45282e-06
2.40344e-06
2.35565e-06
2.31054e-06
2.26882e-06
2.23123e-06
2.19844e-06
2.17109e-06
2.15011e-06
2.13611e-06
2.13152e-06
2.13446e-06
2.15409e-06
2.62343e-06
2.62325e-06
2.60899e-06
2.5804e-06
2.54724e-06
2.50733e-06
2.46505e-06
2.42078e-06
2.37658e-06
2.33329e-06
2.29209e-06
2.25372e-06
2.21901e-06
2.1886e-06
2.1633e-06
2.14377e-06
2.13136e-06
2.12675e-06
2.13284e-06
2.1482e-06
2.52988e-06
2.53809e-06
2.53259e-06
2.51251e-06
2.48731e-06
2.45478e-06
2.41927e-06
2.38114e-06
2.34248e-06
2.30416e-06
2.26738e-06
2.23291e-06
2.20161e-06
2.17412e-06
2.15124e-06
2.13359e-06
2.12247e-06
2.11813e-06
2.12375e-06
2.13816e-06
2.43439e-06
2.44956e-06
2.45169e-06
2.4393e-06
2.42142e-06
2.39594e-06
2.36705e-06
2.33511e-06
2.30218e-06
2.26912e-06
2.23713e-06
2.207e-06
2.17955e-06
2.1554e-06
2.13533e-06
2.11985e-06
2.1101e-06
2.10635e-06
2.11126e-06
2.12371e-06
2.33781e-06
2.3585e-06
2.3671e-06
2.36158e-06
2.35041e-06
2.33165e-06
2.3092e-06
2.28345e-06
2.25638e-06
2.22882e-06
2.20193e-06
2.17648e-06
2.15326e-06
2.13285e-06
2.11593e-06
2.10291e-06
2.09473e-06
2.09151e-06
2.09546e-06
2.10556e-06
2.24056e-06
2.26557e-06
2.27965e-06
2.28021e-06
2.27518e-06
2.26276e-06
2.24656e-06
2.22696e-06
2.20581e-06
2.18391e-06
2.16237e-06
2.14189e-06
2.12322e-06
2.10686e-06
2.0934e-06
2.08313e-06
2.07673e-06
2.0742e-06
2.07709e-06
2.08445e-06
2.14248e-06
2.17081e-06
2.18949e-06
2.19548e-06
2.19612e-06
2.18975e-06
2.17965e-06
2.16619e-06
2.15106e-06
2.13499e-06
2.119e-06
2.10375e-06
2.0899e-06
2.0779e-06
2.06819e-06
2.06096e-06
2.05659e-06
2.05492e-06
2.05679e-06
2.06133e-06
2.04311e-06
2.07401e-06
2.09664e-06
2.10759e-06
2.11358e-06
2.11309e-06
2.10905e-06
2.10177e-06
2.09277e-06
2.08271e-06
2.07249e-06
2.06271e-06
2.05393e-06
2.04653e-06
2.04082e-06
2.0369e-06
2.03484e-06
2.03431e-06
2.03537e-06
2.03718e-06
1.94149e-06
1.97451e-06
2.00071e-06
2.0164e-06
2.02766e-06
2.03307e-06
2.0352e-06
2.03428e-06
2.03162e-06
2.0278e-06
2.0236e-06
2.01951e-06
2.01603e-06
2.01344e-06
2.01196e-06
2.01158e-06
2.01211e-06
2.01305e-06
2.01366e-06
2.01308e-06
1.83667e-06
1.87172e-06
1.90142e-06
1.92193e-06
1.93864e-06
1.9502e-06
1.95877e-06
1.96453e-06
1.96854e-06
1.97126e-06
1.97334e-06
1.97518e-06
1.97717e-06
1.97956e-06
1.98245e-06
1.98578e-06
1.98914e-06
1.99187e-06
1.99253e-06
1.99011e-06
1.727e-06
1.76446e-06
1.79807e-06
1.82391e-06
1.84661e-06
1.86488e-06
1.88048e-06
1.89343e-06
1.90459e-06
1.91427e-06
1.92297e-06
1.93099e-06
1.93863e-06
1.94608e-06
1.95341e-06
1.96049e-06
1.96682e-06
1.97162e-06
1.97289e-06
1.96939e-06
1.61186e-06
1.65266e-06
1.69099e-06
1.72308e-06
1.75263e-06
1.77845e-06
1.80181e-06
1.82263e-06
1.8415e-06
1.85858e-06
1.87422e-06
1.88863e-06
1.90202e-06
1.91453e-06
1.9262e-06
1.93692e-06
1.94618e-06
1.95317e-06
1.95559e-06
1.95187e-06
1.48895e-06
1.53487e-06
1.57955e-06
1.61948e-06
1.65733e-06
1.69197e-06
1.7242e-06
1.75382e-06
1.78114e-06
1.8062e-06
1.8292e-06
1.85024e-06
1.86946e-06
1.88695e-06
1.90274e-06
1.91677e-06
1.92863e-06
1.93762e-06
1.94156e-06
1.93858e-06
1.36071e-06
1.41414e-06
1.4672e-06
1.51679e-06
1.56449e-06
1.60922e-06
1.65133e-06
1.69048e-06
1.7268e-06
1.76019e-06
1.79072e-06
1.81842e-06
1.84336e-06
1.86557e-06
1.88509e-06
1.9019e-06
1.91574e-06
1.92615e-06
1.9315e-06
1.92992e-06
1.22455e-06
1.28949e-06
1.35427e-06
1.4163e-06
1.4761e-06
1.53264e-06
1.58595e-06
1.63562e-06
1.6816e-06
1.72376e-06
1.76209e-06
1.79656e-06
1.82717e-06
1.85391e-06
1.87674e-06
1.89563e-06
1.91041e-06
1.92098e-06
1.92658e-06
1.92645e-06
1.09629e-06
1.17603e-06
1.2548e-06
1.33057e-06
1.40325e-06
1.47185e-06
1.53626e-06
1.59604e-06
1.65114e-06
1.70142e-06
1.74688e-06
1.78747e-06
1.82316e-06
1.85388e-06
1.87948e-06
1.89984e-06
1.91465e-06
1.92405e-06
1.92776e-06
1.92717e-06
1.71621e-06
1.83281e-06
2.03103e-06
2.24897e-06
2.46559e-06
2.65613e-06
2.81031e-06
2.92084e-06
2.98933e-06
3.00345e-06
1.62558e-06
1.73429e-06
1.91724e-06
2.12325e-06
2.33519e-06
2.52957e-06
2.69592e-06
2.82358e-06
2.91216e-06
2.94689e-06
1.54441e-06
1.64806e-06
1.81829e-06
2.01128e-06
2.21323e-06
2.40252e-06
2.57033e-06
2.70776e-06
2.81498e-06
2.88106e-06
1.47017e-06
1.57042e-06
1.73012e-06
1.91155e-06
2.10418e-06
2.28797e-06
2.45427e-06
2.59463e-06
2.70701e-06
2.79216e-06
1.40051e-06
1.49843e-06
1.64918e-06
1.81973e-06
2.00242e-06
2.17934e-06
2.3426e-06
2.48548e-06
2.60145e-06
2.69752e-06
1.33511e-06
1.43156e-06
1.57495e-06
1.73584e-06
1.90893e-06
2.07808e-06
2.23572e-06
2.37741e-06
2.49343e-06
2.5966e-06
1.27277e-06
1.36821e-06
1.50536e-06
1.65765e-06
1.82171e-06
1.98324e-06
2.13492e-06
2.27421e-06
2.38857e-06
2.49403e-06
1.21329e-06
1.30791e-06
1.43968e-06
1.58422e-06
1.73971e-06
1.8934e-06
2.03836e-06
2.17378e-06
2.28561e-06
2.39118e-06
1.15624e-06
1.25005e-06
1.37699e-06
1.51448e-06
1.66196e-06
1.80803e-06
1.94619e-06
2.07683e-06
2.18536e-06
2.2891e-06
1.10164e-06
1.19436e-06
1.31671e-06
1.44751e-06
1.58726e-06
1.7257e-06
1.85695e-06
1.98215e-06
2.08702e-06
2.18795e-06
1.04962e-06
1.14075e-06
1.2584e-06
1.38258e-06
1.51472e-06
1.6455e-06
1.76976e-06
1.88904e-06
1.98991e-06
2.08733e-06
1.0006e-06
1.08934e-06
1.20176e-06
1.31896e-06
1.44327e-06
1.56615e-06
1.68326e-06
1.79627e-06
1.8929e-06
1.98649e-06
9.554e-07
1.04051e-06
1.14654e-06
1.25584e-06
1.37166e-06
1.48618e-06
1.59587e-06
1.7023e-06
1.79451e-06
1.88413e-06
9.15269e-07
9.94861e-07
1.09262e-06
1.19253e-06
1.29876e-06
1.40418e-06
1.50604e-06
1.60563e-06
1.6933e-06
1.77897e-06
8.82592e-07
9.53348e-07
1.0393e-06
1.12714e-06
1.22202e-06
1.31738e-06
1.41097e-06
1.50361e-06
1.58686e-06
1.66888e-06
8.60183e-07
9.16429e-07
9.85828e-07
1.05853e-06
1.13998e-06
1.22419e-06
1.30907e-06
1.39478e-06
1.47392e-06
1.5528e-06
8.5432e-07
8.85037e-07
9.28147e-07
9.80343e-07
1.04585e-06
1.1182e-06
1.19466e-06
1.27425e-06
1.35042e-06
1.42748e-06
8.66153e-07
8.53206e-07
8.61786e-07
8.90547e-07
9.38854e-07
9.99337e-07
1.06825e-06
1.14306e-06
1.21792e-06
1.29488e-06
9.11419e-07
8.13125e-07
7.66431e-07
7.6647e-07
7.99539e-07
8.51859e-07
9.175e-07
9.91861e-07
1.06959e-06
1.15035e-06
9.31094e-07
7.13475e-07
6.35505e-07
6.13045e-07
6.38557e-07
6.88471e-07
7.56526e-07
8.35859e-07
9.21296e-07
1.01021e-06
)
;

boundaryField
{
    left
    {
        type            calculated;
        value           nonuniform List<scalar> 
30
(
1.69639e-06
1.60683e-06
1.52667e-06
1.45332e-06
1.38463e-06
1.32029e-06
1.25921e-06
1.20123e-06
1.14604e-06
1.09372e-06
1.0445e-06
9.98888e-07
9.578e-07
9.22609e-07
8.95817e-07
8.81108e-07
8.85965e-07
9.19453e-07
1.01285e-06
1.15856e-06
7.68787e-06
4.93104e-06
3.71113e-06
3.08429e-06
2.69405e-06
2.41714e-06
2.2096e-06
2.04477e-06
1.91022e-06
1.79407e-06
)
;
    }
    right
    {
        type            calculated;
        value           nonuniform List<scalar> 
30
(
1.92642e-06
1.92589e-06
1.93104e-06
1.94433e-06
1.96421e-06
1.98941e-06
2.01771e-06
2.04709e-06
2.07553e-06
2.10116e-06
2.12224e-06
2.13793e-06
2.14856e-06
2.15432e-06
2.15427e-06
2.14882e-06
2.13882e-06
2.12425e-06
2.10597e-06
2.08471e-06
2.06144e-06
2.03716e-06
2.01296e-06
1.98991e-06
1.96916e-06
1.95168e-06
1.93847e-06
1.9299e-06
1.92653e-06
1.92679e-06
)
;
    }
    down
    {
        type            calculated;
        value           nonuniform List<scalar> 
30
(
7.51788e-09
9.62287e-09
9.01746e-08
2.1775e-07
3.6476e-07
5.18486e-07
6.68693e-07
8.11925e-07
9.43332e-07
1.06508e-06
1.1747e-06
1.27022e-06
1.35798e-06
1.43688e-06
1.50807e-06
1.57186e-06
1.62906e-06
1.68003e-06
1.72541e-06
1.76551e-06
1.80075e-06
1.83137e-06
1.85758e-06
1.87953e-06
1.89727e-06
1.91089e-06
1.92036e-06
1.92601e-06
1.92784e-06
1.92722e-06
)
;
    }
    up
    {
        type            calculated;
        value           nonuniform List<scalar> 
30
(
9.18083e-07
7.05515e-07
6.31353e-07
6.08317e-07
6.33036e-07
6.82149e-07
7.49709e-07
8.28894e-07
9.14261e-07
1.00355e-06
1.08991e-06
1.1703e-06
1.24985e-06
1.32627e-06
1.39962e-06
1.4688e-06
1.53376e-06
1.59402e-06
1.64956e-06
1.70022e-06
1.74601e-06
1.78689e-06
1.82281e-06
1.85372e-06
1.87945e-06
1.89988e-06
1.9147e-06
1.92407e-06
1.92773e-06
1.92746e-06
)
;
    }
    hole
    {
        type            calculated;
        value           nonuniform List<scalar> 
20
(
3.43112e-06
4.02549e-06
4.60651e-06
5.16261e-06
5.67629e-06
6.15071e-06
6.56007e-06
6.95521e-06
7.25931e-06
7.61447e-06
3.94534e-09
4.11127e-09
6.69468e-08
2.29482e-07
4.83172e-07
8.25776e-07
1.24599e-06
1.73197e-06
2.26851e-06
2.84043e-06
)
;
    }
    frontAndBack
    {
        type            empty;
    }
}


// ************************************************************************* //
