/*--------------------------------*- C++ -*----------------------------------*\
  =========                 |
  \\      /  F ield         | OpenFOAM: The Open Source CFD Toolbox
   \\    /   O peration     | Website:  https://openfoam.org
    \\  /    A nd           | Version:  9
     \\/     M anipulation  |
\*---------------------------------------------------------------------------*/
FoamFile
{
    format      ascii;
    class       volSymmTensorField;
    location    "5";
    object      epsilon;
}
// * * * * * * * * * * * * * * * * * * * * * * * * * * * * * * * * * * * * * //

dimensions      [0 0 0 0 0 0 0];

internalField   nonuniform List<symmTensor> 
1000
(
(2.10639e-06 -2.73262e-06 2.56743e-19 4.23961e-07 2.82306e-19 7.69367e-34)
(2.90596e-06 -2.10747e-06 -4.34057e-21 -5.20211e-07 2.434e-21 0)
(3.29777e-06 -1.6141e-06 5.06422e-21 -9.71684e-07 -9.72995e-22 0)
(3.51742e-06 -1.2419e-06 1.30009e-21 -1.28862e-06 -9.30472e-22 0)
(3.62322e-06 -9.42484e-07 -5.49842e-21 -1.46426e-06 4.05751e-22 0)
(3.6587e-06 -7.08433e-07 -5.94563e-22 -1.57668e-06 6.53838e-22 0)
(3.65452e-06 -5.18245e-07 -4.99628e-21 -1.63749e-06 -2.68247e-21 0)
(3.62129e-06 -3.67046e-07 3.42885e-21 -1.66852e-06 1.60301e-21 0)
(3.5782e-06 -2.41375e-07 -1.76943e-21 -1.67982e-06 -2.01375e-21 0)
(3.51551e-06 -1.36833e-07 0 -1.68148e-06 0 0)
(2.85032e-06 -3.03868e-06 2.64705e-19 1.1702e-07 3.412e-19 4.61775e-35)
(3.47057e-06 -2.17544e-06 0 -7.23025e-07 0 0)
(3.73611e-06 -1.55209e-06 4.05446e-21 -1.09516e-06 1.93245e-21 0)
(3.85908e-06 -1.10406e-06 -6.95718e-21 -1.35927e-06 -3.71185e-21 0)
(3.88963e-06 -7.62492e-07 -2.95716e-21 -1.49259e-06 -1.78382e-21 0)
(3.86565e-06 -5.07032e-07 2.05877e-21 -1.57547e-06 2.1001e-21 0)
(3.81323e-06 -3.07582e-07 2.30483e-21 -1.61278e-06 1.54522e-21 0)
(3.74238e-06 -1.55984e-07 5.41863e-21 -1.62963e-06 3.16376e-21 0)
(3.66272e-06 -3.31291e-08 0 -1.62421e-06 0 0)
(3.57856e-06 6.51812e-08 0 -1.62701e-06 0 0)
(3.68405e-06 -3.23215e-06 2.62235e-19 -2.89566e-07 3.92462e-19 0)
(4.05537e-06 -2.17275e-06 0 -9.523e-07 0 0)
(4.15679e-06 -1.4445e-06 3.86471e-21 -1.20526e-06 1.99748e-21 0)
(4.16014e-06 -9.37137e-07 -1.15928e-21 -1.39273e-06 4.10589e-22 0)
(4.10183e-06 -5.65759e-07 -5.67675e-23 -1.46954e-06 2.53654e-23 0)
(4.01025e-06 -2.98163e-07 -1.91961e-21 -1.51441e-06 -1.98698e-21 0)
(3.90532e-06 -9.71644e-08 2.62009e-21 -1.52314e-06 1.21191e-21 0)
(3.79374e-06 4.9623e-08 -1.94578e-21 -1.52202e-06 -1.43748e-21 0)
(3.68058e-06 1.63715e-07 -1.56539e-22 -1.50103e-06 2.71388e-22 0)
(3.57148e-06 2.56449e-07 -4.10816e-22 -1.49934e-06 -1.76856e-22 0)
(4.57642e-06 -3.2853e-06 2.32637e-19 -7.72894e-07 4.1945e-19 -2.68016e-35)
(4.64576e-06 -2.09079e-06 2.21336e-21 -1.19939e-06 -2.28764e-22 0)
(4.55319e-06 -1.29312e-06 -1.76652e-21 -1.29992e-06 -9.97149e-22 0)
(4.41797e-06 -7.49256e-07 -1.11901e-21 -1.39057e-06 2.17304e-22 0)
(4.2597e-06 -3.64361e-07 2.00432e-21 -1.39944e-06 1.93804e-21 0)
(4.09493e-06 -9.60406e-08 -2.41231e-21 -1.40054e-06 -1.59582e-21 0)
(3.93524e-06 9.79565e-08 -2.08418e-21 -1.37882e-06 -1.48374e-21 0)
(3.78356e-06 2.34527e-07 -4.64526e-21 -1.35944e-06 -3.39975e-21 0)
(3.63906e-06 3.35218e-07 -6.66279e-22 -1.32574e-06 -8.13858e-22 0)
(3.50844e-06 4.17196e-07 1.13794e-21 -1.31816e-06 1.00689e-21 0)
(5.48332e-06 -3.17332e-06 1.80856e-19 -1.30181e-06 3.94617e-19 -4.61083e-34)
(5.2226e-06 -1.91845e-06 1.15761e-25 -1.45285e-06 5.52887e-27 0)
(4.91536e-06 -1.09561e-06 -5.7191e-21 -1.37515e-06 -2.8034e-21 0)
(4.62799e-06 -5.44474e-07 5.19653e-22 -1.35305e-06 -1.96186e-23 0)
(4.36217e-06 -1.6724e-07 -7.28256e-22 -1.28519e-06 7.71707e-23 0)
(4.1213e-06 8.68674e-08 1.73748e-21 -1.23875e-06 1.60528e-21 0)
(3.90727e-06 2.63046e-07 -1.94599e-22 -1.1863e-06 5.76394e-23 0)
(3.71741e-06 3.82e-07 1.83335e-21 -1.14966e-06 1.22584e-21 0)
(3.54588e-06 4.63949e-07 -3.97165e-22 -1.10698e-06 -8.49615e-22 0)
(3.39672e-06 5.30741e-07 -7.25225e-22 -1.09477e-06 -5.86026e-22 0)
(6.37437e-06 -2.89022e-06 1.21748e-19 -1.84123e-06 3.40292e-19 -4.44367e-34)
(5.77208e-06 -1.64847e-06 1.05584e-25 -1.69597e-06 2.23225e-26 0)
(5.2373e-06 -8.49171e-07 -5.71222e-26 -1.42187e-06 -8.85218e-27 0)
(4.78871e-06 -3.26718e-07 4.59291e-22 -1.27764e-06 5.66005e-23 0)
(4.41163e-06 1.70345e-08 -2.47532e-21 -1.12952e-06 -1.50597e-21 0)
(4.09536e-06 2.39131e-07 2.82156e-23 -1.03639e-06 -2.38842e-25 0)
(3.83016e-06 3.85727e-07 1.84244e-21 -9.56386e-07 1.24836e-21 0)
(3.60633e-06 4.79562e-07 3.91784e-21 -9.05912e-07 2.86677e-21 0)
(3.41274e-06 5.38365e-07 7.09696e-22 -8.58699e-07 5.21034e-22 0)
(3.24891e-06 5.86374e-07 -1.23924e-21 -8.43921e-07 -9.76485e-22 0)
(7.18985e-06 -2.41794e-06 8.05418e-20 -2.34826e-06 2.65168e-19 -8.39256e-34)
(6.26211e-06 -1.26071e-06 1.65649e-21 -1.90311e-06 6.65122e-22 0)
(5.49094e-06 -5.46508e-07 1.75098e-21 -1.41947e-06 7.96087e-22 0)
(4.88116e-06 -9.83616e-08 -3.77581e-22 -1.15341e-06 -1.12981e-22 0)
(4.399e-06 1.79893e-07 1.78981e-21 -9.31635e-07 1.19812e-21 0)
(4.01646e-06 3.49193e-07 -1.64718e-21 -8.00632e-07 -1.13505e-21 0)
(3.70973e-06 4.53901e-07 4.68498e-22 -7.0193e-07 2.92103e-23 0)
(3.46031e-06 5.15685e-07 -1.47067e-21 -6.4457e-07 -9.64555e-22 0)
(3.25212e-06 5.48628e-07 -1.01697e-22 -5.98946e-07 1.26476e-23 0)
(3.0786e-06 5.76029e-07 -7.45211e-22 -5.84825e-07 -4.86859e-22 0)
(7.95399e-06 -1.75493e-06 4.24362e-20 -2.78581e-06 1.70161e-19 -2.70949e-35)
(6.675e-06 -7.35322e-07 -4.41648e-21 -2.02331e-06 -1.59288e-21 0)
(5.65846e-06 -1.83074e-07 3.42133e-23 -1.32673e-06 1.88043e-23 0)
(4.90053e-06 1.27622e-07 5.52198e-22 -9.61143e-07 2.8071e-22 0)
(4.33051e-06 3.03898e-07 4.09242e-21 -6.89941e-07 2.03821e-21 0)
(3.8998e-06 4.00986e-07 -2.41933e-22 -5.42106e-07 -7.63116e-23 0)
(3.56664e-06 4.55775e-07 6.02217e-27 -4.4109e-07 1.21043e-27 0)
(3.30329e-06 4.8338e-07 -1.43901e-21 -3.87829e-07 -7.60291e-22 0)
(3.08915e-06 4.92362e-07 3.49098e-23 -3.51199e-07 1.58828e-24 0)
(2.91153e-06 5.01059e-07 1.07688e-22 -3.41468e-07 5.31652e-23 0)
(8.54452e-06 -8.1876e-07 1.16774e-20 -3.04288e-06 6.38761e-20 1.48863e-34)
(6.87659e-06 -7.07588e-08 -4.86556e-21 -1.92294e-06 -2.04575e-21 0)
(5.62691e-06 1.92074e-07 5.086e-22 -1.05598e-06 4.33533e-22 0)
(4.775e-06 2.9036e-07 4.77821e-22 -6.61149e-07 3.78531e-22 0)
(4.17537e-06 3.39663e-07 -1.9989e-22 -4.0349e-07 -1.22362e-22 0)
(3.73832e-06 3.56519e-07 1.59404e-21 -2.7925e-07 5.80314e-22 0)
(3.40778e-06 3.64822e-07 8.70399e-23 -2.01786e-07 2.70532e-23 0)
(3.14837e-06 3.64751e-07 2.57102e-21 -1.66559e-07 9.85913e-22 0)
(2.93895e-06 3.58413e-07 5.67637e-22 -1.45747e-07 2.19917e-22 0)
(2.76293e-06 3.55203e-07 3.1819e-22 -1.43049e-07 1.27596e-22 0)
(9.07095e-06 7.39695e-07 9.68328e-22 -2.80787e-06 -3.90661e-20 -1.73028e-34)
(6.70453e-06 8.25863e-07 -3.72819e-22 -1.26559e-06 -6.46653e-22 0)
(5.3911e-06 5.45768e-07 1.69009e-21 -5.29569e-07 7.19375e-22 0)
(4.57297e-06 3.5449e-07 8.69463e-23 -2.61263e-07 1.22286e-22 0)
(4.02285e-06 2.79998e-07 2.9702e-27 -1.22884e-07 2.77257e-27 0)
(3.61738e-06 2.38411e-07 1.61635e-21 -6.74273e-08 2.91486e-22 0)
(3.30946e-06 2.23524e-07 2.5046e-23 -3.78807e-08 7.46012e-24 0)
(3.0622e-06 2.14828e-07 1.23872e-21 -2.79925e-08 2.3545e-22 0)
(2.86011e-06 2.08e-07 -1.36806e-23 -2.36095e-08 -1.04472e-24 0)
(2.6853e-06 2.03357e-07 -2.08032e-23 -2.52902e-08 -4.39905e-24 0)
(-7.75969e-09 8.61428e-09 3.55817e-20 -1.56432e-09 2.26006e-20 1.74699e-34)
(1.15543e-08 -2.06895e-08 -9.34117e-23 -2.77759e-09 1.99847e-20 1.52498e-36)
(1.07069e-07 -6.98007e-08 -1.18351e-21 -4.90356e-08 1.63032e-20 1.90277e-35)
(2.57791e-07 -1.09136e-07 -2.11721e-24 -1.18039e-07 1.75542e-20 0)
(4.31452e-07 -1.33427e-07 -1.60278e-22 -1.94769e-07 1.56275e-20 -1.52675e-36)
(6.13043e-07 -1.47284e-07 -1.62184e-21 -2.7373e-07 1.72906e-20 3.18983e-35)
(7.90475e-07 -1.52754e-07 3.6431e-22 -3.49985e-07 1.91746e-20 1.52307e-36)
(9.59667e-07 -1.53236e-07 -1.07601e-21 -4.22012e-07 1.80064e-20 2.89309e-35)
(1.11489e-06 -1.49179e-07 8.69395e-22 -4.8831e-07 1.83366e-20 -1.25426e-35)
(1.2587e-06 -1.46048e-07 1.82348e-21 -5.48004e-07 1.7841e-20 -3.7791e-35)
(1.93645e-08 -2.24054e-08 3.64524e-20 -8.17287e-09 5.74097e-21 4.87507e-35)
(1.13959e-07 -1.30983e-07 1.30844e-21 -8.87622e-10 1.43628e-21 0)
(2.86643e-07 -2.50982e-07 -1.22456e-21 -7.27712e-08 -1.23077e-21 0)
(4.78785e-07 -3.42736e-07 1.15465e-23 -1.69847e-07 -1.01924e-21 0)
(6.71608e-07 -3.99218e-07 0 -2.66667e-07 0 0)
(8.5453e-07 -4.30923e-07 -1.85776e-21 -3.57919e-07 -2.75762e-22 0)
(1.02308e-06 -4.42415e-07 3.13947e-22 -4.40048e-07 1.6006e-21 0)
(1.17797e-06 -4.41735e-07 2.34299e-23 -5.13522e-07 8.61115e-23 0)
(1.31446e-06 -4.29551e-07 -1.003e-21 -5.78113e-07 -2.91061e-21 0)
(1.4412e-06 -4.19841e-07 7.33773e-22 -6.33024e-07 1.13999e-22 0)
(2.97373e-08 -1.18852e-07 3.86578e-20 3.52157e-08 7.65154e-21 -2.1739e-36)
(2.10898e-07 -3.30413e-07 1.33819e-21 1.17845e-08 1.41874e-21 0)
(4.54764e-07 -4.79095e-07 1.39962e-21 -9.99941e-08 2.9314e-22 0)
(6.94265e-07 -5.78764e-07 7.16184e-23 -2.38818e-07 -9.82939e-22 0)
(9.14742e-07 -6.33745e-07 0 -3.66849e-07 0 0)
(1.10873e-06 -6.59667e-07 -2.07931e-21 -4.79207e-07 -5.42928e-22 0)
(1.27723e-06 -6.62919e-07 -2.83626e-21 -5.73618e-07 -7.94528e-22 0)
(1.42541e-06 -6.52408e-07 1.87676e-21 -6.53156e-07 1.14789e-21 0)
(1.5486e-06 -6.29349e-07 1.14113e-23 -7.18063e-07 3.66637e-23 0)
(1.66357e-06 -6.09957e-07 -1.68813e-21 -7.70872e-07 -1.06754e-21 0)
(4.5363e-08 -2.70032e-07 4.84165e-20 1.384e-07 1.22601e-20 -4.15657e-35)
(3.43665e-07 -5.69493e-07 3.29556e-22 2.5039e-08 -1.19169e-21 0)
(6.53571e-07 -7.25866e-07 1.53815e-21 -1.36646e-07 3.0064e-22 0)
(9.36123e-07 -8.13613e-07 0 -3.16563e-07 0 0)
(1.1809e-06 -8.50036e-07 -2.62097e-21 -4.7323e-07 9.77394e-22 0)
(1.38561e-06 -8.56905e-07 3.25378e-23 -6.05841e-07 2.4187e-21 0)
(1.55496e-06 -8.424e-07 -1.30994e-22 -7.12937e-07 -1.29939e-21 0)
(1.69806e-06 -8.15419e-07 -3.76578e-22 -7.99815e-07 -2.0057e-21 0)
(1.80966e-06 -7.77847e-07 8.56358e-22 -8.66964e-07 2.77937e-22 0)
(1.91482e-06 -7.46075e-07 1.59857e-21 -9.19796e-07 5.99727e-22 0)
(8.59911e-08 -4.83603e-07 5.13808e-20 2.8184e-07 2.19836e-20 1.08174e-34)
(5.30668e-07 -8.29812e-07 -2.69974e-21 2.20661e-08 1.81069e-21 0)
(9.06801e-07 -9.70412e-07 -1.63784e-21 -2.07321e-07 -4.81854e-22 0)
(1.226e-06 -1.02896e-06 -4.41302e-22 -4.31819e-07 1.77289e-21 0)
(1.48688e-06 -1.03297e-06 -1.72938e-23 -6.14459e-07 1.09365e-22 0)
(1.69557e-06 -1.01024e-06 2.52491e-21 -7.6334e-07 -6.78522e-22 0)
(1.86073e-06 -9.70357e-07 1.10017e-21 -8.79184e-07 2.88757e-22 0)
(1.99502e-06 -9.2145e-07 0 -9.69997e-07 0 0)
(2.09278e-06 -8.66477e-07 -1.17562e-21 -1.03672e-06 -1.54633e-21 0)
(2.18639e-06 -8.19716e-07 4.68511e-22 -1.08753e-06 1.137e-22 0)
(1.74639e-07 -7.64278e-07 7.34041e-20 4.43226e-07 3.20028e-20 -1.60282e-34)
(7.7825e-07 -1.09377e-06 1.10132e-21 2.26338e-09 -2.14827e-21 0)
(1.21697e-06 -1.19042e-06 -1.35306e-21 -3.04253e-07 -1.45954e-21 0)
(1.56361e-06 -1.20482e-06 2.97007e-22 -5.72352e-07 -8.25526e-22 0)
(1.83051e-06 -1.16769e-06 2.8617e-21 -7.75711e-07 9.57477e-22 0)
(2.03434e-06 -1.11009e-06 -2.76012e-21 -9.35066e-07 3.08082e-22 0)
(2.18835e-06 -1.04164e-06 -3.09592e-24 -1.05457e-06 7.33153e-23 0)
(2.30826e-06 -9.68913e-07 -2.15107e-21 -1.14507e-06 -1.48154e-21 0)
(2.38866e-06 -8.96036e-07 4.5417e-24 -1.20865e-06 2.87751e-23 0)
(2.46736e-06 -8.33534e-07 -2.34838e-21 -1.25499e-06 -1.07347e-21 0)
(3.37053e-07 -1.10901e-06 1.12402e-19 5.88232e-07 6.069e-20 -1.68428e-34)
(1.08854e-06 -1.35088e-06 6.09727e-23 -4.13121e-08 -9.24014e-23 0)
(1.57842e-06 -1.37283e-06 -4.46686e-26 -4.24897e-07 7.63157e-26 0)
(1.94012e-06 -1.32813e-06 -2.92399e-21 -7.32621e-07 -2.04897e-21 0)
(2.20179e-06 -1.24298e-06 -4.95605e-22 -9.50639e-07 1.32778e-21 0)
(2.39105e-06 -1.1477e-06 -2.67913e-21 -1.1144e-06 -1.09022e-21 0)
(2.52632e-06 -1.0499e-06 4.8162e-21 -1.23207e-06 2.14689e-21 0)
(2.62551e-06 -9.53751e-07 -5.53089e-25 -1.31771e-06 5.75818e-23 0)
(2.68473e-06 -8.64195e-07 9.47561e-22 -1.37486e-06 -4.36692e-24 0)
(2.74428e-06 -7.8648e-07 -1.28456e-21 -1.41413e-06 -6.11629e-22 0)
(5.97079e-07 -1.50501e-06 1.60675e-19 6.8463e-07 1.0145e-19 -3.37955e-34)
(1.46049e-06 -1.59105e-06 1.57063e-21 -1.11606e-07 -1.8771e-21 0)
(1.97969e-06 -1.50892e-06 -6.06215e-22 -5.58847e-07 8.08265e-22 0)
(2.3398e-06 -1.39186e-06 3.70538e-22 -8.96296e-07 -5.78001e-22 0)
(2.58378e-06 -1.25402e-06 3.30305e-26 -1.12086e-06 -6.49273e-26 0)
(2.74872e-06 -1.12058e-06 3.10878e-21 -1.28249e-06 2.62527e-22 0)
(2.85819e-06 -9.94946e-07 2.32663e-22 -1.39346e-06 -1.01303e-21 0)
(2.93089e-06 -8.78015e-07 -7.72865e-23 -1.47007e-06 8.33672e-22 0)
(2.96625e-06 -7.74694e-07 1.11974e-23 -1.5193e-06 4.16329e-22 0)
(3.00235e-06 -6.83793e-07 9.8225e-22 -1.5487e-06 9.17654e-22 0)
(9.73591e-07 -1.92909e-06 1.99601e-19 7.02127e-07 1.57589e-19 4.58409e-34)
(1.89145e-06 -1.80437e-06 -5.05321e-22 -2.13618e-07 3.44173e-21 0)
(2.40847e-06 -1.59471e-06 -5.86047e-26 -6.99206e-07 6.14813e-26 0)
(2.74623e-06 -1.39532e-06 4.02288e-21 -1.05103e-06 9.44354e-22 0)
(2.95883e-06 -1.2023e-06 3.0729e-21 -1.27185e-06 1.53402e-21 0)
(3.0897e-06 -1.03211e-06 2.77234e-21 -1.42452e-06 1.38437e-21 0)
(3.16671e-06 -8.81431e-07 -3.02251e-22 -1.5235e-06 8.70793e-22 0)
(3.20766e-06 -7.48064e-07 -3.33847e-21 -1.58828e-06 -1.86548e-21 0)
(3.21723e-06 -6.34502e-07 2.0493e-21 -1.62714e-06 4.85052e-22 0)
(3.22711e-06 -5.3296e-07 9.194e-22 -1.64931e-06 5.46398e-22 0)
(1.47684e-06 -2.35048e-06 2.32159e-19 6.19197e-07 2.15055e-19 6.69365e-35)
(2.37584e-06 -1.98033e-06 -1.01855e-21 -3.49497e-07 7.52144e-22 0)
(2.85151e-06 -1.6295e-06 -1.97568e-21 -8.3837e-07 -9.21083e-22 0)
(3.14271e-06 -1.3429e-06 8.55763e-21 -1.18424e-06 2.00463e-21 0)
(3.30896e-06 -1.09497e-06 5.23394e-23 -1.38907e-06 -5.95932e-23 0)
(3.39598e-06 -8.90651e-07 -2.72654e-21 -1.52499e-06 -1.54805e-21 0)
(3.43421e-06 -7.1884e-07 -2.9205e-21 -1.60744e-06 -4.59515e-22 0)
(3.43878e-06 -5.73919e-07 -1.10082e-21 -1.65562e-06 -6.58423e-22 0)
(3.42369e-06 -4.56428e-07 1.21194e-22 -1.68677e-06 -9.12129e-22 0)
(3.39881e-06 -3.54539e-07 5.51821e-22 -1.68946e-06 1.153e-21 0)
(1.38819e-06 -1.35408e-07 1.83636e-21 -6.03523e-07 1.89879e-20 -1.12375e-35)
(1.50103e-06 -1.20669e-07 1.7181e-21 -6.49797e-07 1.77043e-20 -2.46705e-35)
(1.60469e-06 -1.07861e-07 -1.73445e-22 -6.92739e-07 1.54657e-20 -1.43788e-35)
(1.6979e-06 -9.62352e-08 1.62502e-22 -7.31593e-07 1.66587e-20 -6.30508e-37)
(1.78199e-06 -8.54549e-08 -8.72112e-22 -7.66549e-07 1.68104e-20 3.74192e-35)
(1.85734e-06 -7.58049e-08 5.70513e-22 -7.98056e-07 1.72782e-20 0)
(1.9249e-06 -6.69555e-08 5.3752e-22 -8.26255e-07 1.72501e-20 0)
(1.98511e-06 -5.89747e-08 1.05718e-21 -8.51484e-07 1.79025e-20 4.85165e-37)
(2.03871e-06 -5.16579e-08 9.61114e-22 -8.73942e-07 1.73817e-20 -1.26745e-35)
(2.08608e-06 -4.49543e-08 1.59885e-21 -8.93847e-07 1.85493e-20 8.21852e-37)
(2.12771e-06 -3.87181e-08 1.88849e-21 -9.11364e-07 1.77193e-20 -3.83484e-35)
(2.16388e-06 -3.28594e-08 -1.2949e-22 -9.2663e-07 1.69446e-20 1.28389e-35)
(2.19484e-06 -2.72623e-08 1.84122e-21 -9.39745e-07 1.76934e-20 -3.86886e-35)
(2.22077e-06 -2.1843e-08 -1.55503e-21 -9.50779e-07 1.49625e-20 -7.76528e-37)
(2.24172e-06 -1.65333e-08 3.7788e-22 -9.59764e-07 1.76123e-20 1.32348e-35)
(2.25781e-06 -1.13253e-08 2.29166e-22 -9.66738e-07 1.70737e-20 -3.132e-45)
(2.26899e-06 -6.29389e-09 -4.382e-22 -9.71676e-07 1.63278e-20 -1.41271e-37)
(2.27568e-06 -1.72437e-09 7.90921e-22 -9.74654e-07 1.77975e-20 1.01349e-37)
(2.27783e-06 1.78048e-09 4.30184e-22 -9.75568e-07 1.61369e-20 -3.99378e-35)
(2.2771e-06 2.60999e-09 1.31849e-20 -9.74251e-07 1.44705e-20 -2.67511e-35)
(1.54546e-06 -3.90868e-07 1.79684e-21 -6.82528e-07 2.20869e-21 0)
(1.6291e-06 -3.51677e-07 1.16387e-21 -7.17884e-07 3.19016e-22 0)
(1.7091e-06 -3.1716e-07 8.68125e-23 -7.50446e-07 -5.048e-22 0)
(1.78085e-06 -2.8496e-07 2.64552e-21 -7.80335e-07 2.38499e-21 0)
(1.84692e-06 -2.54786e-07 -5.08e-22 -8.07006e-07 -1.20013e-22 0)
(1.90657e-06 -2.27524e-07 -2.15767e-21 -8.31496e-07 -2.1865e-21 0)
(1.9609e-06 -2.02289e-07 1.0994e-21 -8.53472e-07 4.06864e-22 0)
(2.00981e-06 -1.79374e-07 0 -8.73451e-07 0 0)
(2.05395e-06 -1.58231e-07 5.23867e-22 -8.91422e-07 1.85561e-22 0)
(2.09346e-06 -1.38779e-07 1.07712e-21 -9.07621e-07 4.15173e-22 0)
(2.12871e-06 -1.20643e-07 3.2311e-21 -9.22123e-07 1.66955e-21 0)
(2.15988e-06 -1.03615e-07 1.45943e-23 -9.35044e-07 1.66817e-23 0)
(2.1872e-06 -8.74107e-08 4.18645e-22 -9.46439e-07 -3.26248e-22 0)
(2.21082e-06 -7.18374e-08 6.17244e-22 -9.56341e-07 7.05961e-22 0)
(2.23082e-06 -5.67403e-08 6.33235e-22 -9.64725e-07 7.26129e-22 0)
(2.24732e-06 -4.2113e-08 -6.27304e-22 -9.71505e-07 -7.22984e-22 0)
(2.26023e-06 -2.81302e-08 -6.30865e-22 -9.7645e-07 -7.31186e-22 0)
(2.26969e-06 -1.53992e-08 -1.26695e-21 -9.79156e-07 -1.47703e-21 0)
(2.27497e-06 -4.84288e-09 -9.58555e-24 -9.78691e-07 -1.04909e-23 0)
(2.27628e-06 7.76025e-10 1.57281e-20 -9.73552e-07 1.06048e-21 3.5576e-35)
(1.74386e-06 -5.66508e-07 4.91777e-22 -8.11652e-07 6.72461e-22 0)
(1.79648e-06 -5.13082e-07 6.70143e-22 -8.32684e-07 2.39163e-22 0)
(1.85101e-06 -4.65156e-07 -1.55885e-21 -8.50338e-07 -1.96265e-21 0)
(1.89879e-06 -4.20669e-07 -1.3907e-22 -8.67095e-07 3.5843e-22 0)
(1.9446e-06 -3.78286e-07 2.84245e-21 -8.81391e-07 2.36665e-21 0)
(1.98611e-06 -3.39819e-07 -2.25835e-21 -8.95084e-07 -2.15603e-21 0)
(2.02501e-06 -3.0383e-07 -6.01391e-22 -9.07418e-07 -6.96347e-22 0)
(2.06049e-06 -2.70954e-07 1.1494e-21 -9.19062e-07 1.30706e-21 0)
(2.09329e-06 -2.40431e-07 3.91331e-24 -9.29847e-07 -8.48655e-22 0)
(2.12316e-06 -2.12253e-07 -1.21624e-21 -9.39984e-07 -1.36733e-21 0)
(2.15047e-06 -1.85954e-07 1.16545e-21 -9.49463e-07 1.30551e-21 0)
(2.1752e-06 -1.61307e-07 1.8009e-21 -9.58344e-07 2.01845e-21 0)
(2.19752e-06 -1.37973e-07 1.37793e-23 -9.66609e-07 1.5184e-23 0)
(2.21749e-06 -1.15715e-07 -6.16641e-22 -9.74212e-07 -6.95119e-22 0)
(2.23513e-06 -9.43247e-08 6.10441e-22 -9.81008e-07 6.92289e-22 0)
(2.25046e-06 -7.3722e-08 8.99843e-29 -9.86724e-07 1.00195e-28 0)
(2.26314e-06 -5.39555e-08 -6.28943e-22 -9.90811e-07 -7.22266e-22 0)
(2.27302e-06 -3.5336e-08 8.57933e-23 -9.9238e-07 5.2175e-22 0)
(2.2785e-06 -1.84373e-08 -2.06506e-21 -9.89579e-07 -2.65813e-22 0)
(2.27945e-06 -4.01691e-09 1.62659e-20 -9.80325e-07 2.32856e-22 2.68519e-38)
(1.97152e-06 -6.90429e-07 0 -9.52655e-07 0 0)
(1.99198e-06 -6.29218e-07 7.16503e-22 -9.6051e-07 2.61045e-22 0)
(2.02069e-06 -5.72768e-07 5.6141e-22 -9.64035e-07 6.41542e-22 0)
(2.04342e-06 -5.21287e-07 6.16177e-22 -9.68494e-07 7.13305e-22 0)
(2.06791e-06 -4.71178e-07 0 -9.7067e-07 0 0)
(2.08987e-06 -4.257e-07 8.26648e-23 -9.73598e-07 -3.60154e-22 0)
(2.11198e-06 -3.82622e-07 -1.84281e-21 -9.76073e-07 -1.13184e-21 0)
(2.13256e-06 -3.43081e-07 -1.17688e-21 -9.78997e-07 -1.27873e-21 0)
(2.15259e-06 -3.06122e-07 -6.61015e-22 -9.82095e-07 -3.05171e-22 0)
(2.17143e-06 -2.71873e-07 -2.58012e-24 -9.85568e-07 8.17896e-22 0)
(2.18942e-06 -2.39829e-07 -5.80777e-22 -9.89354e-07 1.79818e-22 0)
(2.20634e-06 -2.09785e-07 1.21627e-21 -9.93455e-07 5.21814e-22 0)
(2.22228e-06 -1.8138e-07 1.15399e-21 -9.97788e-07 5.71348e-23 0)
(2.23717e-06 -1.54351e-07 2.8728e-23 -1.00222e-06 4.37287e-22 0)
(2.25089e-06 -1.28433e-07 5.04625e-23 -1.00652e-06 4.63575e-22 0)
(2.26334e-06 -1.03428e-07 -6.21821e-22 -1.01026e-06 -6.99558e-22 0)
(2.27396e-06 -7.92041e-08 -1.32805e-28 -1.01272e-06 -1.49493e-28 0)
(2.28245e-06 -5.56023e-08 1.32663e-21 -1.01285e-06 1.94495e-21 0)
(2.28679e-06 -3.2825e-08 -6.80105e-23 -1.00858e-06 -5.11557e-22 0)
(2.28704e-06 -9.21858e-09 1.38323e-20 -9.97762e-07 -2.30356e-21 -5.3618e-35)
(2.21849e-06 -7.54571e-07 5.58087e-23 -1.11026e-06 8.96031e-22 0)
(2.20559e-06 -6.93106e-07 -7.78632e-22 -1.10462e-06 -3.40267e-22 0)
(2.20834e-06 -6.33154e-07 -1.95907e-21 -1.09283e-06 -1.59656e-21 0)
(2.20535e-06 -5.80379e-07 1.28955e-21 -1.08447e-06 8.77895e-22 0)
(2.20815e-06 -5.27354e-07 3.35575e-21 -1.07377e-06 2.20451e-21 0)
(2.20982e-06 -4.7944e-07 -6.16784e-22 -1.0651e-06 -6.44683e-22 0)
(2.21441e-06 -4.33359e-07 0 -1.05683e-06 0 0)
(2.2192e-06 -3.90834e-07 6.0067e-22 -1.05006e-06 6.25081e-22 0)
(2.22551e-06 -3.50757e-07 -1.93141e-21 -1.04451e-06 -8.25394e-22 0)
(2.2323e-06 -3.13418e-07 -1.25351e-21 -1.04035e-06 -9.23996e-22 0)
(2.23991e-06 -2.7834e-07 6.90337e-23 -1.0375e-06 -7.13491e-22 0)
(2.24793e-06 -2.45365e-07 -6.32579e-22 -1.03594e-06 -1.06863e-21 0)
(2.25636e-06 -2.14152e-07 -6.25632e-23 -1.03552e-06 1.12255e-21 0)
(2.265e-06 -1.84412e-07 1.23597e-21 -1.03606e-06 1.74134e-21 0)
(2.27362e-06 -1.55826e-07 6.00958e-22 -1.03725e-06 2.5626e-22 0)
(2.28199e-06 -1.28035e-07 -2.32418e-23 -1.03861e-06 -4.34266e-22 0)
(2.28946e-06 -1.0072e-07 1.16489e-21 -1.03936e-06 4.79278e-22 0)
(2.29566e-06 -7.31979e-08 5.72937e-22 -1.03845e-06 2.30035e-22 0)
(2.29853e-06 -4.54448e-08 2.35273e-21 -1.03391e-06 1.85845e-21 0)
(2.29825e-06 -1.37926e-08 1.89331e-20 -1.02381e-06 2.38222e-21 5.54255e-35)
(2.47403e-06 -7.62247e-07 4.59645e-22 -1.26672e-06 6.31174e-22 0)
(2.42747e-06 -7.0847e-07 1.10778e-23 -1.24958e-06 2.42398e-23 0)
(2.40505e-06 -6.49837e-07 -1.41616e-21 -1.22336e-06 -9.81579e-22 0)
(2.37638e-06 -6.00972e-07 -3.40114e-21 -1.20319e-06 -2.54557e-21 0)
(2.35789e-06 -5.49356e-07 1.32859e-21 -1.18059e-06 9.05254e-22 0)
(2.33929e-06 -5.02896e-07 1.25107e-21 -1.16088e-06 1.24199e-21 0)
(2.32631e-06 -4.57388e-07 -6.12968e-22 -1.14242e-06 -6.09441e-22 0)
(2.31508e-06 -4.15041e-07 -9.78583e-23 -1.1262e-06 2.73335e-22 0)
(2.30729e-06 -3.74762e-07 2.68763e-21 -1.11208e-06 1.60115e-21 0)
(2.30152e-06 -3.36936e-07 -1.79758e-21 -1.10016e-06 -1.83391e-21 0)
(2.2981e-06 -3.01192e-07 -6.39422e-22 -1.09042e-06 -6.60494e-22 0)
(2.29648e-06 -2.6741e-07 1.73933e-21 -1.0828e-06 2.57504e-21 0)
(2.29657e-06 -2.35306e-07 -2.53671e-21 -1.07717e-06 -7.55507e-22 0)
(2.29807e-06 -2.04582e-07 -1.80989e-21 -1.07336e-06 -1.93335e-21 0)
(2.3007e-06 -1.74888e-07 3.90566e-24 -1.07105e-06 -3.90565e-22 0)
(2.30414e-06 -1.45732e-07 -2.43774e-21 -1.06981e-06 -1.86538e-21 0)
(2.30776e-06 -1.16645e-07 -1.77496e-23 -1.06893e-06 -1.66868e-23 0)
(2.31117e-06 -8.64981e-08 2.39654e-21 -1.06751e-06 2.29067e-21 0)
(2.31265e-06 -5.51388e-08 3.83003e-23 -1.064e-06 4.7283e-22 0)
(2.31228e-06 -1.73543e-08 1.97651e-20 -1.05674e-06 8.90826e-22 -4.22171e-37)
(2.72569e-06 -7.13442e-07 -4.81675e-22 -1.4139e-06 -6.17575e-22 0)
(2.64695e-06 -6.75944e-07 6.65248e-22 -1.38843e-06 6.07242e-22 0)
(2.6018e-06 -6.23653e-07 8.20763e-22 -1.35026e-06 4.28765e-22 0)
(2.54869e-06 -5.83649e-07 -6.49078e-22 -1.3197e-06 -6.08579e-22 0)
(2.51017e-06 -5.38068e-07 -1.53667e-21 -1.28686e-06 -7.67571e-22 0)
(2.47213e-06 -4.9678e-07 7.50164e-22 -1.25682e-06 3.73059e-22 0)
(2.442e-06 -4.55342e-07 2.1236e-21 -1.2287e-06 1.36639e-21 0)
(2.41506e-06 -4.16044e-07 -3.41673e-21 -1.20324e-06 -2.29404e-21 0)
(2.39318e-06 -3.78155e-07 -2.10746e-21 -1.18063e-06 -1.38821e-21 0)
(2.3748e-06 -3.42097e-07 3.3078e-21 -1.16095e-06 2.23996e-21 0)
(2.36014e-06 -3.07726e-07 -1.34863e-21 -1.14425e-06 -6.45005e-22 0)
(2.34857e-06 -2.74988e-07 1.78833e-21 -1.13046e-06 1.83135e-21 0)
(2.33992e-06 -2.43693e-07 1.92453e-21 -1.11952e-06 1.25393e-21 0)
(2.33382e-06 -2.1356e-07 -1.12445e-21 -1.11123e-06 -1.56437e-21 0)
(2.32997e-06 -1.84235e-07 -7.31867e-22 -1.10537e-06 3.80466e-22 0)
(2.32801e-06 -1.55132e-07 3.47466e-23 -1.10158e-06 3.20491e-23 0)
(2.32743e-06 -1.2568e-07 -2.97056e-21 -1.09933e-06 -2.47187e-21 0)
(2.32781e-06 -9.44225e-08 5.90086e-22 -1.09797e-06 6.62697e-22 0)
(2.32807e-06 -6.11505e-08 1.16924e-21 -1.09648e-06 9.14869e-22 0)
(2.32793e-06 -1.96424e-08 2.03581e-20 -1.09361e-06 7.39043e-22 -1.82384e-37)
(2.9603e-06 -6.11771e-07 5.78936e-24 -1.53892e-06 1.96806e-23 0)
(2.85315e-06 -5.9893e-07 -6.87753e-22 -1.50922e-06 -6.04919e-22 0)
(2.78912e-06 -5.58418e-07 1.47146e-22 -1.46412e-06 -1.60424e-22 0)
(2.71424e-06 -5.3059e-07 0 -1.42501e-06 0 0)
(2.65773e-06 -4.95166e-07 0 -1.38512e-06 0 0)
(2.60251e-06 -4.61948e-07 -2.0592e-21 -1.3471e-06 -1.61212e-21 0)
(2.55656e-06 -4.27783e-07 1.83253e-21 -1.31145e-06 1.70842e-21 0)
(2.51513e-06 -3.94328e-07 3.86307e-21 -1.27833e-06 3.36833e-21 0)
(2.47981e-06 -3.61453e-07 -2.92249e-21 -1.24829e-06 -2.80603e-21 0)
(2.44923e-06 -3.29486e-07 -2.55956e-21 -1.22145e-06 -2.17918e-21 0)
(2.42345e-06 -2.98536e-07 1.18063e-21 -1.19802e-06 1.17377e-21 0)
(2.40189e-06 -2.68636e-07 -1.14923e-22 -1.17809e-06 2.32696e-22 0)
(2.38433e-06 -2.39728e-07 2.01871e-21 -1.16166e-06 9.97783e-22 0)
(2.37038e-06 -2.11605e-07 3.14539e-21 -1.14869e-06 2.17574e-21 0)
(2.35977e-06 -1.8396e-07 4.29471e-23 -1.13907e-06 3.92352e-23 0)
(2.35214e-06 -1.56187e-07 1.42914e-21 -1.1326e-06 -3.91693e-22 0)
(2.34718e-06 -1.27682e-07 0 -1.12904e-06 0 0)
(2.34443e-06 -9.68115e-08 -1.2044e-21 -1.12804e-06 -5.32067e-22 0)
(2.34367e-06 -6.33591e-08 5.79433e-22 -1.1292e-06 2.45292e-22 0)
(2.34405e-06 -2.05958e-08 2.26671e-20 -1.13176e-06 1.23563e-21 -5.09716e-37)
(3.16784e-06 -4.67053e-07 -4.53934e-24 -1.63269e-06 -1.72152e-23 0)
(3.03637e-06 -4.83397e-07 8.53296e-22 -1.60172e-06 5.09973e-22 0)
(2.95915e-06 -4.63064e-07 -8.48727e-22 -1.56013e-06 -5.16915e-22 0)
(2.86748e-06 -4.49814e-07 -8.35328e-22 -1.51577e-06 -5.03437e-22 0)
(2.79472e-06 -4.28794e-07 2.2937e-21 -1.47137e-06 1.56461e-21 0)
(2.72485e-06 -4.05634e-07 1.63378e-21 -1.42681e-06 9.75406e-22 0)
(2.66445e-06 -3.80396e-07 -2.17026e-21 -1.38452e-06 -1.45257e-21 0)
(2.61008e-06 -3.54038e-07 2.87584e-22 -1.34477e-06 -3.05619e-22 0)
(2.56252e-06 -3.2729e-07 4.92926e-22 -1.30827e-06 4.57031e-22 0)
(2.52078e-06 -3.00555e-07 -2.66613e-22 -1.2753e-06 3.60309e-22 0)
(2.48468e-06 -2.74178e-07 -2.20298e-21 -1.24612e-06 -1.20811e-21 0)
(2.45373e-06 -2.48307e-07 1.97289e-23 -1.22087e-06 1.90263e-23 0)
(2.42765e-06 -2.22986e-07 -1.00911e-21 -1.19967e-06 -1.3721e-21 0)
(2.40609e-06 -1.98084e-07 -3.40636e-23 -1.18257e-06 -3.11531e-23 0)
(2.38884e-06 -1.7335e-07 1.28662e-21 -1.16964e-06 6.26635e-22 0)
(2.37555e-06 -1.48205e-07 -2.56802e-23 -1.16086e-06 -2.24404e-23 0)
(2.36622e-06 -1.22055e-07 1.57094e-21 -1.1563e-06 2.10507e-21 0)
(2.36034e-06 -9.3232e-08 -5.92296e-22 -1.15594e-06 -2.65118e-22 0)
(2.35864e-06 -6.15142e-08 -2.77755e-21 -1.16011e-06 -2.74844e-21 0)
(2.35961e-06 -2.01382e-08 2.04484e-20 -1.1686e-06 -9.8317e-22 -4.03197e-35)
(3.33309e-06 -2.81403e-07 -1.0877e-22 -1.69373e-06 -5.48468e-23 0)
(3.19688e-06 -3.17187e-07 -9.14775e-22 -1.65578e-06 -5.39291e-22 0)
(3.10864e-06 -3.25614e-07 7.42992e-22 -1.62707e-06 5.83355e-22 0)
(3.0105e-06 -3.29033e-07 -1.94512e-21 -1.58666e-06 -1.77098e-21 0)
(2.92459e-06 -3.27398e-07 -2.00095e-21 -1.54464e-06 -1.66331e-21 0)
(2.84339e-06 -3.19923e-07 1.18433e-21 -1.49965e-06 1.22265e-21 0)
(2.76999e-06 -3.08378e-07 1.02977e-21 -1.45436e-06 1.22709e-21 0)
(2.70339e-06 -2.9344e-07 1.79383e-21 -1.41016e-06 1.61648e-21 0)
(2.64392e-06 -2.76153e-07 -2.1041e-21 -1.36819e-06 -1.57092e-21 0)
(2.59111e-06 -2.57297e-07 5.24407e-24 -1.32932e-06 4.31278e-23 0)
(2.54474e-06 -2.375e-07 -2.57068e-23 -1.29415e-06 -1.28578e-22 0)
(2.50439e-06 -2.17208e-07 -1.64612e-21 -1.26313e-06 -1.60866e-21 0)
(2.46978e-06 -1.96691e-07 0 -1.23657e-06 0 0)
(2.44057e-06 -1.76013e-07 -1.48983e-21 -1.21474e-06 -4.84288e-22 0)
(2.4166e-06 -1.55072e-07 -7.00942e-24 -1.19788e-06 -2.96993e-23 0)
(2.39756e-06 -1.33421e-07 -1.92392e-21 -1.18624e-06 -9.37001e-22 0)
(2.38371e-06 -1.10557e-07 5.27464e-22 -1.18022e-06 5.56309e-22 0)
(2.37455e-06 -8.49365e-08 1.21329e-21 -1.18019e-06 5.55426e-22 0)
(2.37184e-06 -5.63625e-08 1.5071e-23 -1.18722e-06 -1.23213e-24 0)
(2.37347e-06 -1.84808e-08 2.20327e-20 -1.20171e-06 -9.65296e-23 -1.77591e-37)
(3.41399e-06 -1.28498e-07 9.41624e-22 -1.69907e-06 8.28388e-22 0)
(3.28984e-06 -1.4762e-07 -8.70556e-22 -1.66714e-06 -5.47365e-22 0)
(3.19444e-06 -1.82889e-07 -5.04623e-22 -1.64701e-06 -4.18828e-22 0)
(3.09704e-06 -1.99614e-07 8.36498e-22 -1.61422e-06 5.11431e-22 0)
(3.00683e-06 -2.11387e-07 -1.65286e-21 -1.57579e-06 -7.5138e-22 0)
(2.92122e-06 -2.16679e-07 -1.11474e-21 -1.53367e-06 -5.26723e-22 0)
(2.84228e-06 -2.16863e-07 -1.39049e-21 -1.48958e-06 -1.00903e-21 0)
(2.76949e-06 -2.1284e-07 1.67072e-22 -1.44541e-06 -1.16575e-22 0)
(2.70347e-06 -2.05413e-07 2.81026e-21 -1.40248e-06 1.7916e-21 0)
(2.64393e-06 -1.95431e-07 -9.67376e-23 -1.36191e-06 -1.03964e-22 0)
(2.59089e-06 -1.83549e-07 1.50184e-21 -1.32454e-06 8.50824e-22 0)
(2.54408e-06 -1.70319e-07 -7.41749e-23 -1.29104e-06 -8.39865e-23 0)
(2.50335e-06 -1.5612e-07 5.49241e-36 -1.26193e-06 5.57595e-36 0)
(2.46846e-06 -1.4115e-07 -6.6017e-22 -1.23768e-06 -3.29049e-22 0)
(2.43937e-06 -1.2544e-07 6.45334e-22 -1.21876e-06 3.14363e-22 0)
(2.41586e-06 -1.0872e-07 -2.90225e-23 -1.20565e-06 -4.18767e-23 0)
(2.39848e-06 -9.06344e-08 1.02102e-22 -1.19907e-06 -2.7236e-22 0)
(2.38671e-06 -6.99873e-08 5.87322e-24 -1.19974e-06 1.94352e-23 0)
(2.38309e-06 -4.66397e-08 -5.94864e-24 -1.20934e-06 7.74307e-24 0)
(2.38504e-06 -1.51989e-08 2.39489e-20 -1.22888e-06 1.22399e-22 2.13433e-37)
(3.34654e-06 2.15461e-08 8.74263e-22 -1.63732e-06 6.91353e-22 0)
(3.26372e-06 -4.15999e-10 0 -1.64636e-06 0 0)
(3.17739e-06 -4.34609e-08 -6.82117e-22 -1.63087e-06 -6.00923e-22 0)
(3.09103e-06 -7.16963e-08 8.91503e-36 -1.60598e-06 7.21688e-36 0)
(3.00869e-06 -9.39323e-08 2.04283e-36 -1.5731e-06 1.48187e-36 0)
(2.92917e-06 -1.09687e-07 9.68864e-36 -1.53557e-06 7.20466e-36 0)
(2.85455e-06 -1.19867e-07 1.48635e-35 -1.49516e-06 1.20086e-35 0)
(2.78454e-06 -1.25389e-07 -5.9778e-22 -1.45378e-06 -5.60063e-22 0)
(2.72e-06 -1.26977e-07 0 -1.41285e-06 0 0)
(2.66089e-06 -1.2543e-07 5.71236e-22 -1.3736e-06 5.53381e-22 0)
(2.60748e-06 -1.21384e-07 -8.18833e-37 -1.33697e-06 -1.37351e-36 0)
(2.55969e-06 -1.15404e-07 -5.49509e-22 -1.30379e-06 -5.51177e-22 0)
(2.51758e-06 -1.07898e-07 5.4047e-22 -1.27471e-06 5.51485e-22 0)
(2.48108e-06 -9.9143e-08 7.75867e-36 -1.25034e-06 5.65159e-36 0)
(2.45033e-06 -8.92459e-08 -5.26031e-22 -1.23132e-06 -5.54609e-22 0)
(2.42524e-06 -7.81218e-08 -4.66249e-36 -1.2183e-06 -4.30992e-36 0)
(2.40662e-06 -6.55248e-08 5.16648e-22 -1.21224e-06 5.6117e-22 0)
(2.39401e-06 -5.0708e-08 5.13941e-22 -1.21406e-06 5.66064e-22 0)
(2.39057e-06 -3.3689e-08 -5.54602e-36 -1.22595e-06 -4.83639e-36 0)
(2.39336e-06 -1.07088e-08 2.45956e-20 -1.24907e-06 -4.91101e-36 -1.45092e-49)