/*--------------------------------*- C++ -*----------------------------------*\
  =========                 |
  \\      /  F ield         | OpenFOAM: The Open Source CFD Toolbox
   \\    /   O peration     | Website:  https://openfoam.org
    \\  /    A nd           | Version:  9
     \\/     M anipulation  |
\*---------------------------------------------------------------------------*/
FoamFile
{
    format      ascii;
    class       pointVectorField;
    location    "5";
    object      pointD;
}
// * * * * * * * * * * * * * * * * * * * * * * * * * * * * * * * * * * * * * //

dimensions      [0 1 0 0 0 0 0];

internalField   nonuniform List<vector> 
2142
(
(3.70568e-06 1.08716e-06 -3.55257e-20)
(3.43474e-06 1.25853e-06 0)
(3.24539e-06 1.38078e-06 0)
(3.10763e-06 1.48014e-06 0)
(3.00852e-06 1.56157e-06 0)
(2.93824e-06 1.6317e-06 0)
(2.88977e-06 1.69339e-06 0)
(2.85816e-06 1.74916e-06 0)
(2.83958e-06 1.80052e-06 0)
(2.83125e-06 1.8485e-06 0)
(2.83303e-06 1.90058e-06 0)
(3.38605e-06 9.97468e-07 -4.16358e-20)
(3.09924e-06 1.13254e-06 0)
(2.90047e-06 1.22771e-06 0)
(2.7567e-06 1.30575e-06 0)
(2.65354e-06 1.36957e-06 0)
(2.58026e-06 1.42479e-06 0)
(2.52926e-06 1.4734e-06 0)
(2.49529e-06 1.51753e-06 0)
(2.4742e-06 1.55818e-06 0)
(2.4631e-06 1.59658e-06 0)
(2.41402e-06 1.59849e-06 0)
(3.05343e-06 9.09267e-07 -4.61935e-20)
(2.75881e-06 1.00391e-06 0)
(2.55588e-06 1.06992e-06 0)
(2.40995e-06 1.12566e-06 0)
(2.30563e-06 1.17158e-06 0)
(2.23157e-06 1.21201e-06 0)
(2.17978e-06 1.24788e-06 0)
(2.14476e-06 1.28079e-06 0)
(2.12223e-06 1.31116e-06 0)
(2.1091e-06 1.34019e-06 0)
(2.06512e-06 1.33722e-06 0)
(2.70916e-06 8.23343e-07 -4.84836e-20)
(2.41545e-06 8.75209e-07 0)
(2.21411e-06 9.1106e-07 0)
(2.07021e-06 9.44272e-07 0)
(1.9679e-06 9.72591e-07 0)
(1.89551e-06 9.98862e-07 0)
(1.84486e-06 1.02285e-06 0)
(1.81034e-06 1.04548e-06 0)
(1.7877e-06 1.06661e-06 0)
(1.77377e-06 1.08713e-06 0)
(1.73578e-06 1.08084e-06 0)
(2.35446e-06 7.40162e-07 -4.66228e-20)
(2.07059e-06 7.48859e-07 0)
(1.87684e-06 7.54755e-07 0)
(1.73943e-06 7.66086e-07 0)
(1.64255e-06 7.77784e-07 0)
(1.57446e-06 7.91073e-07 0)
(1.52699e-06 8.04444e-07 0)
(1.49459e-06 8.18083e-07 0)
(1.47314e-06 8.31245e-07 0)
(1.45954e-06 8.4445e-07 0)
(1.42781e-06 8.36314e-07 0)
(1.99098e-06 6.59691e-07 -4.06426e-20)
(1.72532e-06 6.26773e-07 0)
(1.54517e-06 6.04243e-07 0)
(1.41894e-06 5.95427e-07 0)
(1.33109e-06 5.92339e-07 0)
(1.27002e-06 5.94507e-07 0)
(1.22779e-06 5.9907e-07 0)
(1.19906e-06 6.05426e-07 0)
(1.17999e-06 6.12249e-07 0)
(1.16766e-06 6.19619e-07 0)
(1.14218e-06 6.11054e-07 0)
(1.61982e-06 5.81038e-07 -3.24008e-20)
(1.37973e-06 5.10029e-07 0)
(1.21934e-06 4.62097e-07 0)
(1.10922e-06 4.36254e-07 0)
(1.03416e-06 4.21317e-07 0)
(9.82857e-07 4.15041e-07 0)
(9.4784e-07 4.13171e-07 0)
(9.24186e-07 4.14346e-07 0)
(9.08506e-07 4.16725e-07 0)
(8.98199e-07 4.19979e-07 0)
(8.78716e-07 4.12313e-07 0)
(1.24414e-06 5.01859e-07 -2.25749e-20)
(1.03424e-06 3.98138e-07 0)
(8.99833e-07 3.2995e-07 0)
(8.1101e-07 2.92242e-07 0)
(7.52436e-07 2.69854e-07 0)
(7.13358e-07 2.58754e-07 0)
(6.8713e-07 2.53389e-07 0)
(6.69583e-07 2.51784e-07 0)
(6.57964e-07 2.51767e-07 0)
(6.50187e-07 2.5271e-07 0)
(6.36284e-07 2.47024e-07 0)
(8.65946e-07 4.15073e-07 -1.19325e-20)
(6.87228e-07 2.8696e-07 0)
(5.86643e-07 2.07753e-07 0)
(5.24579e-07 1.6668e-07 0)
(4.85709e-07 1.4328e-07 0)
(4.60661e-07 1.31912e-07 0)
(4.44151e-07 1.26294e-07 0)
(4.33195e-07 1.24262e-07 0)
(4.25896e-07 1.23684e-07 0)
(4.20866e-07 1.23875e-07 0)
(4.1201e-07 1.20743e-07 0)
(5.09053e-07 3.05559e-07 -1.22264e-21)
(3.41623e-07 1.68981e-07 0)
(2.84453e-07 9.88458e-08 0)
(2.53839e-07 6.73584e-08 0)
(2.3588e-07 5.12198e-08 0)
(2.24666e-07 4.41801e-08 0)
(2.17295e-07 4.10392e-08 0)
(2.12383e-07 4.01542e-08 0)
(2.09031e-07 4.00693e-08 0)
(2.06607e-07 4.03434e-08 0)
(2.0225e-07 3.94226e-08 0)
(1.71264e-07 1.21463e-07 2.02776e-21)
(0 0 0)
(0 0 0)
(0 0 0)
(0 0 0)
(0 0 0)
(0 0 0)
(0 0 0)
(0 0 0)
(0 0 0)
(0 0 0)
(3.70568e-06 1.08716e-06 -3.55257e-20)
(3.43474e-06 1.25853e-06 0)
(3.24539e-06 1.38078e-06 0)
(3.10763e-06 1.48014e-06 0)
(3.00852e-06 1.56157e-06 0)
(2.93824e-06 1.6317e-06 0)
(2.88977e-06 1.69339e-06 0)
(2.85816e-06 1.74916e-06 0)
(2.83958e-06 1.80052e-06 0)
(2.83125e-06 1.8485e-06 0)
(2.83303e-06 1.90058e-06 0)
(3.38605e-06 9.97468e-07 -4.16358e-20)
(3.09924e-06 1.13254e-06 0)
(2.90047e-06 1.22771e-06 0)
(2.7567e-06 1.30575e-06 0)
(2.65354e-06 1.36957e-06 0)
(2.58026e-06 1.42479e-06 0)
(2.52926e-06 1.4734e-06 0)
(2.49529e-06 1.51753e-06 0)
(2.4742e-06 1.55818e-06 0)
(2.4631e-06 1.59658e-06 0)
(2.41402e-06 1.59849e-06 0)
(3.05343e-06 9.09267e-07 -4.61935e-20)
(2.75881e-06 1.00391e-06 0)
(2.55588e-06 1.06992e-06 0)
(2.40995e-06 1.12566e-06 0)
(2.30563e-06 1.17158e-06 0)
(2.23157e-06 1.21201e-06 0)
(2.17978e-06 1.24788e-06 0)
(2.14476e-06 1.28079e-06 0)
(2.12223e-06 1.31116e-06 0)
(2.1091e-06 1.34019e-06 0)
(2.06512e-06 1.33722e-06 0)
(2.70916e-06 8.23343e-07 -4.84836e-20)
(2.41545e-06 8.75209e-07 0)
(2.21411e-06 9.1106e-07 0)
(2.07021e-06 9.44272e-07 0)
(1.9679e-06 9.72591e-07 0)
(1.89551e-06 9.98862e-07 0)
(1.84486e-06 1.02285e-06 0)
(1.81034e-06 1.04548e-06 0)
(1.7877e-06 1.06661e-06 0)
(1.77377e-06 1.08713e-06 0)
(1.73578e-06 1.08084e-06 0)
(2.35446e-06 7.40162e-07 -4.66228e-20)
(2.07059e-06 7.48859e-07 0)
(1.87684e-06 7.54755e-07 0)
(1.73943e-06 7.66086e-07 0)
(1.64255e-06 7.77784e-07 0)
(1.57446e-06 7.91073e-07 0)
(1.52699e-06 8.04444e-07 0)
(1.49459e-06 8.18083e-07 0)
(1.47314e-06 8.31245e-07 0)
(1.45954e-06 8.4445e-07 0)
(1.42781e-06 8.36314e-07 0)
(1.99098e-06 6.59691e-07 -4.06426e-20)
(1.72532e-06 6.26773e-07 0)
(1.54517e-06 6.04243e-07 0)
(1.41894e-06 5.95427e-07 0)
(1.33109e-06 5.92339e-07 0)
(1.27002e-06 5.94507e-07 0)
(1.22779e-06 5.9907e-07 0)
(1.19906e-06 6.05426e-07 0)
(1.17999e-06 6.12249e-07 0)
(1.16766e-06 6.19619e-07 0)
(1.14218e-06 6.11054e-07 0)
(1.61982e-06 5.81038e-07 -3.24008e-20)
(1.37973e-06 5.10029e-07 0)
(1.21934e-06 4.62097e-07 0)
(1.10922e-06 4.36254e-07 0)
(1.03416e-06 4.21317e-07 0)
(9.82857e-07 4.15041e-07 0)
(9.4784e-07 4.13171e-07 0)
(9.24186e-07 4.14346e-07 0)
(9.08506e-07 4.16725e-07 0)
(8.98199e-07 4.19979e-07 0)
(8.78716e-07 4.12313e-07 0)
(1.24414e-06 5.01859e-07 -2.25749e-20)
(1.03424e-06 3.98138e-07 0)
(8.99833e-07 3.2995e-07 0)
(8.1101e-07 2.92242e-07 0)
(7.52436e-07 2.69854e-07 0)
(7.13358e-07 2.58754e-07 0)
(6.8713e-07 2.53389e-07 0)
(6.69583e-07 2.51784e-07 0)
(6.57964e-07 2.51767e-07 0)
(6.50187e-07 2.5271e-07 0)
(6.36284e-07 2.47024e-07 0)
(8.65946e-07 4.15073e-07 -1.19325e-20)
(6.87228e-07 2.8696e-07 0)
(5.86643e-07 2.07753e-07 0)
(5.24579e-07 1.6668e-07 0)
(4.85709e-07 1.4328e-07 0)
(4.60661e-07 1.31912e-07 0)
(4.44151e-07 1.26294e-07 0)
(4.33195e-07 1.24262e-07 0)
(4.25896e-07 1.23684e-07 0)
(4.20866e-07 1.23875e-07 0)
(4.1201e-07 1.20743e-07 0)
(5.09053e-07 3.05559e-07 -1.22264e-21)
(3.41623e-07 1.68981e-07 0)
(2.84453e-07 9.88458e-08 0)
(2.53839e-07 6.73584e-08 0)
(2.3588e-07 5.12198e-08 0)
(2.24666e-07 4.41801e-08 0)
(2.17295e-07 4.10392e-08 0)
(2.12383e-07 4.01542e-08 0)
(2.09031e-07 4.00693e-08 0)
(2.06607e-07 4.03434e-08 0)
(2.0225e-07 3.94226e-08 0)
(1.71264e-07 1.21463e-07 2.02776e-21)
(0 0 0)
(0 0 0)
(0 0 0)
(0 0 0)
(0 0 0)
(0 0 0)
(0 0 0)
(0 0 0)
(0 0 0)
(0 0 0)
(6.01199e-06 1.78387e-06 -2.69552e-21)
(6.0549e-06 1.95644e-06 -1.51009e-21)
(6.04969e-06 2.17834e-06 -1.64925e-21)
(6.0462e-06 2.38423e-06 -1.78821e-21)
(6.04983e-06 2.57374e-06 -1.92569e-21)
(6.06261e-06 2.74881e-06 -2.0617e-21)
(6.08528e-06 2.91169e-06 -2.19644e-21)
(6.11775e-06 3.06468e-06 -2.33014e-21)
(6.15963e-06 3.20969e-06 -2.46303e-21)
(6.21002e-06 3.34854e-06 -2.59539e-21)
(6.26839e-06 3.48195e-06 -2.69026e-21)
(5.87838e-06 1.71702e-06 -4.00922e-21)
(5.86009e-06 1.9487e-06 0)
(5.84483e-06 2.16919e-06 0)
(5.83671e-06 2.37204e-06 0)
(5.83777e-06 2.5573e-06 0)
(5.84871e-06 2.72725e-06 0)
(5.86945e-06 2.88438e-06 0)
(5.8995e-06 3.0312e-06 0)
(5.93826e-06 3.16977e-06 0)
(5.98485e-06 3.30203e-06 0)
(6.04209e-06 3.42959e-06 0)
(5.69653e-06 1.68871e-06 -4.12552e-21)
(5.65838e-06 1.92548e-06 0)
(5.62739e-06 2.14394e-06 0)
(5.60754e-06 2.34253e-06 0)
(5.59964e-06 2.52236e-06 0)
(5.60342e-06 2.68626e-06 0)
(5.61801e-06 2.83695e-06 0)
(5.64238e-06 2.97709e-06 0)
(5.67557e-06 3.10881e-06 0)
(5.7164e-06 3.23419e-06 0)
(5.77213e-06 3.35616e-06 0)
(5.50381e-06 1.6429e-06 -4.43693e-21)
(5.44163e-06 1.88741e-06 0)
(5.39188e-06 2.10306e-06 0)
(5.35715e-06 2.29583e-06 0)
(5.33732e-06 2.46849e-06 0)
(5.33128e-06 2.62479e-06 0)
(5.33743e-06 2.76776e-06 0)
(5.35421e-06 2.90019e-06 0)
(5.38031e-06 3.02428e-06 0)
(5.41417e-06 3.14212e-06 0)
(5.46829e-06 3.25866e-06 0)
(5.29677e-06 1.5838e-06 -5.39564e-21)
(5.2065e-06 1.83504e-06 0)
(5.13593e-06 2.04664e-06 0)
(5.08462e-06 2.23215e-06 0)
(5.0514e-06 2.39612e-06 0)
(5.03421e-06 2.54338e-06 0)
(5.03076e-06 2.67735e-06 0)
(5.03897e-06 2.80097e-06 0)
(5.05718e-06 2.91646e-06 0)
(5.08347e-06 3.02594e-06 0)
(5.13616e-06 3.13705e-06 0)
(5.07347e-06 1.51426e-06 -7.44446e-21)
(4.95186e-06 1.76861e-06 0)
(4.85917e-06 1.97403e-06 0)
(4.79069e-06 2.15053e-06 0)
(4.74375e-06 2.30423e-06 0)
(4.71517e-06 2.44109e-06 0)
(4.70193e-06 2.56484e-06 0)
(4.70142e-06 2.67858e-06 0)
(4.71166e-06 2.78456e-06 0)
(4.73035e-06 2.88487e-06 0)
(4.78202e-06 2.99062e-06 0)
(4.83316e-06 1.43685e-06 -1.08789e-20)
(4.6783e-06 1.68875e-06 0)
(4.56307e-06 1.88503e-06 0)
(4.47759e-06 2.05054e-06 0)
(4.41734e-06 2.1925e-06 0)
(4.37781e-06 2.31775e-06 0)
(4.35521e-06 2.43027e-06 0)
(4.34639e-06 2.53324e-06 0)
(4.34903e-06 2.62895e-06 0)
(4.36052e-06 2.71939e-06 0)
(4.41173e-06 2.81989e-06 0)
(4.57571e-06 1.35367e-06 -1.57513e-20)
(4.38742e-06 1.59632e-06 0)
(4.25018e-06 1.77987e-06 0)
(4.14861e-06 1.93218e-06 0)
(4.07602e-06 2.06093e-06 0)
(4.0265e-06 2.17351e-06 0)
(3.99541e-06 2.27398e-06 0)
(3.9791e-06 2.36552e-06 0)
(3.97489e-06 2.45037e-06 0)
(3.9799e-06 2.53039e-06 0)
(4.03121e-06 2.62584e-06 0)
(4.3015e-06 1.2666e-06 -2.18392e-20)
(4.08146e-06 1.49262e-06 0)
(3.92383e-06 1.65954e-06 0)
(3.80774e-06 1.79634e-06 0)
(3.72428e-06 1.9105e-06 0)
(3.6661e-06 2.00954e-06 0)
(3.62773e-06 2.09735e-06 0)
(3.605e-06 2.17702e-06 0)
(3.59487e-06 2.25065e-06 0)
(3.59432e-06 2.31991e-06 0)
(3.64628e-06 2.41043e-06 0)
(4.01119e-06 1.17728e-06 -2.86612e-20)
(3.76301e-06 1.37934e-06 0)
(3.58766e-06 1.52571e-06 0)
(3.45931e-06 1.64478e-06 0)
(3.36687e-06 1.74308e-06 0)
(3.30168e-06 1.82789e-06 0)
(3.25743e-06 1.90269e-06 0)
(3.22953e-06 1.97032e-06 0)
(3.21457e-06 2.03265e-06 0)
(3.20958e-06 2.0909e-06 0)
(3.26244e-06 2.17646e-06 0)
(6.01199e-06 1.78387e-06 -2.69552e-21)
(6.0549e-06 1.95644e-06 -1.51009e-21)
(6.04969e-06 2.17834e-06 -1.64925e-21)
(6.0462e-06 2.38423e-06 -1.78821e-21)
(6.04983e-06 2.57374e-06 -1.92569e-21)
(6.06261e-06 2.74881e-06 -2.0617e-21)
(6.08528e-06 2.91169e-06 -2.19644e-21)
(6.11775e-06 3.06468e-06 -2.33014e-21)
(6.15963e-06 3.20969e-06 -2.46303e-21)
(6.21002e-06 3.34854e-06 -2.59539e-21)
(6.26839e-06 3.48195e-06 -2.69026e-21)
(5.87838e-06 1.71702e-06 -4.00922e-21)
(5.86009e-06 1.9487e-06 0)
(5.84483e-06 2.16919e-06 0)
(5.83671e-06 2.37204e-06 0)
(5.83777e-06 2.5573e-06 0)
(5.84871e-06 2.72725e-06 0)
(5.86945e-06 2.88438e-06 0)
(5.8995e-06 3.0312e-06 0)
(5.93826e-06 3.16977e-06 0)
(5.98485e-06 3.30203e-06 0)
(6.04209e-06 3.42959e-06 0)
(5.69653e-06 1.68871e-06 -4.12552e-21)
(5.65838e-06 1.92548e-06 0)
(5.62739e-06 2.14394e-06 0)
(5.60754e-06 2.34253e-06 0)
(5.59964e-06 2.52236e-06 0)
(5.60342e-06 2.68626e-06 0)
(5.61801e-06 2.83695e-06 0)
(5.64238e-06 2.97709e-06 0)
(5.67557e-06 3.10881e-06 0)
(5.7164e-06 3.23419e-06 0)
(5.77213e-06 3.35616e-06 0)
(5.50381e-06 1.6429e-06 -4.43693e-21)
(5.44163e-06 1.88741e-06 0)
(5.39188e-06 2.10306e-06 0)
(5.35715e-06 2.29583e-06 0)
(5.33732e-06 2.46849e-06 0)
(5.33128e-06 2.62479e-06 0)
(5.33743e-06 2.76776e-06 0)
(5.35421e-06 2.90019e-06 0)
(5.38031e-06 3.02428e-06 0)
(5.41417e-06 3.14212e-06 0)
(5.46829e-06 3.25866e-06 0)
(5.29677e-06 1.5838e-06 -5.39564e-21)
(5.2065e-06 1.83504e-06 0)
(5.13593e-06 2.04664e-06 0)
(5.08462e-06 2.23215e-06 0)
(5.0514e-06 2.39612e-06 0)
(5.03421e-06 2.54338e-06 0)
(5.03076e-06 2.67735e-06 0)
(5.03897e-06 2.80097e-06 0)
(5.05718e-06 2.91646e-06 0)
(5.08347e-06 3.02594e-06 0)
(5.13616e-06 3.13705e-06 0)
(5.07347e-06 1.51426e-06 -7.44446e-21)
(4.95186e-06 1.76861e-06 0)
(4.85917e-06 1.97403e-06 0)
(4.79069e-06 2.15053e-06 0)
(4.74375e-06 2.30423e-06 0)
(4.71517e-06 2.44109e-06 0)
(4.70193e-06 2.56484e-06 0)
(4.70142e-06 2.67858e-06 0)
(4.71166e-06 2.78456e-06 0)
(4.73035e-06 2.88487e-06 0)
(4.78202e-06 2.99062e-06 0)
(4.83316e-06 1.43685e-06 -1.08789e-20)
(4.6783e-06 1.68875e-06 0)
(4.56307e-06 1.88503e-06 0)
(4.47759e-06 2.05054e-06 0)
(4.41734e-06 2.1925e-06 0)
(4.37781e-06 2.31775e-06 0)
(4.35521e-06 2.43027e-06 0)
(4.34639e-06 2.53324e-06 0)
(4.34903e-06 2.62895e-06 0)
(4.36052e-06 2.71939e-06 0)
(4.41173e-06 2.81989e-06 0)
(4.57571e-06 1.35367e-06 -1.57513e-20)
(4.38742e-06 1.59632e-06 0)
(4.25018e-06 1.77987e-06 0)
(4.14861e-06 1.93218e-06 0)
(4.07602e-06 2.06093e-06 0)
(4.0265e-06 2.17351e-06 0)
(3.99541e-06 2.27398e-06 0)
(3.9791e-06 2.36552e-06 0)
(3.97489e-06 2.45037e-06 0)
(3.9799e-06 2.53039e-06 0)
(4.03121e-06 2.62584e-06 0)
(4.3015e-06 1.2666e-06 -2.18392e-20)
(4.08146e-06 1.49262e-06 0)
(3.92383e-06 1.65954e-06 0)
(3.80774e-06 1.79634e-06 0)
(3.72428e-06 1.9105e-06 0)
(3.6661e-06 2.00954e-06 0)
(3.62773e-06 2.09735e-06 0)
(3.605e-06 2.17702e-06 0)
(3.59487e-06 2.25065e-06 0)
(3.59432e-06 2.31991e-06 0)
(3.64628e-06 2.41043e-06 0)
(4.01119e-06 1.17728e-06 -2.86612e-20)
(3.76301e-06 1.37934e-06 0)
(3.58766e-06 1.52571e-06 0)
(3.45931e-06 1.64478e-06 0)
(3.36687e-06 1.74308e-06 0)
(3.30168e-06 1.82789e-06 0)
(3.25743e-06 1.90269e-06 0)
(3.22953e-06 1.97032e-06 0)
(3.21457e-06 2.03265e-06 0)
(3.20958e-06 2.0909e-06 0)
(3.26244e-06 2.17646e-06 0)
(6.33476e-06 3.61158e-06 -2.71004e-21)
(6.40797e-06 3.73919e-06 -2.69217e-21)
(6.48687e-06 3.86488e-06 -2.67454e-21)
(6.57092e-06 3.98927e-06 -2.65716e-21)
(6.65958e-06 4.11285e-06 -2.64003e-21)
(6.75233e-06 4.23605e-06 -2.62316e-21)
(6.84874e-06 4.3592e-06 -2.60655e-21)
(6.94839e-06 4.48261e-06 -2.59018e-21)
(7.05091e-06 4.60652e-06 -2.57403e-21)
(7.15596e-06 4.73114e-06 -2.55811e-21)
(7.26323e-06 4.85666e-06 -2.54242e-21)
(7.37243e-06 4.98322e-06 -2.52694e-21)
(7.48325e-06 5.11094e-06 -2.51168e-21)
(7.59544e-06 5.23991e-06 -2.49664e-21)
(7.70869e-06 5.37019e-06 -2.48184e-21)
(7.82274e-06 5.50179e-06 -2.4673e-21)
(7.93726e-06 5.63466e-06 -2.45304e-21)
(8.05194e-06 5.76862e-06 -2.43911e-21)
(8.16639e-06 5.90337e-06 -2.4256e-21)
(8.20432e-06 5.98731e-06 -4.08e-22)
(6.11289e-06 3.55532e-06 0)
(6.1923e-06 3.68022e-06 0)
(6.27634e-06 3.80347e-06 0)
(6.36454e-06 3.92571e-06 0)
(6.45654e-06 4.04743e-06 0)
(6.55194e-06 4.16903e-06 0)
(6.65042e-06 4.29084e-06 0)
(6.75166e-06 4.41312e-06 0)
(6.85537e-06 4.53613e-06 0)
(6.96128e-06 4.66004e-06 0)
(7.06913e-06 4.78504e-06 0)
(7.17869e-06 4.91126e-06 0)
(7.28972e-06 5.03881e-06 0)
(7.40201e-06 5.16778e-06 0)
(7.51534e-06 5.29822e-06 0)
(7.6295e-06 5.43014e-06 0)
(7.74427e-06 5.56348e-06 0)
(7.85945e-06 5.69807e-06 0)
(7.97483e-06 5.83363e-06 0)
(8.08974e-06 5.96941e-06 1.61552e-21)
(5.84973e-06 3.47933e-06 0)
(5.93875e-06 3.60333e-06 0)
(6.03113e-06 3.72576e-06 0)
(6.1265e-06 3.84733e-06 0)
(6.22467e-06 3.96853e-06 0)
(6.32538e-06 4.08975e-06 0)
(6.42844e-06 4.21133e-06 0)
(6.53363e-06 4.33354e-06 0)
(6.64075e-06 4.45661e-06 0)
(6.74963e-06 4.58073e-06 0)
(6.86008e-06 4.70607e-06 0)
(6.97196e-06 4.83277e-06 0)
(7.08509e-06 4.96094e-06 0)
(7.19933e-06 5.09067e-06 0)
(7.31453e-06 5.22202e-06 0)
(7.43053e-06 5.355e-06 0)
(7.54719e-06 5.48959e-06 0)
(7.66433e-06 5.62566e-06 0)
(7.78175e-06 5.76299e-06 0)
(7.89826e-06 5.90087e-06 1.63888e-21)
(5.55438e-06 3.38081e-06 0)
(5.65538e-06 3.50596e-06 0)
(5.75841e-06 3.62951e-06 0)
(5.86316e-06 3.75214e-06 0)
(5.96964e-06 3.87442e-06 0)
(6.07768e-06 3.9967e-06 0)
(6.18724e-06 4.11939e-06 0)
(6.29818e-06 4.24272e-06 0)
(6.41045e-06 4.36698e-06 0)
(6.52394e-06 4.49234e-06 0)
(6.63857e-06 4.61898e-06 0)
(6.75425e-06 4.74706e-06 0)
(6.8709e-06 4.87669e-06 0)
(6.98843e-06 5.00798e-06 0)
(7.10676e-06 5.14101e-06 0)
(7.2258e-06 5.27583e-06 0)
(7.34543e-06 5.41245e-06 0)
(7.46552e-06 5.55085e-06 0)
(7.58587e-06 5.69094e-06 0)
(7.70482e-06 5.83219e-06 1.70237e-21)
(5.23214e-06 3.25959e-06 0)
(5.34704e-06 3.38782e-06 0)
(5.4626e-06 3.51433e-06 0)
(5.57853e-06 3.63972e-06 0)
(5.69505e-06 3.76462e-06 0)
(5.81208e-06 3.8894e-06 0)
(5.92972e-06 4.01449e-06 0)
(6.04794e-06 4.14018e-06 0)
(6.16679e-06 4.26673e-06 0)
(6.28625e-06 4.39437e-06 0)
(6.40633e-06 4.52329e-06 0)
(6.52703e-06 4.65366e-06 0)
(6.64834e-06 4.78561e-06 0)
(6.77024e-06 4.91928e-06 0)
(6.8927e-06 5.05478e-06 0)
(7.01569e-06 5.19221e-06 0)
(7.13914e-06 5.33164e-06 0)
(7.26296e-06 5.47317e-06 0)
(7.38696e-06 5.61685e-06 0)
(7.50917e-06 5.76233e-06 1.80853e-21)
(4.88901e-06 3.11503e-06 0)
(5.01923e-06 3.24835e-06 0)
(5.14872e-06 3.37972e-06 0)
(5.27719e-06 3.50958e-06 0)
(5.40506e-06 3.63871e-06 0)
(5.53235e-06 3.76747e-06 0)
(5.65929e-06 3.89634e-06 0)
(5.78596e-06 4.02562e-06 0)
(5.91249e-06 4.15564e-06 0)
(6.03898e-06 4.28664e-06 0)
(6.16551e-06 4.41884e-06 0)
(6.29217e-06 4.55243e-06 0)
(6.419e-06 4.68759e-06 0)
(6.54607e-06 4.82446e-06 0)
(6.67341e-06 4.96321e-06 0)
(6.80104e-06 5.10399e-06 0)
(6.92894e-06 5.24695e-06 0)
(7.05709e-06 5.3923e-06 0)
(7.18534e-06 5.54023e-06 0)
(7.31154e-06 5.69055e-06 1.95396e-21)
(4.53049e-06 2.94764e-06 0)
(4.67698e-06 3.08795e-06 0)
(4.82138e-06 3.22601e-06 0)
(4.96332e-06 3.36203e-06 0)
(5.10352e-06 3.49695e-06 0)
(5.242e-06 3.63112e-06 0)
(5.37916e-06 3.76509e-06 0)
(5.51514e-06 3.89921e-06 0)
(5.65021e-06 4.03384e-06 0)
(5.78452e-06 4.16926e-06 0)
(5.91825e-06 4.30574e-06 0)
(6.05155e-06 4.44348e-06 0)
(6.18457e-06 4.58271e-06 0)
(6.31741e-06 4.7236e-06 0)
(6.45018e-06 4.86636e-06 0)
(6.58296e-06 5.01119e-06 0)
(6.7158e-06 5.15832e-06 0)
(6.84873e-06 5.30806e-06 0)
(6.98168e-06 5.46071e-06 0)
(7.11252e-06 5.61627e-06 2.1334e-21)
(4.1621e-06 2.75835e-06 0)
(4.32525e-06 2.90745e-06 0)
(4.48506e-06 3.0539e-06 0)
(4.64105e-06 3.19768e-06 0)
(4.79415e-06 3.33986e-06 0)
(4.94445e-06 3.48084e-06 0)
(5.09244e-06 3.62121e-06 0)
(5.23837e-06 3.76137e-06 0)
(5.38256e-06 3.90174e-06 0)
(5.52526e-06 4.04264e-06 0)
(5.66674e-06 4.18436e-06 0)
(5.8072e-06 4.32716e-06 0)
(5.94686e-06 4.4713e-06 0)
(6.0859e-06 4.61698e-06 0)
(6.22449e-06 4.76446e-06 0)
(6.36277e-06 4.91398e-06 0)
(6.50087e-06 5.06584e-06 0)
(6.63888e-06 5.22043e-06 0)
(6.77686e-06 5.37814e-06 0)
(6.91286e-06 5.53916e-06 2.34001e-21)
(3.78923e-06 2.54895e-06 0)
(3.96888e-06 2.70842e-06 0)
(4.14417e-06 2.86472e-06 0)
(4.31437e-06 3.0177e-06 0)
(4.48061e-06 3.16844e-06 0)
(4.64302e-06 3.31747e-06 0)
(4.80218e-06 3.4654e-06 0)
(4.9584e-06 3.61272e-06 0)
(5.11207e-06 3.75987e-06 0)
(5.26353e-06 3.90724e-06 0)
(5.41309e-06 4.05514e-06 0)
(5.56104e-06 4.20389e-06 0)
(5.70764e-06 4.35375e-06 0)
(5.85315e-06 4.50499e-06 0)
(5.9978e-06 4.65787e-06 0)
(6.1418e-06 4.81268e-06 0)
(6.28535e-06 4.96976e-06 0)
(6.42862e-06 5.12957e-06 0)
(6.57181e-06 5.29255e-06 0)
(6.71343e-06 5.45911e-06 2.56627e-21)
(3.41676e-06 2.32194e-06 0)
(3.61205e-06 2.49295e-06 0)
(3.80222e-06 2.66014e-06 0)
(3.9865e-06 2.82358e-06 0)
(4.16585e-06 2.98408e-06 0)
(4.34051e-06 3.1423e-06 0)
(4.51101e-06 3.29887e-06 0)
(4.67773e-06 3.45435e-06 0)
(4.84111e-06 3.60924e-06 0)
(5.00153e-06 3.76396e-06 0)
(5.15936e-06 3.9189e-06 0)
(5.31497e-06 4.07439e-06 0)
(5.46867e-06 4.23072e-06 0)
(5.62078e-06 4.38819e-06 0)
(5.7716e-06 4.54708e-06 0)
(5.9214e-06 4.70772e-06 0)
(6.07047e-06 4.87045e-06 0)
(6.21907e-06 5.03577e-06 0)
(6.36753e-06 5.20414e-06 0)
(6.51509e-06 5.37622e-06 2.80375e-21)
(3.08611e-06 2.1154e-06 0)
(3.29306e-06 2.29633e-06 0)
(3.49433e-06 2.4724e-06 0)
(3.68953e-06 2.6447e-06 0)
(3.87923e-06 2.81369e-06 0)
(4.0637e-06 2.98005e-06 0)
(4.2434e-06 3.14438e-06 0)
(4.41871e-06 3.30725e-06 0)
(4.59007e-06 3.46915e-06 0)
(4.75787e-06 3.63055e-06 0)
(4.92252e-06 3.79183e-06 0)
(5.08441e-06 3.95334e-06 0)
(5.24391e-06 4.11541e-06 0)
(5.40138e-06 4.27831e-06 0)
(5.55716e-06 4.44234e-06 0)
(5.71159e-06 4.60781e-06 0)
(5.86502e-06 4.77508e-06 0)
(6.0178e-06 4.94459e-06 0)
(6.17038e-06 5.11681e-06 0)
(6.32278e-06 5.29262e-06 3.01153e-21)
(6.33476e-06 3.61158e-06 -2.71004e-21)
(6.40797e-06 3.73919e-06 -2.69217e-21)
(6.48687e-06 3.86488e-06 -2.67454e-21)
(6.57092e-06 3.98927e-06 -2.65716e-21)
(6.65958e-06 4.11285e-06 -2.64003e-21)
(6.75233e-06 4.23605e-06 -2.62316e-21)
(6.84874e-06 4.3592e-06 -2.60655e-21)
(6.94839e-06 4.48261e-06 -2.59018e-21)
(7.05091e-06 4.60652e-06 -2.57403e-21)
(7.15596e-06 4.73114e-06 -2.55811e-21)
(7.26323e-06 4.85666e-06 -2.54242e-21)
(7.37243e-06 4.98322e-06 -2.52694e-21)
(7.48325e-06 5.11094e-06 -2.51168e-21)
(7.59544e-06 5.23991e-06 -2.49664e-21)
(7.70869e-06 5.37019e-06 -2.48184e-21)
(7.82274e-06 5.50179e-06 -2.4673e-21)
(7.93726e-06 5.63466e-06 -2.45304e-21)
(8.05194e-06 5.76862e-06 -2.43911e-21)
(8.16639e-06 5.90337e-06 -2.4256e-21)
(8.20432e-06 5.98731e-06 -4.08e-22)
(6.11289e-06 3.55532e-06 0)
(6.1923e-06 3.68022e-06 0)
(6.27634e-06 3.80347e-06 0)
(6.36454e-06 3.92571e-06 0)
(6.45654e-06 4.04743e-06 0)
(6.55194e-06 4.16903e-06 0)
(6.65042e-06 4.29084e-06 0)
(6.75166e-06 4.41312e-06 0)
(6.85537e-06 4.53613e-06 0)
(6.96128e-06 4.66004e-06 0)
(7.06913e-06 4.78504e-06 0)
(7.17869e-06 4.91126e-06 0)
(7.28972e-06 5.03881e-06 0)
(7.40201e-06 5.16778e-06 0)
(7.51534e-06 5.29822e-06 0)
(7.6295e-06 5.43014e-06 0)
(7.74427e-06 5.56348e-06 0)
(7.85945e-06 5.69807e-06 0)
(7.97483e-06 5.83363e-06 0)
(8.08974e-06 5.96941e-06 1.61552e-21)
(5.84973e-06 3.47933e-06 0)
(5.93875e-06 3.60333e-06 0)
(6.03113e-06 3.72576e-06 0)
(6.1265e-06 3.84733e-06 0)
(6.22467e-06 3.96853e-06 0)
(6.32538e-06 4.08975e-06 0)
(6.42844e-06 4.21133e-06 0)
(6.53363e-06 4.33354e-06 0)
(6.64075e-06 4.45661e-06 0)
(6.74963e-06 4.58073e-06 0)
(6.86008e-06 4.70607e-06 0)
(6.97196e-06 4.83277e-06 0)
(7.08509e-06 4.96094e-06 0)
(7.19933e-06 5.09067e-06 0)
(7.31453e-06 5.22202e-06 0)
(7.43053e-06 5.355e-06 0)
(7.54719e-06 5.48959e-06 0)
(7.66433e-06 5.62566e-06 0)
(7.78175e-06 5.76299e-06 0)
(7.89826e-06 5.90087e-06 1.63888e-21)
(5.55438e-06 3.38081e-06 0)
(5.65538e-06 3.50596e-06 0)
(5.75841e-06 3.62951e-06 0)
(5.86316e-06 3.75214e-06 0)
(5.96964e-06 3.87442e-06 0)
(6.07768e-06 3.9967e-06 0)
(6.18724e-06 4.11939e-06 0)
(6.29818e-06 4.24272e-06 0)
(6.41045e-06 4.36698e-06 0)
(6.52394e-06 4.49234e-06 0)
(6.63857e-06 4.61898e-06 0)
(6.75425e-06 4.74706e-06 0)
(6.8709e-06 4.87669e-06 0)
(6.98843e-06 5.00798e-06 0)
(7.10676e-06 5.14101e-06 0)
(7.2258e-06 5.27583e-06 0)
(7.34543e-06 5.41245e-06 0)
(7.46552e-06 5.55085e-06 0)
(7.58587e-06 5.69094e-06 0)
(7.70482e-06 5.83219e-06 1.70237e-21)
(5.23214e-06 3.25959e-06 0)
(5.34704e-06 3.38782e-06 0)
(5.4626e-06 3.51433e-06 0)
(5.57853e-06 3.63972e-06 0)
(5.69505e-06 3.76462e-06 0)
(5.81208e-06 3.8894e-06 0)
(5.92972e-06 4.01449e-06 0)
(6.04794e-06 4.14018e-06 0)
(6.16679e-06 4.26673e-06 0)
(6.28625e-06 4.39437e-06 0)
(6.40633e-06 4.52329e-06 0)
(6.52703e-06 4.65366e-06 0)
(6.64834e-06 4.78561e-06 0)
(6.77024e-06 4.91928e-06 0)
(6.8927e-06 5.05478e-06 0)
(7.01569e-06 5.19221e-06 0)
(7.13914e-06 5.33164e-06 0)
(7.26296e-06 5.47317e-06 0)
(7.38696e-06 5.61685e-06 0)
(7.50917e-06 5.76233e-06 1.80853e-21)
(4.88901e-06 3.11503e-06 0)
(5.01923e-06 3.24835e-06 0)
(5.14872e-06 3.37972e-06 0)
(5.27719e-06 3.50958e-06 0)
(5.40506e-06 3.63871e-06 0)
(5.53235e-06 3.76747e-06 0)
(5.65929e-06 3.89634e-06 0)
(5.78596e-06 4.02562e-06 0)
(5.91249e-06 4.15564e-06 0)
(6.03898e-06 4.28664e-06 0)
(6.16551e-06 4.41884e-06 0)
(6.29217e-06 4.55243e-06 0)
(6.419e-06 4.68759e-06 0)
(6.54607e-06 4.82446e-06 0)
(6.67341e-06 4.96321e-06 0)
(6.80104e-06 5.10399e-06 0)
(6.92894e-06 5.24695e-06 0)
(7.05709e-06 5.3923e-06 0)
(7.18534e-06 5.54023e-06 0)
(7.31154e-06 5.69055e-06 1.95396e-21)
(4.53049e-06 2.94764e-06 0)
(4.67698e-06 3.08795e-06 0)
(4.82138e-06 3.22601e-06 0)
(4.96332e-06 3.36203e-06 0)
(5.10352e-06 3.49695e-06 0)
(5.242e-06 3.63112e-06 0)
(5.37916e-06 3.76509e-06 0)
(5.51514e-06 3.89921e-06 0)
(5.65021e-06 4.03384e-06 0)
(5.78452e-06 4.16926e-06 0)
(5.91825e-06 4.30574e-06 0)
(6.05155e-06 4.44348e-06 0)
(6.18457e-06 4.58271e-06 0)
(6.31741e-06 4.7236e-06 0)
(6.45018e-06 4.86636e-06 0)
(6.58296e-06 5.01119e-06 0)
(6.7158e-06 5.15832e-06 0)
(6.84873e-06 5.30806e-06 0)
(6.98168e-06 5.46071e-06 0)
(7.11252e-06 5.61627e-06 2.1334e-21)
(4.1621e-06 2.75835e-06 0)
(4.32525e-06 2.90745e-06 0)
(4.48506e-06 3.0539e-06 0)
(4.64105e-06 3.19768e-06 0)
(4.79415e-06 3.33986e-06 0)
(4.94445e-06 3.48084e-06 0)
(5.09244e-06 3.62121e-06 0)
(5.23837e-06 3.76137e-06 0)
(5.38256e-06 3.90174e-06 0)
(5.52526e-06 4.04264e-06 0)
(5.66674e-06 4.18436e-06 0)
(5.8072e-06 4.32716e-06 0)
(5.94686e-06 4.4713e-06 0)
(6.0859e-06 4.61698e-06 0)
(6.22449e-06 4.76446e-06 0)
(6.36277e-06 4.91398e-06 0)
(6.50087e-06 5.06584e-06 0)
(6.63888e-06 5.22043e-06 0)
(6.77686e-06 5.37814e-06 0)
(6.91286e-06 5.53916e-06 2.34001e-21)
(3.78923e-06 2.54895e-06 0)
(3.96888e-06 2.70842e-06 0)
(4.14417e-06 2.86472e-06 0)
(4.31437e-06 3.0177e-06 0)
(4.48061e-06 3.16844e-06 0)
(4.64302e-06 3.31747e-06 0)
(4.80218e-06 3.4654e-06 0)
(4.9584e-06 3.61272e-06 0)
(5.11207e-06 3.75987e-06 0)
(5.26353e-06 3.90724e-06 0)
(5.41309e-06 4.05514e-06 0)
(5.56104e-06 4.20389e-06 0)
(5.70764e-06 4.35375e-06 0)
(5.85315e-06 4.50499e-06 0)
(5.9978e-06 4.65787e-06 0)
(6.1418e-06 4.81268e-06 0)
(6.28535e-06 4.96976e-06 0)
(6.42862e-06 5.12957e-06 0)
(6.57181e-06 5.29255e-06 0)
(6.71343e-06 5.45911e-06 2.56627e-21)
(3.41676e-06 2.32194e-06 0)
(3.61205e-06 2.49295e-06 0)
(3.80222e-06 2.66014e-06 0)
(3.9865e-06 2.82358e-06 0)
(4.16585e-06 2.98408e-06 0)
(4.34051e-06 3.1423e-06 0)
(4.51101e-06 3.29887e-06 0)
(4.67773e-06 3.45435e-06 0)
(4.84111e-06 3.60924e-06 0)
(5.00153e-06 3.76396e-06 0)
(5.15936e-06 3.9189e-06 0)
(5.31497e-06 4.07439e-06 0)
(5.46867e-06 4.23072e-06 0)
(5.62078e-06 4.38819e-06 0)
(5.7716e-06 4.54708e-06 0)
(5.9214e-06 4.70772e-06 0)
(6.07047e-06 4.87045e-06 0)
(6.21907e-06 5.03577e-06 0)
(6.36753e-06 5.20414e-06 0)
(6.51509e-06 5.37622e-06 2.80375e-21)
(3.08611e-06 2.1154e-06 0)
(3.29306e-06 2.29633e-06 0)
(3.49433e-06 2.4724e-06 0)
(3.68953e-06 2.6447e-06 0)
(3.87923e-06 2.81369e-06 0)
(4.0637e-06 2.98005e-06 0)
(4.2434e-06 3.14438e-06 0)
(4.41871e-06 3.30725e-06 0)
(4.59007e-06 3.46915e-06 0)
(4.75787e-06 3.63055e-06 0)
(4.92252e-06 3.79183e-06 0)
(5.08441e-06 3.95334e-06 0)
(5.24391e-06 4.11541e-06 0)
(5.40138e-06 4.27831e-06 0)
(5.55716e-06 4.44234e-06 0)
(5.71159e-06 4.60781e-06 0)
(5.86502e-06 4.77508e-06 0)
(6.0178e-06 4.94459e-06 0)
(6.17038e-06 5.11681e-06 0)
(6.32278e-06 5.29262e-06 3.01153e-21)
(2.59622e-06 1.77044e-06 0)
(2.84539e-06 1.97373e-06 0)
(3.05635e-06 2.15885e-06 0)
(3.26157e-06 2.33893e-06 0)
(3.46097e-06 2.51556e-06 0)
(3.65491e-06 2.68903e-06 0)
(3.84359e-06 2.85994e-06 0)
(4.02739e-06 3.02877e-06 0)
(4.20664e-06 3.19601e-06 0)
(4.38172e-06 3.36212e-06 0)
(4.55301e-06 3.5275e-06 0)
(4.72089e-06 3.6925e-06 0)
(4.88575e-06 3.85746e-06 0)
(5.04795e-06 4.02265e-06 0)
(5.20787e-06 4.18836e-06 0)
(5.36587e-06 4.35485e-06 0)
(5.5223e-06 4.52239e-06 0)
(5.67759e-06 4.69129e-06 0)
(5.8321e-06 4.86194e-06 0)
(5.98638e-06 5.03472e-06 0)
(6.14083e-06 5.21048e-06 3.13935e-21)
(2.41984e-06 1.66676e-06 0)
(2.6608e-06 1.86744e-06 0)
(2.87029e-06 2.05292e-06 0)
(3.07478e-06 2.23431e-06 0)
(3.27401e-06 2.4128e-06 0)
(3.46821e-06 2.58855e-06 0)
(3.65748e-06 2.76198e-06 0)
(3.84209e-06 2.93345e-06 0)
(4.02227e-06 3.10335e-06 0)
(4.19836e-06 3.27206e-06 0)
(4.37066e-06 3.43988e-06 0)
(4.53952e-06 3.60715e-06 0)
(4.7053e-06 3.77411e-06 0)
(4.86833e-06 3.94104e-06 0)
(5.02898e-06 4.10815e-06 0)
(5.18762e-06 4.27567e-06 0)
(5.3446e-06 4.44383e-06 0)
(5.50036e-06 4.61287e-06 0)
(5.65529e-06 4.78307e-06 0)
(5.81e-06 4.95472e-06 0)
(5.9649e-06 5.1284e-06 3.20758e-21)
(2.26328e-06 1.56691e-06 0)
(2.49533e-06 1.76486e-06 0)
(2.70115e-06 1.9499e-06 0)
(2.90303e-06 2.13186e-06 0)
(3.10038e-06 2.31162e-06 0)
(3.29332e-06 2.48914e-06 0)
(3.48179e-06 2.66468e-06 0)
(3.66597e-06 2.83847e-06 0)
(3.846e-06 3.01078e-06 0)
(4.02212e-06 3.18189e-06 0)
(4.1946e-06 3.35203e-06 0)
(4.36373e-06 3.52145e-06 0)
(4.52981e-06 3.69037e-06 0)
(4.69317e-06 3.85899e-06 0)
(4.85413e-06 4.02748e-06 0)
(5.01306e-06 4.19601e-06 0)
(5.17032e-06 4.36475e-06 0)
(5.32633e-06 4.53387e-06 0)
(5.4815e-06 4.70354e-06 0)
(5.63648e-06 4.87392e-06 0)
(5.79167e-06 5.04531e-06 3.2504e-21)
(2.12367e-06 1.47169e-06 0)
(2.34625e-06 1.66625e-06 0)
(2.54711e-06 1.85016e-06 0)
(2.74503e-06 2.03209e-06 0)
(2.93917e-06 2.21259e-06 0)
(3.12961e-06 2.39143e-06 0)
(3.31612e-06 2.56869e-06 0)
(3.49881e-06 2.74447e-06 0)
(3.67771e-06 2.91892e-06 0)
(3.85302e-06 3.0922e-06 0)
(4.02491e-06 3.26448e-06 0)
(4.19364e-06 3.43593e-06 0)
(4.35946e-06 3.60669e-06 0)
(4.52265e-06 3.7769e-06 0)
(4.68353e-06 3.9467e-06 0)
(4.84242e-06 4.11619e-06 0)
(4.99968e-06 4.28546e-06 0)
(5.1557e-06 4.4546e-06 0)
(5.31094e-06 4.62367e-06 0)
(5.46607e-06 4.79269e-06 0)
(5.62139e-06 4.96171e-06 3.26597e-21)
(1.99858e-06 1.38141e-06 0)
(2.2115e-06 1.57223e-06 0)
(2.40643e-06 1.75446e-06 0)
(2.59935e-06 1.9358e-06 0)
(2.78927e-06 2.11651e-06 0)
(2.97619e-06 2.29618e-06 0)
(3.15979e-06 2.47473e-06 0)
(3.34007e-06 2.65213e-06 0)
(3.51703e-06 2.82839e-06 0)
(3.69076e-06 3.00358e-06 0)
(3.8614e-06 3.17777e-06 0)
(4.02913e-06 3.35105e-06 0)
(4.19416e-06 3.52349e-06 0)
(4.35676e-06 3.69518e-06 0)
(4.51717e-06 3.86619e-06 0)
(4.67572e-06 4.03655e-06 0)
(4.83273e-06 4.20628e-06 0)
(4.98857e-06 4.3754e-06 0)
(5.14368e-06 4.5438e-06 0)
(5.29871e-06 4.71145e-06 0)
(5.45394e-06 4.87816e-06 3.2529e-21)
(1.88553e-06 1.29606e-06 0)
(2.08884e-06 1.48287e-06 0)
(2.27726e-06 1.66298e-06 0)
(2.46446e-06 1.84329e-06 0)
(2.64939e-06 2.02376e-06 0)
(2.83201e-06 2.20383e-06 0)
(3.01192e-06 2.38329e-06 0)
(3.18908e-06 2.56194e-06 0)
(3.36339e-06 2.73969e-06 0)
(3.53491e-06 2.91649e-06 0)
(3.7037e-06 3.09233e-06 0)
(3.8699e-06 3.26722e-06 0)
(4.0337e-06 3.44116e-06 0)