/*--------------------------------*- C++ -*----------------------------------*\
  =========                 |
  \\      /  F ield         | OpenFOAM: The Open Source CFD Toolbox
   \\    /   O peration     | Website:  https://openfoam.org
    \\  /    A nd           | Version:  9
     \\/     M anipulation  |
\*---------------------------------------------------------------------------*/
FoamFile
{
    format      ascii;
    class       volSymmTensorField;
    location    "5";
    object      sigma;
}
// * * * * * * * * * * * * * * * * * * * * * * * * * * * * * * * * * * * * * //

dimensions      [1 -1 -2 0 0 0 0];

internalField   nonuniform List<symmTensor> 
1000
(
(614914 -420827 -2.26583e-10 357209 -3.0767e-10 86022)
(721370 -324556 -1.84339e-10 195083 -2.39833e-10 84553.6)
(774876 -248598 -1.44817e-10 118695 -1.87262e-10 84399.5)
(797523 -191308 -1.12629e-10 58675.6 -1.44612e-10 80756.2)
(805806 -145231 -8.38998e-11 23597.3 -1.09414e-10 77249.7)
(802438 -109211 -6.28113e-11 -2576.31 -8.28762e-11 74179.2)
(794340 -79941.8 -4.63033e-11 -19427.8 -6.22745e-11 71991.5)
(781847 -56671.9 -3.4007e-11 -31614.1 -4.65473e-11 70107.4)
(768971 -37330.8 -2.40768e-11 -39623 -3.39308e-11 68692.9)
(751926 -21241.1 -1.67522e-11 -47303.4 -2.38527e-11 67067.2)
(779726 -467894 -2.48671e-10 360387 -3.39161e-10 101712)
(849976 -334991 -1.8366e-10 205659 -2.46845e-10 97599.8)
(878671 -239045 -1.28302e-10 136105 -1.78241e-10 94223.1)
(881399 -170098 -8.68336e-11 79176.5 -1.25878e-10 87914.9)
(874316 -117531 -5.61849e-11 46813.9 -8.80053e-11 84085.5)
(858353 -78215.9 -3.48139e-11 21730.7 -6.04798e-11 80574)
(839982 -47520.1 -1.8864e-11 5640.33 -3.98918e-11 77992.2)
(818995 -24188.7 -7.75852e-12 -7073.94 -2.47806e-11 75615.8)
(798203 -5280.6 7.80098e-13 -14803.9 -1.31513e-11 73836.1)
(775242 9850.26 6.57616e-12 -25280.2 -3.88397e-12 71537.2)
(957242 -497626 -2.61577e-10 347090 -3.58671e-10 117486)
(980977 -334566 -1.70706e-10 211462 -2.41415e-10 107806)
(979260 -222491 -1.03059e-10 155100 -1.60998e-10 101955)
(958646 -144409 -5.90388e-11 105018 -1.05363e-10 95501)
(934167 -87253.4 -2.78712e-11 77620.4 -6.6502e-11 91513.3)
(904394 -46069.9 -7.23605e-12 54972.7 -3.91899e-11 87655.3)
(875183 -15135.2 7.36407e-12 40515.8 -1.95488e-11 84747.9)
(845305 7456.41 1.67437e-11 27935.1 -5.69299e-12 81934.2)
(817285 25016.7 2.34215e-11 20525.4 4.39766e-12 79816.1)
(788127 39289.3 2.77483e-11 8375.75 1.27678e-11 76977.7)
(1.14172e+06 -505791 -2.50776e-10 319932 -3.53498e-10 127556)
(1.11144e+06 -321960 -1.44183e-10 213139 -2.22255e-10 114720)
(1.07511e+06 -199195 -7.42629e-11 175460 -1.39859e-10 109723)
(1.02837e+06 -115494 -3.01727e-11 135467 -8.38844e-11 103356)
(984822 -56256.9 -2.2621e-13 114833 -4.60403e-11 99326)
(940396 -14960.9 1.84886e-11 95523.4 -2.02781e-11 95172.1)
(899952 14897.1 3.0873e-11 82940.9 -2.51395e-12 91932.5)
(861380 35916.7 3.8042e-11 70643.6 9.53571e-12 88699.2)
(826389 51414.8 4.24377e-11 63034.2 1.76979e-11 86177.8)
(792114 64032.2 4.49766e-11 49982.6 2.46462e-11 82942.9)
(1.32487e+06 -488569 -2.15075e-10 282218 -3.22285e-10 132038)
(1.23754e+06 -295442 -1.09742e-10 211545 -1.93895e-10 121186)
(1.16399e+06 -168802 -4.20117e-11 197110 -1.14767e-10 117411)
(1.0893e+06 -83977.8 -8.20131e-13 169927 -6.18925e-11 111331)
(1.02566e+06 -25917.9 2.57781e-11 157545 -2.74781e-11 107355)
(966224 13191.9 4.11138e-11 142250 -4.89253e-12 102943)
(914693 40308.4 5.0273e-11 131666 9.89263e-12 99371.4)
(867829 58616.2 5.49357e-11 119604 1.97236e-11 95550.1)
(826589 71220.9 5.98879e-11 111296 2.82927e-11 91058)
(787849 81494.9 6.26414e-11 97350.5 3.53952e-11 86359.4)
(1.50259e+06 -445013 -1.63932e-10 239869 -2.73596e-10 136015)
(1.3575e+06 -253897 -6.68526e-11 209597 -1.56083e-10 127510)
(1.24535e+06 -130876 -6.06244e-12 221805 -8.56867e-11 125225)
(1.14134e+06 -50463.9 2.86417e-11 208902 -3.98541e-11 119478)
(1.057e+06 2445.13 4.93534e-11 205291 -1.16059e-11 115537)
(982644 36629.4 5.96163e-11 193861 6.01799e-12 110814)
(920506 59186.1 6.72214e-11 184791 1.90438e-11 105562)
(866084 73618.1 7.21649e-11 172537 2.88919e-11 99520.2)
(819419 82659.8 7.44112e-11 162895 3.50769e-11 94381.7)
(777024 90042.5 7.50145e-11 147942 4.02447e-11 89235.8)
(1.66375e+06 -372339 -9.70624e-11 197545 -2.0707e-10 139577)
(1.46563e+06 -194226 -1.43028e-11 210495 -1.07623e-10 133868)
(1.314e+06 -84295.6 3.36148e-11 251857 -5.25808e-11 133223)
(1.18064e+06 -15317.2 5.74596e-11 253151 -1.84235e-11 127698)
(1.07649e+06 27513.2 6.93179e-11 257238 6.02667e-13 123628)
(988648 53563.7 7.60219e-11 248355 1.42468e-11 116887)
(917474 69664.3 8.1779e-11 239526 2.51325e-11 109514)
(856948 79162.6 8.31479e-11 226164 3.16686e-11 102768)
(806161 84224.2 8.23656e-11 214399 3.52044e-11 97045.2)
(761073 88435.1 8.0639e-11 198144 3.82552e-11 91519.8)
(1.81915e+06 -270310 -1.23805e-11 168062 -1.23118e-10 144937)
(1.56306e+06 -113370 5.0331e-11 225944 -4.77513e-11 141885)
(1.36991e+06 -28361.3 7.77289e-11 296322 -1.60358e-11 142594)
(1.20811e+06 19465.8 8.46691e-11 307298 6.24873e-13 136611)
(1.08598e+06 46598.7 8.56609e-11 314534 8.54563e-12 131198)
(987095 61521 8.92663e-11 304620 1.86136e-11 121080)
(909056 69938.4 8.94695e-11 293348 2.43578e-11 112808)
(844299 74176.2 8.69029e-11 277263 2.73933e-11 105413)
(790866 75550.4 8.31985e-11 262378 2.84971e-11 99172.5)
(744162 76882.6 7.93235e-11 244460 2.96363e-11 93345.3)
(1.94872e+06 -126237 9.56184e-11 167223 -1.688e-11 153326)
(1.6291e+06 -11090.8 1.24874e-10 276466 1.95711e-11 153201)
(1.39277e+06 29380.3 1.19017e-10 365774 1.60239e-11 153592)
(1.20899e+06 44517.3 1.02412e-10 373723 9.57721e-12 145657)
(1.07729e+06 52086.8 9.74668e-11 373879 1.11844e-11 134923)
(973947 54662.4 9.19736e-11 356850 1.3057e-11 123749)
(893884 55926.8 8.66463e-11 339518 1.40883e-11 114772)
(828097 55906.5 8.06769e-11 319017 1.43326e-11 106911)
(774105 54923.4 7.49006e-11 300407 1.39138e-11 100317)
(727018 54423.8 6.95922e-11 280775 1.38491e-11 94309.6)
(2.118e+06 113616 2.72676e-10 291817 1.41508e-10 181381)
(1.6589e+06 126914 2.19746e-10 434039 9.50693e-11 177150)
(1.39015e+06 83825.1 1.56016e-10 480548 3.85154e-11 169172)
(1.20078e+06 54375.8 1.16833e-10 458243 1.14351e-11 153189)
(1.0686e+06 42889 9.97393e-11 431932 3.95738e-12 138447)
(965806 36474.1 8.63636e-11 399986 3.9498e-14 126125)
(886299 34171.9 7.72786e-11 372339 -1.14857e-12 116390)
(820854 32825.5 6.9684e-11 346405 -1.70128e-12 108139)
(766940 31768 6.3339e-11 324211 -2.10703e-12 101279)
(719673 31047.9 5.77293e-11 303538 -2.302e-12 95173.7)
(-2825.43 991.42 -3.8542e-11 -1596.29 -1.83019e-11 2541.3)
(2228.26 -3517.65 -4.09052e-11 304.919 -2.13636e-11 3137.99)
(22595.5 -11070.8 -4.5009e-11 -1137.02 -2.63924e-11 4924.89)
(55205.2 -17117 -4.7568e-11 -2327.66 -3.03919e-11 7913.85)
(93104 -20847.1 -4.8332e-11 -2946.9 -3.28333e-11 11469.3)
(132883 -22970.7 -4.79437e-11 -3248.75 -3.41962e-11 15240.3)
(171856 -23804 -4.67338e-11 -3300.14 -3.46957e-11 18962.4)
(209100 -23870.4 -4.50855e-11 -3162.68 -3.46846e-11 22538.8)
(243246 -23238.3 -4.31425e-11 -3094.19 -3.42073e-11 25818.1)
(275081 -22749.7 -4.13267e-11 -2564.52 -3.38379e-11 28910.4)
(3708.11 -3781.18 -4.1088e-11 -247.795 -2.15292e-11 3235.75)
(29994.5 -20488.3 -4.86485e-11 12638.3 -3.29641e-11 6615.51)
(68165.2 -38947.7 -5.8599e-11 13194.7 -4.53437e-11 10181.9)
(108675 -53058.7 -6.63441e-11 9210.72 -5.47119e-11 13657.4)
(149405 -61741.3 -7.06032e-11 5381.7 -6.04275e-11 17204.4)
(188119 -66611.2 -7.24745e-11 1914.16 -6.35855e-11 20612.9)
(224022 -68371.3 -7.23751e-11 -750.015 -6.46678e-11 23835.5)
(257249 -68258.9 -7.10934e-11 -2656.8 -6.45071e-11 26872.8)
(286546 -66377.2 -6.8822e-11 -4294.28 -6.31655e-11 29566.8)
(314339 -64876.8 -6.66436e-11 -4446.72 -6.21093e-11 32227.3)
(11486.7 -18625.5 -4.82926e-11 12639.5 -3.17384e-11 4856.56)
(57511 -51177.6 -6.47985e-11 27230.8 -5.38416e-11 10143.7)
(110237 -74047.2 -7.72747e-11 25251.8 -6.91237e-11 14879.5)
(158676 -89373.2 -8.62857e-11 15480.9 -7.91961e-11 18665.1)
(203251 -97822.8 -9.09903e-11 6429.9 -8.46569e-11 22184.3)
(242511 -101802 -9.29167e-11 -1450.01 -8.71365e-11 25315.3)
(276983 -102293 -9.25615e-11 -7432.48 -8.73088e-11 28157.3)
(307704 -100668 -9.07825e-11 -11750 -8.60906e-11 30781.8)
(333389 -97112.9 -8.7847e-11 -15007.8 -8.35997e-11 33018.4)
(358256 -94122.8 -8.49684e-11 -15953.4 -8.15311e-11 35348.8)
(27569.5 -41895.3 -5.80325e-11 42255.8 -4.79023e-11 8486.65)
(94732.9 -87967.7 -8.37661e-11 46116.7 -7.88875e-11 14885)
(159478 -112017 -9.73078e-11 38310.3 -9.48428e-11 20319.5)
(214769 -125505 -1.05739e-10 22434.4 -1.0356e-10 24309.4)
(262586 -131097 -1.09199e-10 8472.76 -1.07005e-10 27785.4)
(302397 -132143 -1.09854e-10 -3628.58 -1.07435e-10 30668.6)
(335639 -129901 -1.08302e-10 -12931.3 -1.0571e-10 33159.2)
(364149 -125740 -1.05386e-10 -19813.3 -1.02743e-10 35394.7)
(386457 -119952 -1.01466e-10 -25014.4 -9.87198e-11 37175.9)
(408683 -115057 -9.76609e-11 -27098.2 -9.53526e-11 39180.2)
(55017.1 -74767.2 -7.13563e-11 85612.1 -7.07553e-11 14183.1)
(144680 -128024 -1.03963e-10 66893.7 -1.06146e-10 20965.5)
(219446 -149641 -1.17064e-10 48485.4 -1.20262e-10 26569.7)
(279466 -158633 -1.23563e-10 24826.5 -1.25807e-10 30451.6)
(328630 -159234 -1.24542e-10 5726.02 -1.258e-10 33700.5)
(367641 -155724 -1.2291e-10 -10298.6 -1.23094e-10 36240.8)
(398750 -149577 -1.19384e-10 -22441.2 -1.18693e-10 38338.7)
(424439 -142043 -1.14753e-10 -31399.7 -1.13423e-10 40169.9)
(443075 -133577 -1.09512e-10 -38082.7 -1.07576e-10 41505.5)
(462427 -126375 -1.04484e-10 -40954.4 -1.02646e-10 43191.1)
(97450.4 -117966 -8.90554e-11 139352 -1.00721e-10 22031.9)
(208997 -168638 -1.2351e-10 90136.5 -1.33802e-10 28605.9)
(291723 -183487 -1.33936e-10 58167 -1.43109e-10 33987.7)
(354109 -185681 -1.37262e-10 25927.5 -1.43923e-10 37490.9)
(402510 -179951 -1.34964e-10 1941.13 -1.39567e-10 40339.8)
(439013 -171074 -1.30526e-10 -17464.8 -1.33193e-10 42420.5)
(466706 -160530 -1.2469e-10 -31879.1 -1.25796e-10 44049.5)
(488564 -149330 -1.1813e-10 -42411.1 -1.18036e-10 45420)
(502892 -138110 -1.11498e-10 -50250.7 -1.10321e-10 46274.7)
(518749 -128487 -1.05162e-10 -53638.8 -1.03757e-10 47603.5)
(157840 -171020 -1.11618e-10 197192 -1.37366e-10 31842.5)
(287457 -208195 -1.41626e-10 114221 -1.60737e-10 37672.1)
(375078 -211543 -1.46695e-10 67389.7 -1.62032e-10 42472.6)
(436962 -204640 -1.45567e-10 26214.2 -1.56565e-10 45311.9)
(482274 -191519 -1.39373e-10 -2322.51 -1.47158e-10 47571)
(514354 -176843 -1.31864e-10 -24595.3 -1.36835e-10 49050.9)
(537219 -161783 -1.23616e-10 -40676.2 -1.26376e-10 50122.8)
(554066 -146980 -1.15146e-10 -52289.7 -1.16178e-10 50956.7)
(563437 -133194 -1.07209e-10 -60841.9 -1.06731e-10 51300.6)
(574959 -121230 -9.96224e-11 -64532.9 -9.85924e-11 52207.8)
(238891 -231959 -1.38539e-10 253199 -1.79257e-10 43435.8)
(379439 -245143 -1.57486e-10 138231 -1.85894e-10 48046.1)
(467633 -232469 -1.54355e-10 77638.2 -1.76159e-10 51967.2)
(525673 -214429 -1.47516e-10 28271.8 -1.63054e-10 53893.7)
(565479 -193200 -1.36967e-10 -4067.62 -1.48129e-10 55393.6)
(591266 -172653 -1.26332e-10 -28570.6 -1.33823e-10 56142.8)
(607965 -153310 -1.15808e-10 -45822.2 -1.2047e-10 56565.4)
(618727 -135309 -1.05667e-10 -58058.1 -1.08118e-10 56792)
(622590 -119406 -9.67212e-11 -67230.3 -9.72422e-11 56576.4)
(628939 -105416 -8.73532e-11 -70967.4 -8.71281e-11 56657.4)
(342192 -297212 -1.68355e-10 301386 -2.2388e-10 56533.7)
(483656 -277953 -1.70419e-10 160515 -2.08217e-10 59489.5)
(566868 -245653 -1.56576e-10 89348.6 -1.85087e-10 62267.7)
(617250 -214944 -1.42964e-10 33534.5 -1.6335e-10 63059.9)
(649056 -185222 -1.27755e-10 -1410.19 -1.42674e-10 63655.5)
(666713 -159021 -1.13917e-10 -27428.5 -1.24385e-10 63461.2)
(676057 -135833 -9.87234e-11 -45190.5 -1.06222e-10 61940.9)
(679637 -115309 -8.58529e-11 -57900.6 -9.08903e-11 60753.1)
(677755 -97832.2 -7.55519e-11 -67254.2 -7.84212e-11 59686.6)
(677881 -82204.8 -6.59737e-11 -72070.4 -6.75289e-11 59285.4)
(468026 -362043 -1.98715e-10 337139 -2.67965e-10 70845.5)
(598362 -305012 -1.79655e-10 179849 -2.26598e-10 71753.6)
(670095 -250987 -1.53332e-10 103042 -1.88759e-10 73157.2)
(708650 -206858 -1.32265e-10 43466.9 -1.57938e-10 72625.7)
(729830 -168696 -1.09832e-10 7490.35 -1.29478e-10 71026.1)
(737618 -137253 -9.00038e-11 -19064.8 -1.04977e-10 68399.1)
(738434 -110813 -7.40086e-11 -36851.2 -8.53827e-11 66495.3)
(734140 -88509.6 -6.11493e-11 -49289 -6.95726e-11 64974.5)
(726509 -70427.6 -5.13173e-11 -59415.4 -5.71002e-11 63528.6)
(719523 -54746.6 -4.26841e-11 -63000.6 -4.69155e-11 62933.1)
(303541 -21106.1 -3.90047e-11 -2564.04 -3.2687e-11 31647.3)
(328588 -18832.5 -3.63514e-11 -1993.65 -3.11272e-11 34105.3)
(351546 -16856.3 -3.40049e-11 -1586.89 -2.9768e-11 36348.6)
(372163 -15062.7 -3.18949e-11 -1286.11 -2.85335e-11 38358.4)
(390773 -13399.6 -2.99593e-11 -988.675 -2.739e-11 40174.9)
(407429 -11911 -2.82325e-11 -771.094 -2.63654e-11 41797)
(422367 -10545.8 -2.66646e-11 -563.441 -2.54267e-11 43253)
(435672 -9314.85 -2.52609e-11 -403.255 -2.45798e-11 44547.9)
(447513 -8186.41 -2.39914e-11 -261.812 -2.38042e-11 45700.5)
(457973 -7152.19 -2.28486e-11 -151.216 -2.30936e-11 46717.9)
(467161 -6190.67 -2.18107e-11 -61.0084 -2.24333e-11 47611.4)
(475139 -5287.14 -2.08693e-11 4.5102 -2.18138e-11 48386.8)
(481965 -4424.25 -2.00074e-11 49.2157 -2.12229e-11 49050)
(487674 -3589.14 -1.92169e-11 72.0994 -2.06521e-11 49604.2)
(492280 -2770.88 -1.84895e-11 72.4711 -2.00939e-11 50051.1)
(495810 -1968.65 -1.78231e-11 53.6226 -1.95478e-11 50393.4)
(498251 -1193.69 -1.72269e-11 15.2353 -1.90216e-11 50629.7)
(499709 -490.354 -1.67182e-11 -14.1259 -1.85453e-11 50772.1)
(500183 49.2745 -1.63531e-11 -11.0465 -1.81813e-11 50821.5)
(500138 177.032 -1.62346e-11 259.364 -1.81003e-11 50838.7)
(336706 -60412.5 -6.29898e-11 -5737.66 -5.90459e-11 34302.4)
(355156 -54377.3 -5.83018e-11 -5594.62 -5.49561e-11 36122.9)
(372947 -49061.5 -5.40525e-11 -5120.11 -5.13573e-11 37900.3)
(388824 -44102.6 -5.01506e-11 -4878.96 -4.79979e-11 39474.2)
(403546 -39455.6 -4.64673e-11 -4425.8 -4.4854e-11 40951.3)
(416787 -35257.4 -4.31591e-11 -4128.04 -4.20118e-11 42271.8)
(428885 -31371.2 -4.00913e-11 -3768.81 -3.93826e-11 43485.2)
(439755 -27842.2 -3.7319e-11 -3496.96 -3.69942e-11 44571.8)
(449573 -24586.4 -3.47689e-11 -3234.78 -3.47914e-11 45555)
(458346 -21590.8 -3.244e-11 -3032.6 -3.27643e-11 46431.7)
(466169 -18798 -3.02883e-11 -2863.65 -3.08747e-11 47213.5)
(473075 -16175.9 -2.82923e-11 -2741.16 -2.91005e-11 47902.7)
(479121 -13681.1 -2.64202e-11 -2652.02 -2.74127e-11 48506.1)
(484340 -11283.2 -2.46514e-11 -2589.26 -2.57911e-11 49027.7)
(488761 -8958.71 -2.29665e-11 -2535.05 -2.42201e-11 49471.6)
(492427 -6706.91 -2.13574e-11 -2451.85 -2.26996e-11 49845)
(495336 -4554.28 -1.98335e-11 -2289.97 -2.12485e-11 50151.2)
(497574 -2594.75 -1.84326e-11 -1923.35 -1.99321e-11 50407.3)
(499050 -969.98 -1.72249e-11 -1186.13 -1.88488e-11 50616.3)
(499998 -105.478 -1.64065e-11 353.181 -1.82922e-11 50830.5)
(375178 -87431.8 -8.02033e-11 -17660.9 -7.69696e-11 36886.7)
(386934 -79207.5 -7.43818e-11 -17238 -7.14209e-11 38102.9)
(399592 -71829.5 -6.88919e-11 -15683.7 -6.64606e-11 39485.7)
(410534 -64980.5 -6.38962e-11 -14669.8 -6.185e-11 40659.3)
(421229 -58456.1 -5.90528e-11 -13220.5 -5.74656e-11 41840.1)
(430835 -52534.3 -5.46907e-11 -12105.9 -5.34828e-11 42886.8)
(439896 -46994 -5.05864e-11 -10927.1 -4.9759e-11 43883.5)
(448114 -41932.6 -4.68561e-11 -9957.97 -4.63553e-11 44780.2)
(455708 -37233.9 -4.3396e-11 -9068.64 -4.31952e-11 45608.4)
(462590 -32896 -4.0221e-11 -8342.2 -4.02765e-11 46353.5)
(468855 -28847.7 -3.72756e-11 -7736.08 -3.75516e-11 47028.4)
(474495 -25053.4 -3.45399e-11 -7266.51 -3.49963e-11 47631.1)
(479558 -21461.3 -3.19748e-11 -6909.87 -3.25758e-11 48168.6)
(484063 -18034.8 -2.95548e-11 -6647.06 -3.02663e-11 48644.3)
(488034 -14742.1 -2.72514e-11 -6436.22 -2.80469e-11 49064)
(491506 -11570.7 -2.50427e-11 -6201.28 -2.591e-11 49436.8)
(494454 -8528.26 -2.29208e-11 -5833.17 -2.38633e-11 49768.8)
(496939 -5662.27 -2.08807e-11 -5110.19 -2.19426e-11 50082.1)
(498742 -3061.68 -1.89408e-11 -3717.2 -2.02131e-11 50379.3)
(500068 -842.757 -1.70863e-11 -1108.56 -1.87627e-11 50720.6)
(420171 -106490 -9.20319e-11 -29394.3 -8.95259e-11 40166.3)
(424790 -97069.5 -8.57927e-11 -29134.4 -8.31799e-11 40695.3)
(432129 -88380.6 -7.9587e-11 -26753.6 -7.73601e-11 41640.9)
(437748 -80457.1 -7.40834e-11 -25317.3 -7.20414e-11 42344.6)
(444102 -72744.8 -6.85609e-11 -23062.9 -6.68779e-11 43179.5)
(449690 -65744.8 -6.35992e-11 -21303.2 -6.21871e-11 43898.2)
(455370 -59114.4 -5.88479e-11 -19405.1 -5.77471e-11 44633.6)
(460584 -53028.3 -5.45074e-11 -17805.5 -5.36691e-11 45298)
(465629 -47339.7 -5.04432e-11 -16317.9 -4.9857e-11 45934.7)
(470310 -42068.4 -4.66969e-11 -15069 -4.63222e-11 46515.4)
(474724 -37136.1 -4.32051e-11 -14003.8 -4.30132e-11 47054.2)
(478815 -32511.5 -3.99535e-11 -13146.7 -3.99079e-11 47544.1)
(482615 -28139.3 -3.69016e-11 -12466.2 -3.69701e-11 47990.8)
(486117 -23979.2 -3.40199e-11 -11936.4 -3.41727e-11 48396)
(489324 -19989.8 -3.12743e-11 -11501.8 -3.14892e-11 48764.5)
(492249 -16141.1 -2.86312e-11 -11067.1 -2.89008e-11 49105)
(494831 -12412.7 -2.606e-11 -10498.7 -2.63963e-11 49421.9)
(497110 -8780.17 -2.35071e-11 -9546.49 -2.39637e-11 49738.5)
(498778 -5274.85 -2.09585e-11 -7885.91 -2.163e-11 50049.6)
(500099 -1642.44 -1.81557e-11 -4935.82 -1.92339e-11 50426.4)
(468464 -116348 -9.81867e-11 -43362.2 -9.58427e-11 43657)
(465658 -106889 -9.22884e-11 -43319.2 -8.9479e-11 43458.6)
(467773 -97663.2 -8.58087e-11 -39808.7 -8.33251e-11 43994.1)
(467948 -89541.4 -8.03523e-11 -37888 -7.78901e-11 44214.7)
(469950 -81381.6 -7.45987e-11 -34668.4 -7.24493e-11 44709.5)
(471413 -74007.9 -6.94693e-11 -32125.2 -6.75268e-11 45095.6)
(473615 -66916.3 -6.44527e-11 -29356.2 -6.27972e-11 45567.6)
(475695 -60372.1 -5.98458e-11 -26967.8 -5.84293e-11 45995.2)
(478046 -54204.4 -5.54883e-11 -24731.7 -5.4312e-11 46434.3)
(480366 -48457.9 -5.14473e-11 -22815.3 -5.04727e-11 46843.1)
(482751 -43059.3 -4.76631e-11 -21161.6 -4.68633e-11 47235.8)
(485101 -37984.5 -4.41298e-11 -19804.1 -4.34662e-11 47600.2)
(487428 -33180.7 -4.08083e-11 -18709.9 -4.02471e-11 47940.5)
(489697 -28603.4 -3.76691e-11 -17851.9 -3.71767e-11 48255.6)
(491889 -24203.7 -3.46718e-11 -17169.6 -3.4223e-11 48548.6)
(493994 -19926.2 -3.1767e-11 -16563.1 -3.13503e-11 48826.7)
(495925 -15722.5 -2.89078e-11 -15896.3 -2.85284e-11 49092.3)
(497707 -11486.7 -2.59908e-11 -14927 -2.56906e-11 49366.7)
(499009 -7215.67 -2.29869e-11 -13366.6 -2.28402e-11 49640.6)
(500107 -2344.84 -1.94427e-11 -10668.1 -1.96063e-11 49985.8)
(519210 -117515 -9.85099e-11 -56016 -9.63274e-11 47544.4)
(508663 -109241 -9.38284e-11 -56767.9 -9.07594e-11 46536)
(505668 -100219 -8.75643e-11 -52276.5 -8.47682e-11 46655.2)
(500290 -92700.7 -8.27087e-11 -50140.1 -7.97518e-11 46356.2)
(497934 -84758.8 -7.71791e-11 -46171.2 -7.44775e-11 46489.2)
(495211 -77610.2 -7.22881e-11 -42997.8 -6.97242e-11 46520.9)
(493860 -70607.5 -6.73817e-11 -39508 -6.50724e-11 46707)
(492720 -64091.5 -6.2835e-11 -36422.4 -6.0741e-11 46879)
(492260 -57893.6 -5.84841e-11 -33506.1 -5.66196e-11 47101.1)
(492094 -52072.9 -5.44136e-11 -30949.7 -5.27456e-11 47321.1)
(492306 -46572.1 -5.05772e-11 -28711.2 -4.9081e-11 47550.9)
(492758 -41373.9 -4.69738e-11 -26835.4 -4.5613e-11 47773.9)
(493440 -36433.1 -4.35753e-11 -25302.2 -4.23121e-11 47991)
(494291 -31704.9 -4.03517e-11 -24093.9 -3.91483e-11 48198.1)
(495272 -27135.2 -3.72633e-11 -23161.8 -3.60861e-11 48395.5)
(496351 -22648 -3.42526e-11 -22422.3 -3.30763e-11 48587)
(497436 -18171.6 -3.12588e-11 -21759.9 -3.0072e-11 48773.1)
(498524 -13532.1 -2.81438e-11 -20978.4 -2.69602e-11 48969.7)
(499336 -8705.86 -2.48714e-11 -19853.2 -2.37289e-11 49167.4)
(500083 -2891.29 -2.08566e-11 -17930.3 -1.98464e-11 49426.6)
(569995 -109991 -9.29983e-11 -66607.8 -9.09956e-11 51654.3)
(551742 -104223 -9.04751e-11 -68837.4 -8.71016e-11 49777.6)
(544007 -96178.7 -8.49577e-11 -63748.9 -8.17865e-11 49481.4)
(533242 -90024.8 -8.12155e-11 -61639.7 -7.76965e-11 48654.9)
(526673 -83012.8 -7.64016e-11 -57226.9 -7.3063e-11 48411.7)
(519909 -76660.9 -7.21198e-11 -53513.9 -6.88619e-11 48091.8)
(515051 -70285.8 -6.76784e-11 -49405.2 -6.46488e-11 47984.8)
(510746 -64239.7 -6.34731e-11 -45644.2 -6.06507e-11 47901.9)
(507473 -58410.5 -5.93874e-11 -42068.7 -5.67937e-11 47902.1)
(504805 -52862.6 -5.55086e-11 -38876.9 -5.31182e-11 47929.1)
(502794 -47574 -5.18215e-11 -36059.8 -4.96102e-11 47988.5)
(501279 -42536.6 -4.83345e-11 -33673 -4.62624e-11 48060.9)
(500222 -37721 -4.50308e-11 -31713.6 -4.30559e-11 48143.1)
(499543 -33084 -4.18858e-11 -30178.1 -3.99618e-11 48228)
(499190 -28571.5 -3.88636e-11 -29037.1 -3.69441e-11 48313)
(499108 -24092.6 -3.59001e-11 -28234.4 -3.39424e-11 48398.2)
(499220 -19560.2 -3.29312e-11 -27688.8 -3.09001e-11 48482.5)
(499486 -14749.9 -2.97976e-11 -27272.2 -2.7668e-11 48573.9)
(499738 -9629.57 -2.64642e-11 -26832.8 -2.42276e-11 48667.8)
(500040 -3241.55 -2.22745e-11 -26067.5 -1.99395e-11 48800.3)
(618764 -94331.4 -8.18132e-11 -73179.4 -8.02604e-11 55934.9)
(593343 -92360 -8.23405e-11 -77558.3 -7.88955e-11 53181.2)
(581319 -86128.8 -7.82159e-11 -72789.3 -7.48024e-11 52437.2)
(565677 -81850.2 -7.59175e-11 -70893.5 -7.19792e-11 51114.1)
(555072 -76401.8 -7.23062e-11 -66662.1 -6.84016e-11 50459.6)
(544600 -71292.7 -6.89567e-11 -62785.1 -6.50458e-11 49788.3)
(536352 -66037.8 -6.53513e-11 -58473.6 -6.15961e-11 49364.1)
(529029 -60891.8 -6.17961e-11 -54324 -5.82154e-11 49015.4)
(522996 -55834.5 -5.82595e-11 -50296.4 -5.48906e-11 48780.2)
(517867 -50916.9 -5.48158e-11 -46586.4 -5.16523e-11 48606.6)
(513636 -46155.5 -5.14864e-11 -43244.1 -4.85117e-11 48489.7)
(510141 -41555.5 -4.82921e-11 -40352.1 -4.54706e-11 48407.9)
(507316 -37107.9 -4.52365e-11 -37945.8 -4.25225e-11 48352.2)
(505065 -32780.4 -4.23068e-11 -36053.8 -3.96457e-11 48311.5)
(503326 -28526.9 -3.94776e-11 -34680.1 -3.68083e-11 48279.7)
(502023 -24253 -3.66898e-11 -33814.4 -3.39477e-11 48251.2)
(501105 -19866.6 -3.38821e-11 -33422 -3.10027e-11 48224.3)
(500491 -15115.9 -3.08934e-11 -33461.1 -2.78041e-11 48196.3)
(500160 -9967.67 -2.76904e-11 -33855.5 -2.43312e-11 48171.1)
(499975 -3386.42 -2.36062e-11 -34496.9 -1.98889e-11 48151.2)
(663858 -72060.9 -6.17478e-11 -74433.2 -6.17384e-11 58419.6)
(632029 -74574.9 -6.80689e-11 -81294 -6.52965e-11 55900.5)
(616043 -71445 -6.82293e-11 -79007 -6.47523e-11 55393)
(596481 -69410.6 -6.76115e-11 -77639.5 -6.34368e-11 53638.5)
(582021 -66179.7 -6.5681e-11 -74072.2 -6.13464e-11 52548.4)
(568357 -62619.3 -6.345e-11 -70126.5 -5.90398e-11 51565.7)
(556982 -58738.9 -6.08414e-11 -65698.8 -5.65224e-11 50841.2)
(546936 -54685.6 -5.80628e-11 -61259.2 -5.3887e-11 50246)
(538351 -50571.9 -5.51926e-11 -56907.1 -5.1207e-11 49784.5)
(530923 -46460.2 -5.2312e-11 -52835.9 -4.85214e-11 49412.5)
(524579 -42403 -4.94723e-11 -49131.4 -4.58646e-11 49115.9)
(519166 -38423.5 -4.67081e-11 -45894.6 -4.32502e-11 48872.3)
(514598 -34528.3 -4.40377e-11 -43186.1 -4.06822e-11 48668.7)
(510772 -30697.4 -4.14607e-11 -41063.1 -3.81461e-11 48491.3)
(507625 -26891.9 -3.89607e-11 -39564 -3.5615e-11 48331.1)
(505067 -23022.7 -3.64909e-11 -38727.5 -3.30284e-11 48177.3)
(503087 -18998.9 -3.39973e-11 -38571.4 -3.03249e-11 48028.1)
(501552 -14563.5 -3.1329e-11 -39150 -2.73306e-11 47868.6)
(500622 -9681.95 -2.84578e-11 -40464.1 -2.40219e-11 47714.1)
(499913 -3314.12 -2.47564e-11 -42633.9 -1.96973e-11 47526.2)
(701353 -43490.5 -3.85567e-11 -71743.6 -4.00036e-11 61044.9)
(669050 -48996.5 -4.67628e-11 -77272.7 -4.57324e-11 58633.5)
(648600 -50292.6 -5.05658e-11 -79741.1 -4.80316e-11 57272)
(626841 -50817.6 -5.40157e-11 -80197.2 -5.01645e-11 56118.1)
(608559 -50568.3 -5.52521e-11 -78797.8 -5.07103e-11 54840.5)
(591888 -49422.2 -5.48676e-11 -76052.4 -5.00129e-11 53461.4)
(577355 -47649.3 -5.38443e-11 -72321.2 -4.89075e-11 52366.4)
(564528 -45354.3 -5.23397e-11 -68095.8 -4.74562e-11 51476.2)
(553366 -42697.3 -5.04974e-11 -63646.1 -4.57629e-11 50765.1)
(543636 -39798.7 -4.84472e-11 -59266.5 -4.39031e-11 50187.4)
(535214 -36754.8 -4.6282e-11 -55137.6 -4.19393e-11 49717)
(527936 -33634.4 -4.40797e-11 -51429.9 -3.99148e-11 49324.6)
(521690 -30479 -4.18881e-11 -48263.2 -3.78554e-11 48990)
(516350 -27298.5 -3.97349e-11 -45747.8 -3.57664e-11 48692.8)
(511846 -24077 -3.76264e-11 -43969.3 -3.36355e-11 48419.7)
(508066 -20746.1 -3.55388e-11 -43027.6 -3.14152e-11 48153.2)
(505039 -17227.8 -3.34324e-11 -42999.9 -2.90516e-11 47890.4)
(502583 -13285.4 -3.11874e-11 -44045.7 -2.63822e-11 47603.6)
(501048 -8887.61 -2.87812e-11 -46249.8 -2.33849e-11 47320)
(499823 -3057.27 -2.56717e-11 -49963.5 -1.93956e-11 46961.3)
(722560 -19958.3 -2.066e-11 -63793.6 -2.35815e-11 63470.5)
(692811 -22900.1 -2.69163e-11 -69550.8 -2.73742e-11 61193)
(669439 -28327.2 -3.38013e-11 -75164.8 -3.22864e-11 59217.9)
(646992 -30900.5 -3.86808e-11 -77593.2 -3.56027e-11 57743.9)
(627135 -32711.6 -4.26452e-11 -77668.6 -3.84685e-11 56716.5)
(608946 -33529.6 -4.40146e-11 -76206.5 -3.92827e-11 55195.8)
(592779 -33561.8 -4.43543e-11 -73442.8 -3.9378e-11 53858)
(578280 -32946.7 -4.40998e-11 -69943.8 -3.9048e-11 52740.3)
(565459 -31807.7 -4.33711e-11 -65996.7 -3.83703e-11 51821.3)
(554112 -30274.8 -4.23101e-11 -61936.9 -3.74273e-11 51054.9)
(544148 -28449.4 -4.10158e-11 -57987.6 -3.6283e-11 50414.4)
(535414 -26415.9 -3.95813e-11 -54359.5 -3.49911e-11 49868.8)
(527812 -24233.1 -3.80729e-11 -51214.2 -3.35886e-11 49395.8)
(521218 -21931.3 -3.65362e-11 -48704.7 -3.20931e-11 48971.9)
(515574 -19515.4 -3.49962e-11 -46962.1 -3.05056e-11 48581.3)
(510761 -16943.2 -3.34557e-11 -46140.6 -2.87958e-11 48201.2)
(506844 -14160.8 -3.18949e-11 -46374.2 -2.69241e-11 47828.1)
(503602 -10983.4 -3.02444e-11 -47911.3 -2.47628e-11 47423.2)
(501526 -7390.2 -2.84913e-11 -50915.7 -2.22938e-11 47021)
(499803 -2550.65 -2.62298e-11 -55954.4 -1.89494e-11 46506.7)
(711566 3135.37 -7.6075e-12 -54913.1 -1.02779e-11 64402.3)
(688215 -244.327 -1.34155e-11 -66938.5 -1.3095e-11 61622)
(666747 -6868.48 -2.0778e-11 -72756.9 -1.86136e-11 59698.6)
(646359 -11213.3 -2.64912e-11 -76041.6 -2.28274e-11 58191.1)
(627978 -14634.7 -3.12123e-11 -76702.6 -2.65219e-11 57114.6)
(610895 -17063.2 -3.33879e-11 -75778.6 -2.81998e-11 55531.9)
(595464 -18633.8 -3.47466e-11 -73509.6 -2.93212e-11 54215.9)
(581388 -19487.5 -3.54712e-11 -70445.2 -2.99717e-11 53095.3)
(568733 -19735.4 -3.56713e-11 -66867.8 -3.02211e-11 52154.3)
(557349 -19500.8 -3.54823e-11 -63113.3 -3.0147e-11 51351.7)
(547194 -18881.3 -3.50006e-11 -59410.9 -2.98107e-11 50665.6)
(538159 -17963.7 -3.43197e-11 -55983.2 -2.92671e-11 50068)
(530180 -16811 -3.35074e-11 -53006.1 -2.85559e-11 49538.8)
(523165 -15465.9 -3.26208e-11 -50653.3 -2.77022e-11 49055.8)
(517083 -13944.1 -3.16943e-11 -49076.9 -2.67149e-11 48604.3)
(511834 -12233.5 -3.07513e-11 -48464.1 -2.5582e-11 48160.4)
(507521 -10295.8 -2.97877e-11 -48981.6 -2.42748e-11 47721.8)
(503920 -8015.76 -2.8784e-11 -50927 -2.27111e-11 47245)
(501625 -5396.19 -2.77492e-11 -54529.5 -2.08876e-11 46769.5)
(499714 -1858.8 -2.64505e-11 -60439.2 -1.84046e-11 46161.6)
(703256 26296.2 5.91944e-12 -44419.7 3.11065e-12 65679.1)
(681754 20980.5 -8.86743e-13 -58385.6 -6.04937e-13 62711.4)
(663580 13171.7 -8.55762e-12 -65597.1 -6.46717e-12 60754.4)
(644804 7398.14 -1.49751e-11 -70385.7 -1.13151e-11 59111.5)
(627899 2617.79 -1.95968e-11 -72319.9 -1.49823e-11 57563.3)
(611716 -1187.81 -2.27769e-11 -72542.3 -1.7566e-11 55969.6)
(596945 -4094.16 -2.50961e-11 -71235.5 -1.95689e-11 54634.1)
(583248 -6253.61 -2.67541e-11 -68981.9 -2.10839e-11 53478.8)
(570794 -7753.43 -2.78384e-11 -66063.1 -2.21643e-11 52497.9)
(559452 -8710.41 -2.84832e-11 -62836.3 -2.28832e-11 51650.7)
(549225 -9213.82 -2.87796e-11 -59548.4 -2.32959e-11 50918.2)
(540031 -9349.6 -2.88229e-11 -56444.8 -2.34559e-11 50273.2)
(531831 -9183.75 -2.86861e-11 -53724.8 -2.34049e-11 49696.4)
(524555 -8768.27 -2.84344e-11 -51586.5 -2.31741e-11 49165.4)
(518189 -8134.03 -2.81145e-11 -50212.1 -2.27809e-11 48665)
(512658 -7294.78 -2.77698e-11 -49811 -2.22316e-11 48171.8)
(508076 -6232.5 -2.74151e-11 -50599.2 -2.15096e-11 47680.6)
(504234 -4918.17 -2.70846e-11 -52871 -2.05907e-11 47149.1)
(501799 -3338.57 -2.6778e-11 -56887.7 -1.94604e-11 46621.3)
(499696 -1152.66 -2.64446e-11 -63455 -1.78765e-11 45935.2)
(688668 44239.8 1.52556e-11 -35616.6 1.27167e-11 66348.9)
(670048 38809.1 8.74133e-12 -51157.4 9.3505e-12 63318.3)
(654946 30639.6 1.36181e-12 -59240.6 3.69789e-12 61347.9)
(638274 24189.6 -4.33738e-12 -65021.2 -5.69362e-13 59265.6)
(623244 18520.9 -9.03027e-12 -67832.9 -4.36029e-12 57572.1)
(608454 13731.5 -1.28925e-11 -68871.2 -7.58991e-12 56042.7)
(594807 9774.89 -1.59376e-11 -68298.6 -1.02852e-11 54751.5)
(581947 6544.87 -1.83352e-11 -66700.4 -1.25085e-11 53618.8)
(570118 3975.95 -2.01561e-11 -64354.2 -1.42977e-11 52646.6)
(559213 1972.59 -2.15184e-11 -61621 -1.57117e-11 51796.2)
(549279 457.404 -2.25071e-11 -58750.7 -1.67978e-11 51052.8)
(540259 -648.047 -2.32111e-11 -55998.5 -1.76044e-11 50390.8)
(532144 -1409.11 -2.37031e-11 -53572.5 -1.81722e-11 49793)
(524885 -1886.2 -2.4056e-11 -51685.6 -1.8538e-11 49238.2)
(518488 -2117.39 -2.43196e-11 -50527.6 -1.87239e-11 48712.2)
(512902 -2156.28 -2.45673e-11 -50336.7 -1.87621e-11 48191.6)
(508240 -1974.4 -2.4804e-11 -51317 -1.86296e-11 47671.9)
(504356 -1677.32 -2.51543e-11 -53806.7 -1.8392e-11 47112.5)
(501878 -1126.74 -2.55566e-11 -58181.4 -1.79481e-11 46546)
(499684 -369.813 -2.61871e-11 -65089 -1.73206e-11 45815.2)
(670318 59142.2 2.49279e-11 -26897.4 2.23451e-11 65485.2)
(654623 53640.5 1.83516e-11 -43075 1.89007e-11 62711.3)
(642582 45523 1.13763e-11 -51737.2 1.35682e-11 60841.1)
(628214 38780 5.46459e-12 -58404.1 9.12286e-12 58909.8)
(615264 32602.6 4.17288e-13 -62061.7 5.00757e-12 57347.3)
(602113 27167.3 -3.90694e-12 -63951.1 1.36057e-12 55905.6)
(589852 22455.4 -7.48546e-12 -64156.8 -1.82777e-12 54682.3)
(578100 18406.7 -1.04581e-11 -63270 -4.5877e-12 53595.8)
(567174 14980.7 -1.28752e-11 -61551 -6.94152e-12 52656.2)
(556986 12107.3 -1.48398e-11 -59364.9 -8.93075e-12 51826.8)
(547620 9724.91 -1.6423e-11 -56962.9 -1.05917e-11 51095.9)
(539042 7766.31 -1.77082e-11 -54606.3 -1.19653e-11 50440.1)