/*--------------------------------*- C++ -*----------------------------------*\
  =========                 |
  \\      /  F ield         | OpenFOAM: The Open Source CFD Toolbox
   \\    /   O peration     | Website:  https://openfoam.org
    \\  /    A nd           | Version:  9
     \\/     M anipulation  |
\*---------------------------------------------------------------------------*/
FoamFile
{
    format      ascii;
    class       volScalarField;
    location    "5";
    object      sigmaEq;
}
// * * * * * * * * * * * * * * * * * * * * * * * * * * * * * * * * * * * * * //

dimensions      [1 -1 -2 0 0 0 0];

internalField   nonuniform List<scalar> 
1000
(
860887
814478
799785
799915
797519
792421
784445
773921
762990
749529
1.00399e+06
912745
869302
850545
834714
820075
804841
789098
772565
756964
1.14367e+06
1.00919e+06
935078
894123
863021
837372
813876
791858
770050
750904
1.27981e+06
1.10273e+06
995923
931123
883237
845445
812963
784336
757304
734632
1.40797e+06
1.18971e+06
1.0506e+06
961100
895391
844623
802706
767284
736035
710227
1.5266e+06
1.26966e+06
1.09873e+06
984106
899956
835826
785082
743800
707953
678560
1.62911e+06
1.33813e+06
1.13558e+06
996509
894846
819298
761063
713969
674301
641672
1.72743e+06
1.39496e+06
1.15917e+06
997745
881303
797543
733161
681919
639774
604800
1.8018e+06
1.41842e+06
1.14902e+06
972693
853292
766782
701290
649236
606843
570961
1.89408e+06
1.38898e+06
1.10844e+06
937977
826952
744378
681700
630991
589435
553338
5163.8
6587.73
28702
60866.1
96709.5
133939
170223
204866
236679
266254
7542.92
41247.5
88018.2
133852
174974
211781
244181
273360
298503
322344
33070.5
97896.4
157036
209814
254154
291195
321603
347383
367760
387356
78267.2
167548
234155
289638
334063
369753
397721
420368
436752
452913
143608
246785
317226
372739
414829
447398
471823
490730
503071
515779
228805
332482
402222
455493
493655
521939
542038
556697
564902
573982
331852
423281
487043
535600
568493
591624
606841
616873
620897
626110
450132
518028
569993
610950
637206
654441
664449
669646
669738
670946
580185
615667
650174
680414
698525
709130
713974
714435
710840
708127
718418
714965
726892
743164
751859
755349
753965
748867
742326
733927
292805
315781
337043
356246
373609
389216
403228
415741
426890
436756
445433
452979
459444
464861
469243
472614
474960
476365
476815
476606
340747
354546
368432
381238
393265
404378
414644
424031
432593
440333
447294
453491
458952
463694
467725
471056
473653
475518
476455
476416
398500
403573
409958
415934
422029
427951
433775
439348
444694
449730
454461
458850
462896
466581
469883
472777
475164
476956
477743
477379
457926
455515
455301
455078
455588
456447
457812
459442
461377
463468
465703
467999
470324
472624
474841
476911
478676
480010
480411
479764
515374
506651
500739
495109
490666
486889
484089
481926
480503
479622
479273
479342
479777
480497
481417
482442
483388
484111
484119
483328
568743
554774
544080
533807
525139
517274
510770
505149
500602
496887
494012
491847
490334
489377
488882
488743
488784
488862
488584
487861
616650
598469
584057
569869
557754
546356
536604
527876
520465
514115
508850
504538
501121
498500
496586
495270
494416
493890
493456
492988
657884
636458
619582
602112
587337
573116
560701
549382
539475
530769
523294
516952
511697
507444
504124
501645
499928
498856
498393
498350
692978
668186
650427
630578
613641
597106
582320
568761
556668
545909
536493
528350
521442
515703
511092
507540
505043
503504
503109
503590
719950
693715
676054
655631
637285
619467
602853
587398
573297
560565
549237
539293
530718
523472
517546
512894
509594
507577
507264
508331
731894
707240
689085
669433
650617
632490
615326
599145
584171
570460
558098
547100
537494
529271
522467
517071
513237
510920
510728
512289
714355
699787
683082
665799
648711
632036
615984
600633
586236
572883
560699
549737
540062
531707
524746
519212
515315
513045
513146
515202
700641
688595
675316
660163
645175
629916
615024
600538
586786
573876
561973
551162
541540
533173
526168
520595
516708
514511
514830
517210
683378
674685
664302
651472
638497
624765
611181
597749
584857
572623
561243
550824
541489
533329
526471
521022
517228
515179
515737
518298
663873
657874
650234
639663
628759
616757
604682
592516
580695
569350
558705
548884
540030
532258
525689
520502
516796
515116
514967
518443
642799
639281
634089
625692
616783
606533
596024
585227
574607
564303
554558
545508
537314
530089
523995
519142
515829
514136
514790
517274
620575
619199
616185
609859
602871
594386
585485
576138
566823
557683
548973
540836
533438
526900
521383
516987
514000
512426
513021
515351
597657
598134
597052
592641
587454
580685
573382
565520
557572
549685
542113
535003
528522
522784
517946
514091
511472
510099
510610
512609
574284
576322
576924
574265
570759
565650
559925
553568
547034
540468
534119
528131
522666
517831
513763
510532
508343
507181
507580
509185
550580
553928
555998
554934
552998
549483
545309
540464
535377
530187
525131
520345
515979
512132
508919
506389
504691
503793
504075
505229
526543
530992
534345
534745
534286
532318
529678
526359
522752
518987
515285
511770
508578
505795
503511
501755
500615
500032
500222
500928
502086
507481
511982
513755
514717
514272
513169
511400
509314
507028
504738
502555
500601
498945
497655
496739
496224
496024
496178
496473
477029
483282
488855
491963
494340
495435
495908
495738
495233
494487
493672
492882
492220
491744
491498
491476
491647
491901
492101
492063
451153
458258
464901
469380
473224
475928
478053
479566
480722
481594
482321
482982
483657
484397
485228
486132
487038
487810
488157
487896
424160
432213
440024
445996
451439
455888
459798
463120
466050
468636
470984
473152
475204
477179
479092
480926
482582
483914
484512
484165
395831
405062
414245
421934
429188
435583
441460
446749
451588
455995
460043
463770
467221
470426
473399
476122
478502
480392
481324
481034
365857
376666
387585
397346
406730
415355
423442
430902
437811
444163
449997
455329
460190
464601
468571
472097
475103
477471
478765
478666
334449
347417
360561
372839
384730
395894
406439
416257
425374
433762
441433
448388
454639
460199
465074
469268
472741
475418
476987
477127
301706
317692
333770
349145
364005
378057
391319
403675
415121
425616
435158
443737
451352
458001
463675
468370
472053
474722
476236
476508
269887
289731
309349
328207
346305
363379
379412
394290
408004
420517
431830
441930
450809
458450
464815
469872
473548
475874
476789
476686
522848
539961
572592
609156
646770
679961
706428
724626
734633
733418
494797
510914
541606
577022
615007
650377
680783
703550
718526
721817
469509
484809
513499
546887
583414
618300
649598
675155
694636
706183
446329
461121
488316
520107
555499
590013
621701
648526
669506
685333
424574
438936
464719
494783
528642
562252
593828
621818
644151
663193
404124
418208
442884
471475
503881
536399
567263
595476
618174
639331
384574
398423
422119
449336
480305
511673
541707
569885
592628
614813
365829
379483
402349
428341
457939
488081
517073
544816
567355
589973
347701
361150
383259
408119
436419
465339
493258
520348
542522
565088
330134
343339
364724
388508
415547
443217
470010
496268
517983
540221
313081
325958
346587
369290
395075
421470
447113
472416
493594
515318
296578
308992
328754
350298
374768
399823
424270
448525
469111
490222
280740
292475
311138
331332
354346
377955
401144
424278
444231
464683
265796
276496
293666
312196
333515
355517
377357
399309
418608
438404
252208
261248
276195
292520
311772
331962
352359
373107
391779
410985
240633
246820
258477
271916
288646
306790
325659
345216
363346
382092
232392
233459
239770
249227
262906
278855
296259
314806
332647
351232
228347
219957
218835
223519
233846
247605
263766
281637
299601
318450
232020
204508
191697
190673
198135
210543
226395
244535
263526
283479
233508
175645
155790
149988
156241
168584
185460
205164
226370
248499
)
;

boundaryField
{
    left
    {
        type            calculated;
        value           nonuniform List<scalar> 
30
(
518334
490386
465184
442044
420346
399965
380523
361936
344032
326772
310127
294152
278984
264880
252337
242223
236238
237302
254197
292715
2.01315e+06
1.35188e+06
1.0719e+06
915430
814183
736283
676091
626369
585253
548984
)
;
    }
    right
    {
        type            calculated;
        value           nonuniform List<scalar> 
30
(
476511
476417
477327
479682
483230
487769
492919
498322
503606
508413
512394
515376
517404
518505
518496
517454
515545
512776
509318
505324
500983
496490
492050
487860
484118
480990
478641
477125
476530
476577
)
;
    }
    down
    {
        type            calculated;
        value           nonuniform List<scalar> 
30
(
4222.76
2761.4
21002.1
52560.2
89010.7
127142
164405
199941
232544
262750
289947
313649
335421
355000
372662
388490
402680
415329
426586
436536
445280
452877
459381
464827
469228
472608
474957
476361
476812
476658
)
;
    }
    up
    {
        type            calculated;
        value           nonuniform List<scalar> 
30
(
226279
173541
155142
149427
155559
167744
184505
204151
225331
247484
268911
288855
308594
327553
345754
362919
379036
393988
407768
420337
431699
441840
450754
458422
464807
469876
473555
475878
476785
476718
)
;
    }
    hole
    {
        type            calculated;
        value           nonuniform List<scalar> 
20
(
855652
1.00301e+06
1.14679e+06
1.28432e+06
1.4163e+06
1.53838e+06
1.64379e+06
1.74517e+06
1.82286e+06
1.91271e+06
3166.57
3166.43
16143.8
56829.9
120444
206275
311407
432799
566586
708925
)
;
    }
    frontAndBack
    {
        type            empty;
    }
}


// ************************************************************************* //
