/*--------------------------------*- C++ -*----------------------------------*\
  =========                 |
  \\      /  F ield         | OpenFOAM: The Open Source CFD Toolbox
   \\    /   O peration     | Website:  https://openfoam.org
    \\  /    A nd           | Version:  9
     \\/     M anipulation  |
\*---------------------------------------------------------------------------*/
FoamFile
{
    format      ascii;
    class       volVectorField;
    location    "5";
    object      D;
}
// * * * * * * * * * * * * * * * * * * * * * * * * * * * * * * * * * * * * * //

dimensions      [0 1 0 0 0 0 0];

internalField   nonuniform List<vector> 
1000
(
(3.37892e-06 1.1328e-06 0)
(3.15289e-06 1.25167e-06 0)
(2.98842e-06 1.35172e-06 0)
(2.86954e-06 1.42995e-06 0)
(2.7847e-06 1.49749e-06 0)
(2.72485e-06 1.55561e-06 0)
(2.68433e-06 1.608e-06 0)
(2.6586e-06 1.65573e-06 0)
(2.64409e-06 1.70026e-06 0)
(2.63898e-06 1.7425e-06 0)
(3.04481e-06 1.02118e-06 0)
(2.81009e-06 1.10758e-06 0)
(2.64043e-06 1.18338e-06 0)
(2.51837e-06 1.24194e-06 0)
(2.4314e-06 1.29339e-06 0)
(2.36982e-06 1.33765e-06 0)
(2.32764e-06 1.37782e-06 0)
(2.30003e-06 1.41456e-06 0)
(2.28334e-06 1.44867e-06 0)
(2.27509e-06 1.48194e-06 0)
(2.70359e-06 9.09355e-07 0)
(2.46671e-06 9.61158e-07 0)
(2.29654e-06 1.0117e-06 0)
(2.17478e-06 1.05034e-06 0)
(2.0883e-06 1.08598e-06 0)
(2.02708e-06 1.11696e-06 0)
(1.98485e-06 1.14569e-06 0)
(1.95673e-06 1.17231e-06 0)
(1.93899e-06 1.19698e-06 0)
(1.92906e-06 1.22171e-06 0)
(2.35696e-06 7.99111e-07 0)
(2.1248e-06 8.15557e-07 0)
(1.95909e-06 8.40744e-07 0)
(1.84135e-06 8.59906e-07 0)
(1.75824e-06 8.80495e-07 0)
(1.69961e-06 8.9914e-07 0)
(1.65915e-06 9.17518e-07 0)
(1.63194e-06 9.35087e-07 0)
(1.61448e-06 9.51504e-07 0)
(1.60393e-06 9.68578e-07 0)
(2.00583e-06 6.92084e-07 0)
(1.78544e-06 6.73856e-07 0)
(1.62939e-06 6.7471e-07 0)
(1.5197e-06 6.75657e-07 0)
(1.44301e-06 6.82663e-07 0)
(1.38931e-06 6.90494e-07 0)
(1.35242e-06 7.00053e-07 0)
(1.32752e-06 7.10017e-07 0)
(1.31143e-06 7.19628e-07 0)
(1.30124e-06 7.30243e-07 0)
(1.65171e-06 5.89057e-07 0)
(1.4496e-06 5.3826e-07 0)
(1.30853e-06 5.17141e-07 0)
(1.21107e-06 5.02181e-07 0)
(1.14395e-06 4.97907e-07 0)
(1.09752e-06 4.97077e-07 0)
(1.06592e-06 4.99825e-07 0)
(1.04462e-06 5.04001e-07 0)
(1.03085e-06 5.08539e-07 0)
(1.02176e-06 5.14219e-07 0)
(1.29327e-06 4.89985e-07 0)
(1.11649e-06 4.10253e-07 0)
(9.96156e-07 3.71204e-07 0)
(9.15388e-07 3.44105e-07 0)
(8.61077e-07 3.3189e-07 0)
(8.24159e-07 3.25261e-07 0)
(7.99384e-07 3.2362e-07 0)
(7.8274e-07 3.2409e-07 0)
(7.7199e-07 3.25432e-07 0)
(7.64591e-07 3.2784e-07 0)
(9.33058e-07 3.92065e-07 0)
(7.87482e-07 2.89376e-07 0)
(6.94052e-07 2.39374e-07 0)
(6.34267e-07 2.0595e-07 0)
(5.95457e-07 1.90392e-07 0)
(5.69626e-07 1.81549e-07 0)
(5.52584e-07 1.78278e-07 0)
(5.41143e-07 1.77271e-07 0)
(5.33743e-07 1.77305e-07 0)
(5.28387e-07 1.78136e-07 0)
(5.63029e-07 2.85655e-07 0)
(4.60295e-07 1.72182e-07 0)
(4.01261e-07 1.23045e-07 0)
(3.66199e-07 9.25642e-08 0)
(3.44932e-07 7.95746e-08 0)
(3.3101e-07 7.24621e-08 0)
(3.22025e-07 7.00727e-08 0)
(3.15879e-07 6.9354e-08 0)
(3.11836e-07 6.94146e-08 0)
(3.08653e-07 6.98769e-08 0)
(1.93933e-07 1.49501e-07 0)
(1.46374e-07 6.33356e-08 0)
(1.28233e-07 3.30785e-08 0)
(1.18626e-07 1.79221e-08 0)
(1.13042e-07 1.27301e-08 0)
(1.0914e-07 1.04119e-08 0)
(1.06591e-07 1.01265e-08 0)
(1.04721e-07 1.03677e-08 0)
(1.03443e-07 1.07953e-08 0)
(1.02315e-07 1.12616e-08 0)
(5.95997e-06 1.83694e-06 0)
(5.95018e-06 2.06606e-06 0)
(5.94344e-06 2.27953e-06 0)
(5.94373e-06 2.47495e-06 0)
(5.95274e-06 2.65432e-06 0)
(5.97112e-06 2.81986e-06 0)
(5.999e-06 2.97418e-06 0)
(6.03577e-06 3.11951e-06 0)
(6.08114e-06 3.25762e-06 0)
(6.13393e-06 3.39048e-06 0)
(5.77303e-06 1.82188e-06 0)
(5.7466e-06 2.05034e-06 0)
(5.72862e-06 2.26122e-06 0)
(5.7207e-06 2.45271e-06 0)
(5.72371e-06 2.62727e-06 0)
(5.73712e-06 2.7873e-06 0)
(5.76048e-06 2.93561e-06 0)
(5.7927e-06 3.07458e-06 0)
(5.83333e-06 3.20605e-06 0)
(5.88081e-06 3.33227e-06 0)
(5.57474e-06 1.79125e-06 0)
(5.52861e-06 2.01914e-06 0)
(5.49532e-06 2.22573e-06 0)
(5.47531e-06 2.41105e-06 0)
(5.46877e-06 2.57884e-06 0)
(5.47414e-06 2.73181e-06 0)
(5.49045e-06 2.873e-06 0)
(5.51604e-06 3.00481e-06 0)
(5.55033e-06 3.12915e-06 0)
(5.59117e-06 3.24834e-06 0)
(5.36045e-06 1.74668e-06 0)
(5.29217e-06 1.9735e-06 0)
(5.24109e-06 2.17483e-06 0)
(5.20675e-06 2.3526e-06 0)
(5.18849e-06 2.51223e-06 0)
(5.18389e-06 2.65685e-06 0)
(5.19149e-06 2.78976e-06 0)
(5.20908e-06 2.91339e-06 0)
(5.23594e-06 3.02974e-06 0)
(5.26928e-06 3.14107e-06 0)
(5.12768e-06 1.68861e-06 0)
(5.03513e-06 1.91253e-06 0)
(4.965e-06 2.10694e-06 0)
(4.91555e-06 2.27543e-06 0)
(4.88489e-06 2.42531e-06 0)
(4.86975e-06 2.56014e-06 0)
(4.86813e-06 2.68354e-06 0)
(4.87732e-06 2.79793e-06 0)
(4.89643e-06 2.9054e-06 0)
(4.92209e-06 3.00808e-06 0)
(4.87611e-06 1.61838e-06 0)
(4.75791e-06 1.83632e-06 0)
(4.66833e-06 2.0218e-06 0)
(4.60378e-06 2.17941e-06 0)
(4.56084e-06 2.31822e-06 0)
(4.53529e-06 2.44209e-06 0)
(4.5246e-06 2.55496e-06 0)
(4.52555e-06 2.65918e-06 0)
(4.53707e-06 2.75699e-06 0)
(4.5553e-06 2.85023e-06 0)
(4.60639e-06 1.53706e-06 0)
(4.46216e-06 1.74486e-06 0)
(4.35355e-06 1.91887e-06 0)
(4.27459e-06 2.06385e-06 0)
(4.22012e-06 2.19033e-06 0)
(4.18492e-06 2.3022e-06 0)
(4.16583e-06 2.4037e-06 0)
(4.15919e-06 2.49703e-06 0)
(4.16368e-06 2.58453e-06 0)
(4.1751e-06 2.66775e-06 0)
(4.31992e-06 1.44616e-06 0)
(4.15056e-06 1.63901e-06 0)
(4.02413e-06 1.79872e-06 0)
(3.93201e-06 1.92936e-06 0)
(3.86722e-06 2.04237e-06 0)
(3.82347e-06 2.14145e-06 0)
(3.79698e-06 2.23097e-06 0)
(3.78369e-06 2.31289e-06 0)
(3.78195e-06 2.38967e-06 0)
(3.78748e-06 2.46235e-06 0)
(4.0185e-06 1.34725e-06 0)
(3.82626e-06 1.52011e-06 0)
(3.68407e-06 1.66258e-06 0)
(3.58057e-06 1.77717e-06 0)
(3.50706e-06 1.87573e-06 0)
(3.45621e-06 1.96143e-06 0)
(3.42354e-06 2.03857e-06 0)
(3.40476e-06 2.10887e-06 0)
(3.39771e-06 2.17462e-06 0)
(3.39844e-06 2.23662e-06 0)
(3.70415e-06 1.24216e-06 0)
(3.49261e-06 1.39015e-06 0)
(3.33748e-06 1.51262e-06 0)
(3.2249e-06 1.60964e-06 0)
(3.14458e-06 1.69296e-06 0)
(3.08825e-06 1.76491e-06 0)
(3.05084e-06 1.8296e-06 0)
(3.02783e-06 1.88827e-06 0)
(3.01655e-06 1.94316e-06 0)
(3.01389e-06 1.99381e-06 0)
(6.19702e-06 3.51827e-06 0)
(6.26944e-06 3.6451e-06 0)
(6.34741e-06 3.7699e-06 0)
(6.43031e-06 3.89326e-06 0)
(6.51771e-06 4.01581e-06 0)
(6.60911e-06 4.13791e-06 0)
(6.70412e-06 4.25997e-06 0)
(6.80235e-06 4.38227e-06 0)
(6.90345e-06 4.5051e-06 0)
(7.0071e-06 4.62864e-06 0)
(7.11299e-06 4.75311e-06 0)
(7.22084e-06 4.87864e-06 0)
(7.33038e-06 5.00538e-06 0)
(7.44136e-06 5.13342e-06 0)
(7.55353e-06 5.26284e-06 0)
(7.66663e-06 5.39366e-06 0)
(7.78043e-06 5.52588e-06 0)
(7.89466e-06 5.65938e-06 0)
(8.00913e-06 5.79393e-06 0)
(8.12358e-06 5.92913e-06 0)
(5.94657e-06 3.45525e-06 0)
(6.02791e-06 3.57997e-06 0)
(6.1136e-06 3.70279e-06 0)
(6.20295e-06 3.8244e-06 0)
(6.29584e-06 3.94546e-06 0)
(6.39184e-06 4.06628e-06 0)
(6.49072e-06 4.18732e-06 0)
(6.59218e-06 4.3088e-06 0)
(6.696e-06 4.43101e-06 0)
(6.80191e-06 4.55414e-06 0)
(6.90971e-06 4.67837e-06 0)
(7.01918e-06 4.80385e-06 0)
(7.13013e-06 4.9307e-06 0)
(7.24237e-06 5.05903e-06 0)
(7.35571e-06 5.18889e-06 0)
(7.46997e-06 5.32033e-06 0)
(7.58498e-06 5.45332e-06 0)
(7.70055e-06 5.58777e-06 0)
(7.81652e-06 5.72344e-06 0)
(7.93262e-06 5.86e-06 0)
(5.66057e-06 3.36768e-06 0)
(5.75341e-06 3.49264e-06 0)
(5.84939e-06 3.61574e-06 0)
(5.94763e-06 3.7376e-06 0)
(6.04834e-06 3.85899e-06 0)
(6.15113e-06 3.98018e-06 0)
(6.25599e-06 4.10167e-06 0)
(6.36267e-06 4.22367e-06 0)
(6.47108e-06 4.34649e-06 0)
(6.58105e-06 4.47032e-06 0)
(6.69248e-06 4.59535e-06 0)
(6.80521e-06 4.72171e-06 0)
(6.91913e-06 4.84956e-06 0)
(7.03412e-06 4.97898e-06 0)
(7.15006e-06 5.11007e-06 0)
(7.26684e-06 5.24286e-06 0)
(7.38434e-06 5.37738e-06 0)
(7.50241e-06 5.51357e-06 0)
(7.62091e-06 5.65133e-06 0)
(7.73952e-06 5.79044e-06 0)
(5.34322e-06 3.2575e-06 0)
(5.44973e-06 3.38449e-06 0)
(5.55821e-06 3.5097e-06 0)
(5.6674e-06 3.63342e-06 0)
(5.77799e-06 3.75668e-06 0)
(5.8895e-06 3.87963e-06 0)
(6.00218e-06 4.00285e-06 0)
(6.11584e-06 4.12657e-06 0)
(6.23052e-06 4.2511e-06 0)
(6.34614e-06 4.37665e-06 0)
(6.46268e-06 4.50343e-06 0)
(6.58009e-06 4.63159e-06 0)
(6.69833e-06 4.76129e-06 0)
(6.81734e-06 4.89263e-06 0)
(6.93708e-06 5.02573e-06 0)
(7.05748e-06 5.16066e-06 0)
(7.17849e-06 5.29749e-06 0)
(7.29997e-06 5.43625e-06 0)
(7.42183e-06 5.57696e-06 0)
(7.54373e-06 5.71956e-06 0)
(5.00145e-06 3.12259e-06 0)
(5.12325e-06 3.25365e-06 0)
(5.24589e-06 3.38306e-06 0)
(5.36759e-06 3.51049e-06 0)
(5.48958e-06 3.63733e-06 0)
(5.61129e-06 3.76361e-06 0)
(5.7332e-06 3.89002e-06 0)
(5.85517e-06 4.01677e-06 0)
(5.9774e-06 4.14424e-06 0)
(6.09988e-06 4.27265e-06 0)
(6.22269e-06 4.40223e-06 0)
(6.34586e-06 4.53316e-06 0)
(6.46943e-06 4.66561e-06 0)
(6.59342e-06 4.79973e-06 0)
(6.71783e-06 4.93566e-06 0)
(6.84267e-06 5.07351e-06 0)
(6.96793e-06 5.21342e-06 0)
(7.09353e-06 5.35549e-06 0)
(7.21941e-06 5.49992e-06 0)
(7.34527e-06 5.64674e-06 0)
(4.64084e-06 2.96373e-06 0)
(4.77909e-06 3.10078e-06 0)
(4.91714e-06 3.23631e-06 0)
(5.0525e-06 3.36919e-06 0)
(5.18705e-06 3.50124e-06 0)
(5.32007e-06 3.63236e-06 0)
(5.4523e-06 3.76334e-06 0)
(5.58364e-06 3.89442e-06 0)
(5.71442e-06 4.02602e-06 0)
(5.84471e-06 4.15839e-06 0)
(5.9747e-06 4.2918e-06 0)
(6.10447e-06 4.42647e-06 0)
(6.23416e-06 4.56258e-06 0)
(6.36385e-06 4.70032e-06 0)
(6.49361e-06 4.83986e-06 0)
(6.62351e-06 4.98137e-06 0)
(6.75359e-06 5.12505e-06 0)
(6.88384e-06 5.27109e-06 0)
(7.01425e-06 5.41983e-06 0)
(7.14461e-06 5.57141e-06 0)
(4.26737e-06 2.78124e-06 0)
(4.42266e-06 2.9262e-06 0)
(4.57687e-06 3.06973e-06 0)
(4.72665e-06 3.20982e-06 0)
(4.87453e-06 3.34866e-06 0)
(5.01963e-06 3.48611e-06 0)
(5.16294e-06 3.62302e-06 0)
(5.30439e-06 3.7597e-06 0)
(5.44444e-06 3.8966e-06 0)
(5.58323e-06 4.03404e-06 0)
(5.72104e-06 4.17231e-06 0)
(5.85803e-06 4.31166e-06 0)
(5.9944e-06 4.45233e-06 0)
(6.13031e-06 4.59453e-06 0)
(6.26591e-06 4.73846e-06 0)
(6.40131e-06 4.88435e-06 0)
(6.53662e-06 5.03245e-06 0)
(6.6719e-06 5.18302e-06 0)
(6.80721e-06 5.33653e-06 0)
(6.94247e-06 5.49322e-06 0)
(3.8867e-06 2.57675e-06 0)
(4.05906e-06 2.73142e-06 0)
(4.22962e-06 2.88446e-06 0)
(4.39416e-06 3.0334e-06 0)
(4.5557e-06 3.18045e-06 0)
(4.71336e-06 3.32565e-06 0)
(4.86821e-06 3.46981e-06 0)
(5.02029e-06 3.61333e-06 0)
(5.1701e-06 3.75669e-06 0)
(5.31789e-06 3.90025e-06 0)
(5.46398e-06 4.04437e-06 0)
(5.60863e-06 4.18933e-06 0)
(5.75209e-06 4.3354e-06 0)
(5.89459e-06 4.48283e-06 0)
(6.03634e-06 4.63187e-06 0)
(6.17753e-06 4.78277e-06 0)
(6.31833e-06 4.93585e-06 0)
(6.45889e-06 5.09143e-06 0)
(6.59932e-06 5.25005e-06 0)
(6.73975e-06 5.41204e-06 0)
(3.50457e-06 2.3522e-06 0)
(3.69357e-06 2.51848e-06 0)
(3.88003e-06 2.68219e-06 0)
(4.0594e-06 2.84149e-06 0)
(4.23454e-06 2.99792e-06 0)
(4.40491e-06 3.15202e-06 0)
(4.57142e-06 3.30448e-06 0)
(4.73431e-06 3.45588e-06 0)
(4.89409e-06 3.6067e-06 0)
(5.05109e-06 3.75738e-06 0)
(5.2057e-06 3.90829e-06 0)
(5.35823e-06 4.05976e-06 0)
(5.509e-06 4.21209e-06 0)
(5.65829e-06 4.36555e-06 0)
(5.80638e-06 4.52042e-06 0)
(5.95352e-06 4.67698e-06 0)
(6.09995e-06 4.83558e-06 0)
(6.24593e-06 4.99657e-06 0)
(6.39161e-06 5.16056e-06 0)
(6.53735e-06 5.3279e-06 0)
(3.12547e-06 2.11103e-06 0)
(3.33022e-06 2.2901e-06 0)
(3.5309e-06 2.46484e-06 0)
(3.72474e-06 2.63559e-06 0)
(3.91323e-06 2.80266e-06 0)
(4.09635e-06 2.96686e-06 0)
(4.2747e-06 3.12879e-06 0)
(4.44862e-06 3.2891e-06 0)
(4.61858e-06 3.44832e-06 0)
(4.785e-06 3.60697e-06 0)
(4.94829e-06 3.76546e-06 0)
(5.10885e-06 3.92417e-06 0)
(5.26703e-06 4.08344e-06 0)
(5.42319e-06 4.24356e-06 0)
(5.57767e-06 4.40485e-06 0)
(5.7308e-06 4.56759e-06 0)
(5.88287e-06 4.73214e-06 0)
(6.03424e-06 4.89886e-06 0)
(6.18515e-06 5.06838e-06 0)
(6.33618e-06 5.24106e-06 0)
(2.83311e-06 1.93028e-06 0)
(3.04657e-06 2.11864e-06 0)
(3.25472e-06 2.29961e-06 0)
(3.4564e-06 2.47689e-06 0)
(3.65245e-06 2.65047e-06 0)
(3.8429e-06 2.8211e-06 0)
(4.02826e-06 2.98936e-06 0)
(4.20882e-06 3.1558e-06 0)
(4.38502e-06 3.32093e-06 0)
(4.55726e-06 3.48522e-06 0)
(4.72594e-06 3.64906e-06 0)
(4.89146e-06 3.81283e-06 0)
(5.05421e-06 3.97685e-06 0)
(5.21456e-06 4.14141e-06 0)
(5.37286e-06 4.30679e-06 0)
(5.52951e-06 4.47327e-06 0)
(5.68482e-06 4.64118e-06 0)
(5.83926e-06 4.81086e-06 0)
(5.99308e-06 4.98285e-06 0)
(6.14708e-06 5.15746e-06 0)
(2.63806e-06 1.82229e-06 0)
(2.85153e-06 2.01062e-06 0)
(3.05971e-06 2.19306e-06 0)
(3.26203e-06 2.37233e-06 0)
(3.45906e-06 2.54837e-06 0)
(3.65075e-06 2.7217e-06 0)
(3.83751e-06 2.89279e-06 0)
(4.01957e-06 3.06207e-06 0)
(4.19729e-06 3.22996e-06 0)
(4.371e-06 3.39686e-06 0)
(4.54108e-06 3.56312e-06 0)
(4.70789e-06 3.72907e-06 0)
(4.87179e-06 3.89497e-06 0)
(5.03316e-06 4.0611e-06 0)
(5.19234e-06 4.22771e-06 0)
(5.34972e-06 4.39504e-06 0)
(5.50565e-06 4.56336e-06 0)
(5.66063e-06 4.73296e-06 0)
(5.81493e-06 4.90424e-06 0)
(5.96946e-06 5.07745e-06 0)
(2.46593e-06 1.71866e-06 0)
(2.67552e-06 1.9064e-06 0)
(2.88155e-06 2.08935e-06 0)
(3.0823e-06 2.26982e-06 0)
(3.27851e-06 2.44763e-06 0)
(3.46982e-06 2.6231e-06 0)
(3.65659e-06 2.79657e-06 0)
(3.8389e-06 2.96834e-06 0)
(4.01705e-06 3.13875e-06 0)
(4.19131e-06 3.3081e-06 0)
(4.36199e-06 3.47667e-06 0)
(4.52941e-06 3.64472e-06 0)
(4.6939e-06 3.81249e-06 0)
(4.85581e-06 3.98019e-06 0)
(5.01548e-06 4.14802e-06 0)
(5.17329e-06 4.31619e-06 0)
(5.32961e-06 4.48487e-06 0)
(5.48493e-06 4.65431e-06 0)
(5.63956e-06 4.82474e-06 0)
(5.79446e-06 4.99635e-06 0)
(2.31168e-06 1.61888e-06 0)
(2.51623e-06 1.80509e-06 0)
(2.71853e-06 1.98785e-06 0)
(2.91626e-06 2.16902e-06 0)
(3.11024e-06 2.34816e-06 0)
(3.29987e-06 2.52543e-06 0)
(3.48544e-06 2.70099e-06 0)
(3.66691e-06 2.87502e-06 0)
(3.84453e-06 3.04776e-06 0)
(4.01846e-06 3.2194e-06 0)
(4.18899e-06 3.39016e-06 0)
(4.35637e-06 3.56023e-06 0)
(4.5209e-06 3.72979e-06 0)
(4.68289e-06 3.899e-06 0)
(4.84268e-06 4.06801e-06 0)
(5.00062e-06 4.23696e-06 0)
(5.15708e-06 4.40596e-06 0)
(5.31253e-06 4.57517e-06 0)
(5.46732e-06 4.7447e-06 0)
(5.62243e-06 4.91456e-06 0)
(2.17355e-06 1.52401e-06 0)
(2.37192e-06 1.70812e-06 0)
(2.56924e-06 1.8901e-06 0)
(2.76274e-06 2.07135e-06 0)
(2.95332e-06 2.25127e-06 0)
(3.14015e-06 2.42984e-06 0)
(3.3235e-06 2.60706e-06 0)
(3.5032e-06 2.78299e-06 0)
(3.67942e-06 2.95774e-06 0)
(3.85228e-06 3.13143e-06 0)
(4.02198e-06 3.30418e-06 0)
(4.18873e-06 3.47611e-06 0)
(4.35279e-06 3.64733e-06 0)
(4.51445e-06 3.81796e-06 0)
(4.674e-06 3.98807e-06 0)
(4.83176e-06 4.15774e-06 0)
(4.98812e-06 4.32701e-06 0)
(5.14342e-06 4.49595e-06 0)
(5.29833e-06 4.66441e-06 0)
(5.45355e-06 4.83249e-06 0)
(2.04887e-06 1.43399e-06 0)
(2.24046e-06 1.61547e-06 0)
(2.43196e-06 1.79615e-06 0)
(2.6204e-06 1.977e-06 0)
(2.80668e-06 2.15724e-06 0)
(2.98986e-06 2.33669e-06 0)
(3.17013e-06 2.5152e-06 0)
(3.34727e-06 2.69269e-06 0)
(3.52137e-06 2.86917e-06 0)
(3.69247e-06 3.04464e-06 0)
(3.86074e-06 3.21916e-06 0)
(4.02634e-06 3.39276e-06 0)
(4.18949e-06 3.56549e-06 0)
(4.35042e-06 3.7374e-06 0)
(4.5094e-06 3.90851e-06 0)
(4.66675e-06 4.07882e-06 0)
(4.82276e-06 4.2483e-06 0)
(4.97792e-06 4.41685e-06 0)
(5.1325e-06 4.58432e-06 0)
(5.28742e-06 4.7507e-06 0)
(1.93548e-06 1.34887e-06 0)
(2.11989e-06 1.52743e-06 0)
(2.305e-06 1.70644e-06 0)
(2.48776e-06 1.88646e-06 0)
(2.66907e-06 2.0666e-06 0)
(2.84792e-06 2.24652e-06 0)
(3.02445e-06 2.42592e-06 0)
(3.19837e-06 2.60463e-06 0)
(3.36973e-06 2.78251e-06 0)
(3.53852e-06 2.95949e-06 0)
(3.70485e-06 3.13552e-06 0)
(3.86884e-06 3.31057e-06 0)
(4.03067e-06 3.48463e-06 0)
(4.19053e-06 3.65767e-06 0)
(4.34866e-06 3.82964e-06 0)
(4.50534e-06 4.00049e-06 0)
(4.66083e-06 4.1701e-06 0)
(4.81557e-06 4.33833e-06 0)
(4.96978e-06 4.50485e-06 0)
(5.12433e-06 4.66953e-06 0)
(1.83124e-06 1.26844e-06 0)
(2.0083e-06 1.44388e-06 0)
(2.18666e-06 1.62094e-06 0)
(2.36334e-06 1.79983e-06 0)
(2.5392e-06 1.97952e-06 0)
(2.7132e-06 2.15956e-06 0)
(2.88547e-06 2.33953e-06 0)
(3.05565e-06 2.51912e-06 0)
(3.22378e-06 2.6981e-06 0)
(3.3898e-06 2.87629e-06 0)
(3.55376e-06 3.05358e-06 0)
(3.71576e-06 3.22986e-06 0)
(3.87592e-06 3.40503e-06 0)
(4.03441e-06 3.57903e-06 0)
(4.19143e-06 3.75173e-06 0)
(4.34722e-06 3.92303e-06 0)
(4.50201e-06 4.09273e-06 0)
(4.65617e-06 4.2606e-06 0)
(4.80989e-06 4.42624e-06 0)
(4.96394e-06 4.58941e-06 0)
(1.73426e-06 1.19245e-06 0)
(1.90391e-06 1.36472e-06 0)
(2.07531e-06 1.53968e-06 0)
(2.24564e-06 1.71719e-06 0)
(2.4157e-06 1.89616e-06 0)
(2.58449e-06 2.07604e-06 0)
(2.75209e-06 2.25626e-06 0)
(2.91816e-06 2.43643e-06 0)
(3.08266e-06 2.61621e-06 0)
(3.24552e-06 2.79534e-06 0)
(3.40677e-06 2.97363e-06 0)
(3.56646e-06 3.15088e-06 0)
(3.72467e-06 3.32697e-06 0)
(3.88155e-06 3.50173e-06 0)
(4.03725e-06 3.67503e-06 0)
(4.19197e-06 3.84666e-06 0)
(4.3459e-06 4.0164e-06 0)
(4.49935e-06 4.18395e-06 0)
(4.65246e-06 4.34881e-06 0)
(4.80587e-06 4.51067e-06 0)
(1.64278e-06 1.12062e-06 0)
(1.80501e-06 1.28976e-06 0)
(1.96936e-06 1.46253e-06 0)
(2.13317e-06 1.63852e-06 0)
(2.29721e-06 1.81658e-06 0)
(2.46053e-06 1.99605e-06 0)
(2.62319e-06 2.17627e-06 0)
(2.78483e-06 2.35674e-06 0)
(2.94542e-06 2.53704e-06 0)
(3.10484e-06 2.71684e-06 0)
(3.26311e-06 2.89586e-06 0)
(3.42023e-06 3.07387e-06 0)
(3.57628e-06 3.25064e-06 0)
(3.73135e-06 3.42599e-06 0)
(3.88555e-06 3.59972e-06 0)
(4.03905e-06 3.77159e-06 0)
(4.19199e-06 3.94132e-06 0)
(4.34462e-06 4.10858e-06 0)
(4.49703e-06 4.27279e-06 0)
(4.6497e-06 4.43361e-06 0)
(1.55519e-06 1.05265e-06 0)
(1.71004e-06 1.21878e-06 0)
(1.86728e-06 1.38937e-06 0)
(2.02448e-06 1.56376e-06 0)
(2.18236e-06 1.74076e-06 0)
(2.34003e-06 1.91963e-06 0)
(2.49754e-06 2.09962e-06 0)
(2.65456e-06 2.28015e-06 0)
(2.81102e-06 2.46073e-06 0)
(2.96681e-06 2.64094e-06 0)
(3.1219e-06 2.82045e-06 0)
(3.27628e-06 2.99896e-06 0)
(3.42999e-06 3.17621e-06 0)
(3.5831e-06 3.35196e-06 0)
(3.73568e-06 3.52596e-06 0)
(3.88785e-06 3.69796e-06 0)
(4.03971e-06 3.86764e-06 0)
(4.19144e-06 4.03465e-06 0)
(4.34308e-06 4.19837e-06 0)
(4.49493e-06 4.35844e-06 0)
(1.46999e-06 9.88307e-07 0)
(1.61748e-06 1.15161e-06 0)
(1.76759e-06 1.32005e-06 0)
(1.91813e-06 1.49282e-06 0)
(2.06975e-06 1.66867e-06 0)
(2.22167e-06 1.84679e-06 0)
(2.37392e-06 2.02636e-06 0)
(2.52619e-06 2.20673e-06 0)
(2.6784e-06 2.38734e-06 0)
(2.83042e-06 2.56773e-06 0)
(2.98221e-06 2.74749e-06 0)
(3.13374e-06 2.92628e-06 0)
(3.28501e-06 3.10379e-06 0)
(3.43606e-06 3.27974e-06 0)
(3.58694e-06 3.45387e-06 0)
(3.7377e-06 3.6259e-06 0)
(3.88842e-06 3.79548e-06 0)
(4.03919e-06 3.96227e-06 0)
(4.19001e-06 4.12566e-06 0)
(4.34102e-06 4.28529e-06 0)
(1.3857e-06 9.27362e-07 0)
(1.52584e-06 1.08804e-06 0)
(1.6688e-06 1.25444e-06 0)
(1.81265e-06 1.42558e-06 0)
(1.95798e-06 1.60022e-06 0)
(2.1041e-06 1.77747e-06 0)
(2.25105e-06 1.95645e-06 0)
(2.39851e-06 2.13648e-06 0)
(2.54641e-06 2.31691e-06 0)
(2.69462e-06 2.49725e-06 0)
(2.84307e-06 2.67703e-06 0)
(2.9917e-06 2.85587e-06 0)
(3.14049e-06 3.03344e-06 0)
(3.28945e-06 3.20942e-06 0)
(3.43858e-06 3.38352e-06 0)
(3.58791e-06 3.55546e-06 0)
(3.73745e-06 3.7249e-06 0)
(3.88724e-06 3.89151e-06 0)
(4.03723e-06 4.05472e-06 0)
(4.18738e-06 4.21422e-06 0)
(1.30091e-06 8.69728e-07 0)
(1.43366e-06 1.02799e-06 0)
(1.56945e-06 1.19244e-06 0)
(1.70659e-06 1.36199e-06 0)
(1.84563e-06 1.53536e-06 0)
(1.98595e-06 1.71163e-06 0)
(2.12759e-06 1.88988e-06 0)
(2.27027e-06 2.06936e-06 0)
(2.41389e-06 2.24941e-06 0)
(2.55831e-06 2.42948e-06 0)
(2.70345e-06 2.60907e-06 0)
(2.84921e-06 2.78776e-06 0)
(2.99556e-06 2.96518e-06 0)
(3.14244e-06 3.14101e-06 0)
(3.28985e-06 3.31494e-06 0)
(3.43776e-06 3.48668e-06 0)
(3.58614e-06 3.65592e-06 0)
(3.73496e-06 3.82236e-06 0)
(3.88414e-06 3.98553e-06 0)
(4.03347e-06 4.14516e-06 0)
(1.21411e-06 8.1524e-07 0)
(1.3394e-06 9.71302e-07 0)
(1.46797e-06 1.1339e-06 0)
(1.5984e-06 1.30188e-06 0)
(1.73118e-06 1.47394e-06 0)
(1.86577e-06 1.64913e-06 0)
(2.00219e-06 1.8265e-06 0)
(2.14017e-06 2.00527e-06 0)
(2.27962e-06 2.18475e-06 0)
(2.42037e-06 2.36434e-06 0)
(2.5623e-06 2.54353e-06 0)
(2.70532e-06 2.72187e-06 0)
(2.84932e-06 2.89897e-06 0)
(2.99424e-06 3.07448e-06 0)
(3.14001e-06 3.24809e-06 0)
(3.28657e-06 3.41952e-06 0)
(3.43385e-06 3.5885e-06 0)
(3.58175e-06 3.75478e-06 0)
(3.73015e-06 3.91799e-06 0)
(3.87874e-06 4.07799e-06 0)
(1.12377e-06 7.64081e-07 0)
(1.24148e-06 9.18093e-07 0)
(1.36279e-06 1.07889e-06 0)
(1.48654e-06 1.24528e-06 0)
(1.61312e-06 1.41595e-06 0)
(1.74208e-06 1.58993e-06 0)
(1.87343e-06 1.76625e-06 0)
(2.00689e-06 1.94412e-06 0)
(2.14236e-06 2.12282e-06 0)
(2.27964e-06 2.30173e-06 0)
(2.41859e-06 2.48031e-06 0)
(2.55906e-06 2.65811e-06 0)
(2.70092e-06 2.83469e-06 0)
(2.84406e-06 3.00972e-06 0)
(2.98835e-06 3.18288e-06 0)
(3.1337e-06 3.3539e-06 0)
(3.27999e-06 3.52255e-06 0)
(3.42708e-06 3.68863e-06 0)
(3.57479e-06 3.85195e-06 0)
(3.72274e-06 4.01247e-06 0)
(1.02809e-06 7.15976e-07 0)
(1.13809e-06 8.68065e-07 0)
(1.25211e-06 1.0271e-06 0)
(1.36921e-06 1.19186e-06 0)
(1.48973e-06 1.36105e-06 0)
(1.61327e-06 1.5337e-06 0)
(1.73978e-06 1.70882e-06 0)
(1.869e-06 1.88561e-06 0)
(2.00079e-06 2.06334e-06 0)
(2.13492e-06 2.24138e-06 0)
(2.2712e-06 2.41917e-06 0)
(2.40945e-06 2.59625e-06 0)
(2.54949e-06 2.77217e-06 0)
(2.69113e-06 2.94659e-06 0)
(2.83422e-06 3.11918e-06 0)
(2.9786e-06 3.28969e-06 0)
(3.12409e-06 3.45793e-06 0)
(3.27052e-06 3.62378e-06 0)
(3.41766e-06 3.78719e-06 0)
(3.56513e-06 3.94828e-06 0)
(9.2532e-07 6.71686e-07 0)
(1.02746e-06 8.21806e-07 0)
(1.13416e-06 9.78942e-07 0)
(1.24474e-06 1.14191e-06 0)
(1.35939e-06 1.30943e-06 0)
(1.47778e-06 1.48051e-06 0)
(1.59979e-06 1.65419e-06 0)
(1.72515e-06 1.82965e-06 0)
(1.85366e-06 2.00617e-06 0)
(1.98507e-06 2.1831e-06 0)
(2.11912e-06 2.35989e-06 0)
(2.25559e-06 2.53605e-06 0)
(2.39423e-06 2.71114e-06 0)
(2.5348e-06 2.8848e-06 0)
(2.67707e-06 3.05672e-06 0)
(2.82082e-06 3.22665e-06 0)
(2.96582e-06 3.39443e-06 0)
(3.11183e-06 3.55998e-06 0)
(3.25859e-06 3.72341e-06 0)
(3.40573e-06 3.88501e-06 0)
(8.1285e-07 6.30147e-07 0)
(9.07022e-07 7.78268e-07 0)
(1.00648e-06 9.33419e-07 0)
(1.11076e-06 1.09448e-06 0)
(1.21988e-06 1.26016e-06 0)
(1.33354e-06 1.42952e-06 0)
(1.45154e-06 1.60158e-06 0)
(1.57358e-06 1.77554e-06 0)
(1.69939e-06 1.95066e-06 0)
(1.82866e-06 2.12632e-06 0)
(1.96109e-06 2.30195e-06 0)
(2.09638e-06 2.47705e-06 0)
(2.23422e-06 2.6512e-06 0)
(2.37431e-06 2.82403e-06 0)
(2.51635e-06 2.99521e-06 0)
(2.66001e-06 3.16451e-06 0)
(2.805e-06 3.33177e-06 0)
(2.95098e-06 3.49699e-06 0)
(3.09767e-06 3.66034e-06 0)
(3.24467e-06 3.82229e-06 0)
(6.89218e-07 5.93799e-07 0)
(7.7537e-07 7.39445e-07 0)
(8.67767e-07 8.92123e-07 0)
(9.6603e-07 1.05078e-06 0)
(1.07006e-06 1.21417e-06 0)
(1.1795e-06 1.38135e-06 0)
(1.29408e-06 1.55137e-06 0)
(1.41342e-06 1.72343e-06 0)
(1.53718e-06 1.89681e-06 0)
(1.665e-06 2.07087e-06 0)
(1.7965e-06 2.24505e-06 0)
(1.93131e-06 2.41886e-06 0)
(2.06906e-06 2.59187e-06 0)
(2.20937e-06 2.7637e-06 0)
(2.35185e-06 2.93406e-06 0)
(2.4961e-06 3.10269e-06 0)
(2.64172e-06 3.26946e-06 0)
(2.78825e-06 3.43435e-06 0)
(2.93531e-06 3.59756e-06 0)
(3.0824e-06 3.75961e-06 0)
(9.89182e-08 1.07882e-08 0)
(2.98741e-07 6.59808e-08 0)
(5.11018e-07 1.68572e-07 0)
(7.38464e-07 3.11747e-07 0)
(9.85472e-07 4.91667e-07 0)
(1.25345e-06 7.01969e-07 0)
(1.54352e-06 9.35846e-07 0)
(1.85522e-06 1.18616e-06 0)
(2.18765e-06 1.44567e-06 0)
(2.53907e-06 1.70845e-06 0)
(9.31854e-08 9.67461e-09 0)
(2.81635e-07 5.93403e-08 0)
(4.81325e-07 1.5256e-07 0)
(6.94356e-07 2.83807e-07 0)
(9.24725e-07 4.50187e-07 0)
(1.17373e-06 6.46353e-07 0)
(1.44251e-06 8.66396e-07 0)
(1.73063e-06 1.10402e-06 0)
(2.03708e-06 1.35229e-06 0)
(2.36002e-06 1.6065e-06 0)
(8.80322e-08 8.35688e-09 0)
(2.66287e-07 5.26145e-08 0)
(4.54835e-07 1.3707e-07 0)
(6.55081e-07 2.57183e-07 0)
(8.70586e-07 4.1078e-07 0)
(1.10244e-06 5.93329e-07 0)
(1.35185e-06 7.99684e-07 0)
(1.61867e-06 1.02443e-06 0)
(1.90253e-06 1.26128e-06 0)
(2.20147e-06 1.50687e-06 0)
(8.33161e-08 6.82364e-09 0)
(2.52302e-07 4.58544e-08 0)
(4.30988e-07 1.22394e-07 0)
(6.20143e-07 2.32608e-07 0)
(8.22942e-07 3.74852e-07 0)
(1.04019e-06 5.45221e-07 0)
(1.273e-06 7.39117e-07 0)
(1.52108e-06 9.51705e-07 0)
(1.78452e-06 1.17702e-06 0)
(2.06093e-06 1.41217e-06 0)
(7.89069e-08 5.06031e-09 0)
(2.39248e-07 3.88259e-08 0)
(4.0888e-07 1.07857e-07 0)
(5.87985e-07 2.08846e-07 0)
(7.79406e-07 3.40542e-07 0)
(9.83672e-07 4.99539e-07 0)
(1.20189e-06 6.81727e-07 0)
(1.43363e-06 8.82816e-07 0)
(1.67944e-06 1.09735e-06 0)
(1.93616e-06 1.32239e-06 0)
(7.47684e-08 3.09645e-09 0)
(2.27015e-07 3.15751e-08 0)
(3.8831e-07 9.3537e-08 0)
(5.58305e-07 1.8606e-07 0)
(7.39556e-07 3.08174e-07 0)
(9.323e-07 4.56835e-07 0)
(1.1376e-06 6.28291e-07 0)
(1.3548e-06 8.18593e-07 0)
(1.58489e-06 1.02278e-06 0)
(1.8242e-06 1.2377e-06 0)
(7.08172e-08 9.2255e-10 0)
(2.15344e-07 2.39974e-08 0)
(3.68782e-07 7.91298e-08 0)
(5.30313e-07 1.63684e-07 0)
(7.02255e-07 2.769e-07 0)
(8.84587e-07 4.16011e-07 0)
(1.07834e-06 5.7758e-07 0)
(1.28267e-06 7.57918e-07 0)
(1.49885e-06 9.5254e-07 0)
(1.72285e-06 1.15796e-06 0)
(6.70222e-08 -1.43313e-09 0)
(2.04137e-07 1.61252e-08 0)
(3.50108e-07 6.46457e-08 0)
(5.03693e-07 1.41704e-07 0)
(6.67007e-07 2.46684e-07 0)
(8.39793e-07 3.77013e-07 0)
(1.02305e-06 5.29498e-07 0)
(1.21578e-06 7.00612e-07 0)
(1.41944e-06 8.8632e-07 0)
(1.62989e-06 1.08285e-06 0)
(6.33346e-08 -3.97165e-09 0)
(1.93248e-07 7.91656e-09 0)
(3.3202e-07 4.99497e-08 0)
(4.78022e-07 1.19862e-07 0)
(6.332e-07 2.17135e-07 0)
(7.97099e-07 3.39337e-07 0)
(9.70682e-07 4.83473e-07 0)
(1.15285e-06 6.46128e-07 0)
(1.34515e-06 8.23638e-07 0)
(1.54349e-06 1.01201e-06 0)
(5.97272e-08 -6.67562e-09 0)
(1.82595e-07 -6.13032e-10 0)
(3.1436e-07 3.50287e-08 0)
(4.53037e-07 9.81038e-08 0)
(6.00423e-07 1.88151e-07 0)
(7.55902e-07 3.02824e-07 0)
(9.20399e-07 4.39275e-07 0)
(1.09279e-06 5.94164e-07 0)
(1.2746e-06 7.64136e-07 0)
(1.46196e-06 9.45079e-07 0)
(5.61706e-08 -9.5435e-09 0)
(1.72092e-07 -9.48292e-09 0)
(2.9697e-07 1.98169e-08 0)
(4.28479e-07 7.63079e-08 0)
(5.68282e-07 1.59545e-07 0)
(7.15643e-07 2.67226e-07 0)
(8.71452e-07 3.96605e-07 0)
(1.03461e-06 5.44396e-07 0)
(1.20659e-06 7.07477e-07 0)
(1.38381e-06 8.81692e-07 0)
(5.26454e-08 -1.257e-08 0)
(1.61686e-07 -1.86938e-08 0)
(2.7974e-07 4.2961e-09 0)
(4.04152e-07 5.4438e-08 0)
(5.36457e-07 1.31253e-07 0)
(6.75843e-07 2.32442e-07 0)
(8.23173e-07 3.55317e-07 0)
(9.77425e-07 4.96625e-07 0)
(1.14e-06 6.53425e-07 0)
(1.30766e-06 8.21578e-07 0)
(4.91401e-08 -1.57627e-08 0)
(1.51353e-07 -2.82742e-08 0)
(2.62602e-07 -1.15837e-08 0)
(3.79901e-07 3.2429e-08 0)
(5.04666e-07 1.03191e-07 0)
(6.36061e-07 1.98364e-07 0)
(7.74939e-07 3.15269e-07 0)
(9.20406e-07 4.50678e-07 0)
(1.07378e-06 6.01775e-07 0)
(1.2322e-06 7.64492e-07 0)
(4.56538e-08 -1.91475e-08 0)
(1.41106e-07 -3.82559e-08 0)
(2.45528e-07 -2.78372e-08 0)
(3.55614e-07 1.03018e-08 0)
(4.72664e-07 7.54001e-08 0)
(5.95882e-07 1.65034e-07 0)
(7.26147e-07 2.76489e-07 0)
(8.62737e-07 4.06549e-07 0)
(1.00689e-06 5.52492e-07 0)
(1.15616e-06 7.10351e-07 0)
(4.22169e-08 -2.27744e-08 0)
(1.31069e-07 -4.87253e-08 0)
(2.28609e-07 -4.45425e-08 0)
(3.31263e-07 -1.19954e-08 0)
(4.40247e-07 4.7853e-08 0)
(5.54903e-07 1.32429e-07 0)
(6.76174e-07 2.38939e-07 0)
(8.03563e-07 3.64172e-07 0)
(9.38245e-07 5.05476e-07 0)
(1.0782e-06 6.59007e-07 0)
(3.8895e-08 -2.68099e-08 0)
(1.21443e-07 -5.98051e-08 0)
(2.11992e-07 -6.16682e-08 0)
(3.06851e-07 -3.42619e-08 0)
(4.0722e-07 2.08596e-08 0)
(5.12701e-07 1.00909e-07 0)
(6.24372e-07 2.02987e-07 0)
(7.42e-07 3.2389e-07 0)
(8.66722e-07 4.61026e-07 0)
(9.96957e-07 6.10699e-07 0)
(3.59316e-08 -3.14545e-08 0)
(1.12858e-07 -7.1745e-08 0)
(1.96196e-07 -7.93778e-08 0)
(2.82597e-07 -5.661e-08 0)
(3.73448e-07 -5.64771e-09 0)
(4.68805e-07 7.04101e-08 0)
(5.69954e-07 1.68549e-07 0)
(6.76967e-07 2.85578e-07 0)
(7.90964e-07 4.18973e-07 0)
(9.10795e-07 5.652e-07 0)
(3.38448e-08 -3.75614e-08 0)
(1.06043e-07 -8.49247e-08 0)
(1.81724e-07 -9.73134e-08 0)
(2.58605e-07 -7.81497e-08 0)
(3.38692e-07 -3.05337e-08 0)
(4.22645e-07 4.2156e-08 0)
(5.12066e-07 1.36834e-07 0)
(6.07344e-07 2.50382e-07 0)
(7.09597e-07 3.8036e-07 0)
(8.18096e-07 5.23432e-07 0)
(3.51592e-08 -4.57694e-08 0)
(1.03715e-07 -9.98201e-08 0)
(1.70303e-07 -1.15812e-07 0)
(2.35479e-07 -9.93848e-08 0)
(3.02675e-07 -5.44074e-08 0)
(3.7331e-07 1.54146e-08 0)
(4.49317e-07 1.07013e-07 0)
(5.31343e-07 2.17381e-07 0)
(6.20504e-07 3.442e-07 0)
(7.16416e-07 4.84339e-07 0)
(4.52236e-08 -6.05957e-08 0)
(1.07584e-07 -1.16765e-07 0)
(1.62749e-07 -1.32525e-07 0)
(2.13127e-07 -1.16676e-07 0)
(2.64979e-07 -7.33995e-08 0)
(3.20105e-07 -5.97854e-09 0)
(3.80825e-07 8.27342e-08 0)
(4.47899e-07 1.89995e-07 0)
(5.22471e-07 3.13638e-07 0)
(6.0435e-07 4.50772e-07 0)
)
;

boundaryField
{
    left
    {
        type            fixedDisplacement;
        value           uniform (0 0 0);
    }
    right
    {
        type            solidTraction;
        tractionSeries  
{
        file            "$FOAM_CASE/constant/timeVsTraction";
        outOfBounds     clamp;
}
        pressure        uniform 0;
        secondOrder     false;
        setEffectiveTraction false;
        relaxationFactor 1;
        value           nonuniform List<vector> 
30
(
(8.18058e-06 5.99658e-06 1.82065e-21)
(7.98995e-06 5.92813e-06 1.82659e-21)
(7.79762e-06 5.86016e-06 1.87254e-21)
(7.60306e-06 5.79141e-06 1.96724e-21)
(7.40626e-06 5.7211e-06 2.1076e-21)
(7.20769e-06 5.64849e-06 2.28937e-21)
(7.00804e-06 5.57314e-06 2.50525e-21)
(6.80816e-06 5.49485e-06 2.7475e-21)
(6.60891e-06 5.41359e-06 3.00731e-21)
(6.41117e-06 5.32959e-06 3.27485e-21)
(6.22413e-06 5.24692e-06 3.46855e-21)
(6.04679e-06 5.16563e-06 3.5582e-21)
(5.87198e-06 5.08313e-06 3.61935e-21)
(5.70005e-06 4.99981e-06 3.6531e-21)
(5.53117e-06 4.91626e-06 3.65426e-21)
(5.36495e-06 4.83302e-06 3.62488e-21)
(5.20168e-06 4.75043e-06 3.56981e-21)
(5.04103e-06 4.66905e-06 3.48902e-21)
(4.88263e-06 4.58926e-06 3.38714e-21)
(4.72608e-06 4.51138e-06 3.26831e-21)
(4.57089e-06 4.43565e-06 3.13779e-21)
(4.41654e-06 4.36222e-06 3.00112e-21)
(4.26247e-06 4.29115e-06 2.86448e-21)
(4.10814e-06 4.22237e-06 2.73407e-21)
(3.95303e-06 4.15573e-06 2.61625e-21)
(3.79671e-06 4.09093e-06 2.51644e-21)
(3.63885e-06 4.02759e-06 2.44131e-21)