/*--------------------------------*- C++ -*----------------------------------*\
  =========                 |
  \\      /  F ield         | OpenFOAM: The Open Source CFD Toolbox
   \\    /   O peration     | Website:  https://openfoam.org
    \\  /    A nd           | Version:  9
     \\/     M anipulation  |
\*---------------------------------------------------------------------------*/
FoamFile
{
    format      ascii;
    class       volVectorField;
    location    "5";
    object      D_0;
}
// * * * * * * * * * * * * * * * * * * * * * * * * * * * * * * * * * * * * * //

dimensions      [0 1 0 0 0 0 0];

internalField   nonuniform List<vector> 
1000
(
(2.70461e-06 9.07768e-07 0)
(2.52373e-06 1.00289e-06 0)
(2.3921e-06 1.08294e-06 0)
(2.29696e-06 1.14552e-06 0)
(2.22904e-06 1.19954e-06 0)
(2.1811e-06 1.24602e-06 0)
(2.14863e-06 1.28791e-06 0)
(2.12801e-06 1.32606e-06 0)
(2.11637e-06 1.36166e-06 0)
(2.11225e-06 1.39542e-06 0)
(2.43722e-06 8.1835e-07 0)
(2.24938e-06 8.87476e-07 0)
(2.11359e-06 9.48117e-07 0)
(2.01587e-06 9.94952e-07 0)
(1.94621e-06 1.0361e-06 0)
(1.89688e-06 1.07149e-06 0)
(1.86306e-06 1.10359e-06 0)
(1.84093e-06 1.13296e-06 0)
(1.82754e-06 1.1602e-06 0)
(1.82091e-06 1.18679e-06 0)
(2.16414e-06 7.28767e-07 0)
(1.97455e-06 7.70192e-07 0)
(1.83832e-06 8.10608e-07 0)
(1.74081e-06 8.41512e-07 0)
(1.67153e-06 8.70001e-07 0)
(1.62247e-06 8.94759e-07 0)
(1.58863e-06 9.17715e-07 0)
(1.56607e-06 9.38979e-07 0)
(1.55185e-06 9.58676e-07 0)
(1.54387e-06 9.78409e-07 0)
(1.88674e-06 6.40473e-07 0)
(1.70088e-06 6.53586e-07 0)
(1.56819e-06 6.73703e-07 0)
(1.47388e-06 6.89003e-07 0)
(1.40729e-06 7.05448e-07 0)
(1.3603e-06 7.20332e-07 0)
(1.32787e-06 7.35e-07 0)
(1.30605e-06 7.49017e-07 0)
(1.29205e-06 7.62107e-07 0)
(1.28359e-06 7.75721e-07 0)
(1.6057e-06 5.54761e-07 0)
(1.42924e-06 5.40114e-07 0)
(1.30426e-06 5.40746e-07 0)
(1.21638e-06 5.41455e-07 0)
(1.15492e-06 5.47022e-07 0)
(1.11188e-06 5.53245e-07 0)
(1.08232e-06 5.60852e-07 0)
(1.06236e-06 5.68779e-07 0)
(1.04947e-06 5.76423e-07 0)
(1.04128e-06 5.8487e-07 0)
(1.32226e-06 4.72217e-07 0)
(1.1604e-06 4.31501e-07 0)
(1.0474e-06 4.14545e-07 0)
(9.69298e-07 4.02519e-07 0)
(9.15504e-07 3.99054e-07 0)
(8.78302e-07 3.98341e-07 0)
(8.52981e-07 4.00494e-07 0)
(8.35909e-07 4.03792e-07 0)
(8.24869e-07 4.07381e-07 0)
(8.17576e-07 4.11884e-07 0)
(1.03535e-06 3.92816e-07 0)
(8.93749e-07 3.28937e-07 0)
(7.97331e-07 2.97631e-07 0)
(7.32592e-07 2.75894e-07 0)
(6.89064e-07 2.66073e-07 0)
(6.5949e-07 2.60719e-07 0)
(6.3964e-07 2.59365e-07 0)
(6.26298e-07 2.59703e-07 0)
(6.17678e-07 2.60741e-07 0)
(6.11741e-07 2.62633e-07 0)
(7.47005e-07 3.14314e-07 0)
(6.3037e-07 2.32054e-07 0)
(5.55492e-07 1.91984e-07 0)
(5.07565e-07 1.65198e-07 0)
(4.76461e-07 1.52701e-07 0)
(4.55775e-07 1.45586e-07 0)
(4.4212e-07 1.42936e-07 0)
(4.3295e-07 1.42102e-07 0)
(4.27016e-07 1.42101e-07 0)
(4.22719e-07 1.42741e-07 0)
(4.50783e-07 2.28988e-07 0)
(3.68452e-07 1.3809e-07 0)
(3.21124e-07 9.87319e-08 0)
(2.9301e-07 7.43081e-08 0)
(2.75969e-07 6.38785e-08 0)
(2.64824e-07 5.81653e-08 0)
(2.57626e-07 5.62312e-08 0)
(2.52701e-07 5.56393e-08 0)
(2.49459e-07 5.56712e-08 0)
(2.46905e-07 5.60262e-08 0)
(1.55285e-07 1.19814e-07 0)
(1.17161e-07 5.07881e-08 0)
(1.02612e-07 2.6562e-08 0)
(9.49067e-08 1.44137e-08 0)
(9.04348e-08 1.02499e-08 0)
(8.73122e-08 8.38762e-09 0)
(8.527e-08 8.15231e-09 0)
(8.37722e-08 8.33979e-09 0)
(8.27472e-08 8.67647e-09 0)
(8.18423e-08 9.04472e-09 0)
(4.77035e-06 1.47185e-06 0)
(4.76248e-06 1.65529e-06 0)
(4.75706e-06 1.8262e-06 0)
(4.75728e-06 1.98265e-06 0)
(4.76448e-06 2.12624e-06 0)
(4.77919e-06 2.25876e-06 0)
(4.8015e-06 2.3823e-06 0)
(4.83095e-06 2.49863e-06 0)
(4.86727e-06 2.60918e-06 0)
(4.90954e-06 2.71553e-06 0)
(4.62072e-06 1.45976e-06 0)
(4.59954e-06 1.64267e-06 0)
(4.58513e-06 1.8115e-06 0)
(4.57877e-06 1.96479e-06 0)
(4.58119e-06 2.10454e-06 0)
(4.59192e-06 2.23263e-06 0)
(4.61063e-06 2.35134e-06 0)
(4.63643e-06 2.46258e-06 0)
(4.66897e-06 2.56781e-06 0)
(4.70699e-06 2.66884e-06 0)
(4.46201e-06 1.43521e-06 0)
(4.42506e-06 1.61766e-06 0)
(4.3984e-06 1.78304e-06 0)
(4.38238e-06 1.93139e-06 0)
(4.37715e-06 2.0657e-06 0)
(4.38146e-06 2.18814e-06 0)
(4.39453e-06 2.30115e-06 0)
(4.41504e-06 2.40664e-06 0)
(4.44251e-06 2.50616e-06 0)
(4.47522e-06 2.60155e-06 0)
(4.2905e-06 1.3995e-06 0)
(4.23582e-06 1.58108e-06 0)
(4.19493e-06 1.74224e-06 0)
(4.16745e-06 1.88454e-06 0)
(4.15285e-06 2.01231e-06 0)
(4.14918e-06 2.12806e-06 0)
(4.15529e-06 2.23444e-06 0)
(4.1694e-06 2.33338e-06 0)
(4.19092e-06 2.42649e-06 0)
(4.21763e-06 2.51558e-06 0)
(4.10419e-06 1.35298e-06 0)
(4.0301e-06 1.53223e-06 0)
(3.97397e-06 1.68785e-06 0)
(3.9344e-06 1.8227e-06 0)
(3.90988e-06 1.94266e-06 0)
(3.89779e-06 2.05056e-06 0)
(3.89652e-06 2.14932e-06 0)
(3.90391e-06 2.24086e-06 0)
(3.91923e-06 2.32686e-06 0)
(3.93979e-06 2.40903e-06 0)
(3.90285e-06 1.29672e-06 0)
(3.80822e-06 1.47117e-06 0)
(3.73654e-06 1.61964e-06 0)
(3.68489e-06 1.74577e-06 0)
(3.65055e-06 1.85687e-06 0)
(3.63013e-06 1.95599e-06 0)
(3.62161e-06 2.04631e-06 0)
(3.6224e-06 2.12971e-06 0)
(3.63164e-06 2.20797e-06 0)
(3.64625e-06 2.28258e-06 0)
(3.68697e-06 1.23158e-06 0)
(3.57153e-06 1.39791e-06 0)
(3.48462e-06 1.53718e-06 0)
(3.42145e-06 1.65321e-06 0)
(3.37788e-06 1.75441e-06 0)
(3.34974e-06 1.84393e-06 0)
(3.33448e-06 1.92514e-06 0)
(3.32919e-06 1.99981e-06 0)
(3.3328e-06 2.06983e-06 0)
(3.34196e-06 2.13641e-06 0)
(3.4577e-06 1.15877e-06 0)
(3.32215e-06 1.31313e-06 0)
(3.22098e-06 1.44094e-06 0)
(3.14728e-06 1.54548e-06 0)
(3.09545e-06 1.6359e-06 0)
(3.06046e-06 1.71518e-06 0)
(3.03927e-06 1.78679e-06 0)
(3.02866e-06 1.85233e-06 0)
(3.02728e-06 1.91375e-06 0)
(3.03171e-06 1.97189e-06 0)
(3.21647e-06 1.07955e-06 0)
(3.06262e-06 1.21789e-06 0)
(2.94883e-06 1.33191e-06 0)
(2.86602e-06 1.42359e-06 0)
(2.80721e-06 1.50244e-06 0)
(2.76652e-06 1.571e-06 0)
(2.74038e-06 1.6327e-06 0)
(2.72535e-06 1.68893e-06 0)
(2.7197e-06 1.74151e-06 0)
(2.72028e-06 1.7911e-06 0)
(2.96489e-06 9.95364e-07 0)
(2.7956e-06 1.1138e-06 0)
(2.67146e-06 1.2118e-06 0)
(2.58137e-06 1.28942e-06 0)
(2.5171e-06 1.35607e-06 0)
(2.47201e-06 1.41362e-06 0)
(2.44205e-06 1.46535e-06 0)
(2.42361e-06 1.51227e-06 0)
(2.41456e-06 1.55617e-06 0)
(2.41241e-06 1.59666e-06 0)
(4.96005e-06 2.81783e-06 0)
(5.01803e-06 2.91935e-06 0)
(5.08047e-06 3.01925e-06 0)
(5.14684e-06 3.11799e-06 0)
(5.21682e-06 3.21609e-06 0)
(5.28999e-06 3.31382e-06 0)
(5.36607e-06 3.41152e-06 0)
(5.44471e-06 3.50942e-06 0)
(5.52565e-06 3.60773e-06 0)
(5.60863e-06 3.70662e-06 0)
(5.6934e-06 3.80625e-06 0)
(5.77974e-06 3.90673e-06 0)
(5.86744e-06 4.00817e-06 0)
(5.95629e-06 4.11065e-06 0)
(6.04609e-06 4.21424e-06 0)
(6.13663e-06 4.31895e-06 0)
(6.22773e-06 4.42476e-06 0)
(6.31917e-06 4.53161e-06 0)
(6.41081e-06 4.6393e-06 0)
(6.50243e-06 4.7475e-06 0)
(4.75964e-06 2.76727e-06 0)
(4.82476e-06 2.86711e-06 0)
(4.89336e-06 2.96542e-06 0)
(4.9649e-06 3.06276e-06 0)
(5.03927e-06 3.15966e-06 0)
(5.11612e-06 3.25638e-06 0)
(5.19529e-06 3.35326e-06 0)
(5.27652e-06 3.4505e-06 0)
(5.35963e-06 3.54832e-06 0)
(5.44443e-06 3.64688e-06 0)
(5.53073e-06 3.74632e-06 0)
(5.61837e-06 3.84675e-06 0)
(5.70719e-06 3.94829e-06 0)
(5.79704e-06 4.051e-06 0)
(5.88778e-06 4.15494e-06 0)
(5.97925e-06 4.26015e-06 0)
(6.07132e-06 4.36659e-06 0)
(6.16384e-06 4.47419e-06 0)
(6.25668e-06 4.58277e-06 0)
(6.34961e-06 4.69206e-06 0)
(4.53078e-06 2.69708e-06 0)
(4.6051e-06 2.7971e-06 0)
(4.68195e-06 2.89564e-06 0)
(4.76059e-06 2.99317e-06 0)
(4.84122e-06 3.09034e-06 0)
(4.92351e-06 3.18735e-06 0)
(5.00746e-06 3.28459e-06 0)
(5.09286e-06 3.38225e-06 0)
(5.17965e-06 3.48056e-06 0)
(5.26769e-06 3.57968e-06 0)
(5.35689e-06 3.67975e-06 0)
(5.44714e-06 3.7809e-06 0)
(5.53834e-06 3.88323e-06 0)
(5.63039e-06 3.98683e-06 0)
(5.72321e-06 4.09175e-06 0)
(5.8167e-06 4.19803e-06 0)
(5.91077e-06 4.30569e-06 0)
(6.00528e-06 4.4147e-06 0)
(6.10014e-06 4.52495e-06 0)
(6.1951e-06 4.63628e-06 0)
(4.27683e-06 2.60878e-06 0)
(4.3621e-06 2.71042e-06 0)
(4.44894e-06 2.81065e-06 0)
(4.53635e-06 2.90968e-06 0)
(4.62488e-06 3.00834e-06 0)
(4.71415e-06 3.10676e-06 0)
(4.80436e-06 3.20539e-06 0)
(4.89534e-06 3.30442e-06 0)
(4.98715e-06 3.4041e-06 0)
(5.07971e-06 3.5046e-06 0)
(5.173e-06 3.60607e-06 0)
(5.267e-06 3.70866e-06 0)
(5.36165e-06 3.81247e-06 0)
(5.45692e-06 3.9176e-06 0)
(5.55278e-06 4.02414e-06 0)
(5.64917e-06 4.13214e-06 0)
(5.74603e-06 4.24165e-06 0)
(5.84328e-06 4.35271e-06 0)
(5.94084e-06 4.46532e-06 0)
(6.03842e-06 4.57944e-06 0)
(4.00333e-06 2.50068e-06 0)
(4.10083e-06 2.60559e-06 0)
(4.199e-06 2.70917e-06 0)
(4.29643e-06 2.81117e-06 0)
(4.39409e-06 2.91271e-06 0)
(4.49151e-06 3.01379e-06 0)
(4.58911e-06 3.11497e-06 0)
(4.68675e-06 3.21643e-06 0)
(4.7846e-06 3.31846e-06 0)
(4.88264e-06 3.42125e-06 0)
(4.98096e-06 3.52497e-06 0)
(5.07956e-06 3.62977e-06 0)
(5.17848e-06 3.73579e-06 0)
(5.27773e-06 3.84314e-06 0)
(5.37733e-06 3.95194e-06 0)
(5.47727e-06 4.06228e-06 0)
(5.57755e-06 4.17425e-06 0)
(5.67809e-06 4.28796e-06 0)
(5.77886e-06 4.40356e-06 0)
(5.87961e-06 4.52106e-06 0)
(3.71473e-06 2.37342e-06 0)
(3.8254e-06 2.48312e-06 0)
(3.93591e-06 2.59161e-06 0)
(4.04427e-06 2.69797e-06 0)
(4.15198e-06 2.80368e-06 0)
(4.25846e-06 2.90863e-06 0)
(4.36431e-06 3.01347e-06 0)
(4.46945e-06 3.1184e-06 0)
(4.57414e-06 3.22373e-06 0)
(4.67844e-06 3.32969e-06 0)
(4.7825e-06 3.43648e-06 0)
(4.88639e-06 3.54427e-06 0)
(4.99021e-06 3.65322e-06 0)
(5.09402e-06 3.76347e-06 0)
(5.1979e-06 3.87516e-06 0)
(5.30189e-06 3.98843e-06 0)
(5.40603e-06 4.10343e-06 0)
(5.51029e-06 4.22031e-06 0)
(5.61469e-06 4.33936e-06 0)
(5.71904e-06 4.46067e-06 0)
(3.41583e-06 2.22724e-06 0)
(3.54014e-06 2.34327e-06 0)
(3.66359e-06 2.45817e-06 0)
(3.78348e-06 2.57031e-06 0)
(3.90186e-06 2.68144e-06 0)
(4.01802e-06 2.79146e-06 0)
(4.13273e-06 2.90105e-06 0)
(4.24597e-06 3.01046e-06 0)
(4.35808e-06 3.12004e-06 0)
(4.46919e-06 3.23005e-06 0)
(4.5795e-06 3.34073e-06 0)
(4.68917e-06 3.45228e-06 0)
(4.79834e-06 3.56487e-06 0)
(4.90714e-06 3.67869e-06 0)
(5.01568e-06 3.7939e-06 0)
(5.12408e-06 3.91067e-06 0)
(5.2324e-06 4.02921e-06 0)
(5.34069e-06 4.14973e-06 0)
(5.44901e-06 4.27259e-06 0)
(5.55729e-06 4.398e-06 0)
(3.11114e-06 2.06345e-06 0)
(3.24911e-06 2.18726e-06 0)
(3.38565e-06 2.30977e-06 0)
(3.51736e-06 2.42899e-06 0)
(3.64667e-06 2.5467e-06 0)
(3.77289e-06 2.66293e-06 0)
(3.89684e-06 2.77832e-06 0)
(4.01859e-06 2.8932e-06 0)
(4.13852e-06 3.00795e-06 0)
(4.25683e-06 3.12287e-06 0)
(4.37377e-06 3.23822e-06 0)
(4.48957e-06 3.35425e-06 0)
(4.60441e-06 3.47118e-06 0)
(4.71849e-06 3.58918e-06 0)
(4.83196e-06 3.70848e-06 0)
(4.94499e-06 3.82927e-06 0)
(5.0577e-06 3.9518e-06 0)
(5.17023e-06 4.07632e-06 0)
(5.28265e-06 4.20328e-06 0)
(5.39507e-06 4.33292e-06 0)
(2.80524e-06 1.8836e-06 0)
(2.95653e-06 2.0167e-06 0)
(3.1058e-06 2.14776e-06 0)
(3.24939e-06 2.27528e-06 0)
(3.3896e-06 2.4005e-06 0)
(3.52599e-06 2.52385e-06 0)
(3.65928e-06 2.64589e-06 0)
(3.78969e-06 2.76707e-06 0)
(3.9176e-06 2.8878e-06 0)
(4.04328e-06 3.00841e-06 0)
(4.16705e-06 3.1292e-06 0)
(4.28916e-06 3.25045e-06 0)
(4.40985e-06 3.37237e-06 0)
(4.52937e-06 3.49521e-06 0)
(4.64792e-06 3.61918e-06 0)
(4.76571e-06 3.74449e-06 0)
(4.88294e-06 3.87144e-06 0)
(4.99979e-06 4.0003e-06 0)
(5.11642e-06 4.13156e-06 0)
(5.23309e-06 4.26549e-06 0)
(2.50173e-06 1.69046e-06 0)
(2.66564e-06 1.83379e-06 0)
(2.8263e-06 1.97367e-06 0)
(2.98149e-06 2.11036e-06 0)
(3.13239e-06 2.2441e-06 0)
(3.27899e-06 2.37554e-06 0)
(3.42177e-06 2.50516e-06 0)
(3.561e-06 2.63348e-06 0)
(3.69707e-06 2.76093e-06 0)
(3.8303e-06 2.88791e-06 0)
(3.96102e-06 3.01478e-06 0)
(4.08955e-06 3.14182e-06 0)
(4.21618e-06 3.2693e-06 0)
(4.3412e-06 3.39748e-06 0)
(4.46487e-06 3.52657e-06 0)
(4.58745e-06 3.65684e-06 0)
(4.70919e-06 3.78855e-06 0)
(4.83037e-06 3.922e-06 0)
(4.95118e-06 4.05769e-06 0)
(5.07209e-06 4.1959e-06 0)
(2.26765e-06 1.54569e-06 0)
(2.43855e-06 1.69646e-06 0)
(2.60518e-06 1.84132e-06 0)
(2.76665e-06 1.98323e-06 0)
(2.92361e-06 2.12218e-06 0)
(3.07609e-06 2.25877e-06 0)
(3.22449e-06 2.39346e-06 0)
(3.36904e-06 2.52668e-06 0)
(3.51011e-06 2.65886e-06 0)
(3.648e-06 2.79036e-06 0)
(3.78304e-06 2.92151e-06 0)
(3.91555e-06 3.0526e-06 0)
(4.04584e-06 3.18389e-06 0)
(4.17421e-06 3.31561e-06 0)
(4.30094e-06 3.44799e-06 0)
(4.42634e-06 3.58125e-06 0)
(4.55068e-06 3.71566e-06 0)
(4.67432e-06 3.85148e-06 0)
(4.79746e-06 3.98914e-06 0)
(4.92074e-06 4.1289e-06 0)
(2.11148e-06 1.45916e-06 0)
(2.28238e-06 1.6099e-06 0)
(2.44905e-06 1.75593e-06 0)
(2.61104e-06 1.89943e-06 0)
(2.76879e-06 2.04035e-06 0)
(2.92226e-06 2.1791e-06 0)
(3.07179e-06 2.31605e-06 0)
(3.21754e-06 2.45155e-06 0)
(3.35983e-06 2.58594e-06 0)
(3.4989e-06 2.71954e-06 0)
(3.63507e-06 2.85262e-06 0)
(3.76861e-06 2.98545e-06 0)
(3.89982e-06 3.11825e-06 0)
(4.02901e-06 3.25124e-06 0)
(4.15644e-06 3.3846e-06 0)
(4.28244e-06 3.51854e-06 0)
(4.40727e-06 3.65327e-06 0)
(4.53134e-06 3.78903e-06 0)
(4.65486e-06 3.92614e-06 0)
(4.77857e-06 4.06479e-06 0)
(1.97367e-06 1.3761e-06 0)
(2.14147e-06 1.52638e-06 0)
(2.30642e-06 1.67281e-06 0)
(2.46714e-06 1.81727e-06 0)
(2.62424e-06 1.9596e-06 0)
(2.77741e-06 2.10006e-06 0)
(2.92695e-06 2.23892e-06 0)
(3.07291e-06 2.37642e-06 0)
(3.21554e-06 2.51283e-06 0)
(3.35505e-06 2.64838e-06 0)
(3.4917e-06 2.78332e-06 0)
(3.62573e-06 2.91784e-06 0)
(3.75742e-06 3.05213e-06 0)
(3.88704e-06 3.18637e-06 0)
(4.01487e-06 3.32072e-06 0)
(4.14121e-06 3.45533e-06 0)
(4.26636e-06 3.59036e-06 0)
(4.3907e-06 3.72599e-06 0)
(4.51449e-06 3.86242e-06 0)
(4.6385e-06 3.99979e-06 0)
(1.85018e-06 1.29614e-06 0)
(2.01394e-06 1.44518e-06 0)
(2.17591e-06 1.59146e-06 0)
(2.33422e-06 1.73648e-06 0)
(2.48953e-06 1.87988e-06 0)
(2.64135e-06 2.02178e-06 0)
(2.78993e-06 2.16231e-06 0)
(2.93522e-06 2.30162e-06 0)
(3.07742e-06 2.43989e-06 0)
(3.21668e-06 2.57728e-06 0)
(3.3532e-06 2.71397e-06 0)
(3.48721e-06 2.85011e-06 0)
(3.61893e-06 2.98584e-06 0)
(3.74862e-06 3.12129e-06 0)
(3.87654e-06 3.25658e-06 0)
(4.00299e-06 3.39182e-06 0)
(4.12824e-06 3.5271e-06 0)
(4.25269e-06 3.66256e-06 0)
(4.37662e-06 3.79827e-06 0)
(4.50078e-06 3.93425e-06 0)
(1.73959e-06 1.2201e-06 0)
(1.89841e-06 1.36746e-06 0)
(2.05639e-06 1.51312e-06 0)
(2.21131e-06 1.6582e-06 0)
(2.3639e-06 1.80222e-06 0)
(2.51349e-06 1.94515e-06 0)
(2.66028e-06 2.08702e-06 0)
(2.80415e-06 2.22785e-06 0)
(2.94525e-06 2.36773e-06 0)
(3.08364e-06 2.50676e-06 0)
(3.2195e-06 2.64505e-06 0)
(3.353e-06 2.78267e-06 0)
(3.48435e-06 2.91974e-06 0)
(3.61377e-06 3.05632e-06 0)
(3.7415e-06 3.1925e-06 0)
(3.86781e-06 3.32832e-06 0)
(3.99298e-06 3.46382e-06 0)
(4.11731e-06 3.59906e-06 0)
(4.24133e-06 3.73392e-06 0)
(4.36559e-06 3.86847e-06 0)
(1.63977e-06 1.14794e-06 0)
(1.79316e-06 1.2932e-06 0)
(1.94648e-06 1.43782e-06 0)
(2.09735e-06 1.58258e-06 0)
(2.2465e-06 1.72685e-06 0)
(2.39316e-06 1.87049e-06 0)
(2.53749e-06 2.01338e-06 0)
(2.67931e-06 2.15546e-06 0)
(2.8187e-06 2.29673e-06 0)
(2.95569e-06 2.43719e-06 0)
(3.09041e-06 2.57689e-06 0)
(3.223e-06 2.71586e-06 0)
(3.35361e-06 2.85413e-06 0)
(3.48245e-06 2.99175e-06 0)
(3.60973e-06 3.12872e-06 0)
(3.7357e-06 3.26505e-06 0)
(3.8606e-06 3.40072e-06 0)
(3.98482e-06 3.53565e-06 0)
(4.10857e-06 3.66973e-06 0)
(4.2326e-06 3.80292e-06 0)
(1.54899e-06 1.07971e-06 0)
(1.69664e-06 1.22263e-06 0)
(1.84483e-06 1.36591e-06 0)
(1.99116e-06 1.51e-06 0)
(2.13632e-06 1.65419e-06 0)
(2.27951e-06 1.79821e-06 0)
(2.42085e-06 1.94182e-06 0)
(2.5601e-06 2.08487e-06 0)
(2.6973e-06 2.22726e-06 0)
(2.83244e-06 2.36893e-06 0)
(2.96561e-06 2.50984e-06 0)
(3.0969e-06 2.64997e-06 0)
(3.22646e-06 2.7893e-06 0)
(3.35445e-06 2.92782e-06 0)
(3.48104e-06 3.06549e-06 0)
(3.60648e-06 3.20226e-06 0)
(3.73096e-06 3.33804e-06 0)
(3.85484e-06 3.47272e-06 0)
(3.9783e-06 3.60603e-06 0)
(4.10203e-06 3.73787e-06 0)
(1.46554e-06 1.01524e-06 0)
(1.6073e-06 1.15565e-06 0)
(1.75009e-06 1.29738e-06 0)
(1.89155e-06 1.44056e-06 0)
(2.03234e-06 1.58438e-06 0)
(2.17166e-06 1.7285e-06 0)
(2.30958e-06 1.87256e-06 0)
(2.44584e-06 2.01632e-06 0)
(2.58045e-06 2.15959e-06 0)
(2.71336e-06 2.30223e-06 0)
(2.84464e-06 2.44415e-06 0)
(2.97433e-06 2.58526e-06 0)
(3.10256e-06 2.72549e-06 0)
(3.22945e-06 2.86478e-06 0)
(3.35516e-06 3.00304e-06 0)
(3.47989e-06 3.14016e-06 0)
(3.6038e-06 3.27601e-06 0)
(3.72722e-06 3.41041e-06 0)
(3.85029e-06 3.54302e-06 0)
(3.97361e-06 3.67366e-06 0)
(1.3879e-06 9.54322e-07 0)
(1.52372e-06 1.0922e-06 0)
(1.66094e-06 1.23223e-06 0)
(1.79732e-06 1.37431e-06 0)
(1.93347e-06 1.51757e-06 0)
(2.06861e-06 1.66155e-06 0)
(2.2028e-06 1.80581e-06 0)
(2.33575e-06 1.95003e-06 0)
(2.46746e-06 2.09394e-06 0)
(2.59785e-06 2.23734e-06 0)
(2.72695e-06 2.38005e-06 0)
(2.8548e-06 2.52195e-06 0)
(2.98147e-06 2.66291e-06 0)
(3.10707e-06 2.80281e-06 0)
(3.23172e-06 2.94154e-06 0)
(3.35559e-06 3.07894e-06 0)
(3.47881e-06 3.21483e-06 0)
(3.60166e-06 3.34897e-06 0)
(3.72424e-06 3.48095e-06 0)
(3.84706e-06 3.61055e-06 0)
(1.31467e-06 8.96733e-07 0)
(1.44455e-06 1.0321e-06 0)
(1.57612e-06 1.17038e-06 0)
(1.70728e-06 1.31124e-06 0)
(1.83861e-06 1.45377e-06 0)
(1.96937e-06 1.59742e-06 0)
(2.09959e-06 1.74168e-06 0)
(2.22901e-06 1.88614e-06 0)
(2.35758e-06 2.03047e-06 0)
(2.48522e-06 2.1744e-06 0)
(2.61193e-06 2.31771e-06 0)
(2.73772e-06 2.4602e-06 0)
(2.86266e-06 2.60171e-06 0)
(2.9868e-06 2.74209e-06 0)
(3.11026e-06 2.88116e-06 0)
(3.23315e-06 3.01876e-06 0)
(3.35559e-06 3.15464e-06 0)
(3.47778e-06 3.28854e-06 0)
(3.5998e-06 3.42001e-06 0)
(3.72202e-06 3.54878e-06 0)
(1.24455e-06 8.42239e-07 0)
(1.36852e-06 9.75199e-07 0)
(1.4944e-06 1.11173e-06 0)
(1.62027e-06 1.2513e-06 0)
(1.74666e-06 1.39298e-06 0)
(1.87289e-06 1.53615e-06 0)
(1.999e-06 1.68023e-06 0)
(2.12471e-06 1.82474e-06 0)
(2.24998e-06 1.96928e-06 0)
(2.37471e-06 2.11355e-06 0)
(2.49887e-06 2.25725e-06 0)
(2.62247e-06 2.40015e-06 0)
(2.74553e-06 2.54204e-06 0)
(2.86811e-06 2.68273e-06 0)
(2.99026e-06 2.82203e-06 0)
(3.11209e-06 2.95973e-06 0)
(3.23367e-06 3.09557e-06 0)
(3.35513e-06 3.22927e-06 0)
(3.47653e-06 3.36035e-06 0)
(3.5981e-06 3.48852e-06 0)
(1.17635e-06 7.90649e-07 0)
(1.29443e-06 9.21337e-07 0)
(1.4146e-06 1.05615e-06 0)
(1.53512e-06 1.19443e-06 0)
(1.65651e-06 1.33518e-06 0)
(1.77814e-06 1.47775e-06 0)
(1.90004e-06 1.62149e-06 0)
(2.02194e-06 1.76587e-06 0)
(2.1438e-06 1.91045e-06 0)
(2.26551e-06 2.05485e-06 0)
(2.38704e-06 2.19875e-06 0)
(2.50835e-06 2.34187e-06 0)
(2.62946e-06 2.48397e-06 0)
(2.75039e-06 2.62483e-06 0)
(2.87117e-06 2.76423e-06 0)
(2.99187e-06 2.90195e-06 0)
(3.11253e-06 3.03772e-06 0)
(3.23323e-06 3.17125e-06 0)
(3.35398e-06 3.30206e-06 0)
(3.47486e-06 3.42987e-06 0)
(1.1089e-06 7.41781e-07 0)
(1.22109e-06 8.70366e-07 0)
(1.33553e-06 1.00354e-06 0)
(1.45069e-06 1.14052e-06 0)
(1.56704e-06 1.2803e-06 0)
(1.68403e-06 1.42217e-06 0)
(1.80167e-06 1.56544e-06 0)
(1.91972e-06 1.70954e-06 0)
(2.03813e-06 1.85398e-06 0)
(2.15679e-06 1.99833e-06 0)
(2.27563e-06 2.14225e-06 0)
(2.39463e-06 2.28542e-06 0)
(2.51375e-06 2.42757e-06 0)
(2.633e-06 2.56845e-06 0)
(2.75239e-06 2.70783e-06 0)
(2.87194e-06 2.84548e-06 0)
(2.99166e-06 2.98113e-06 0)
(3.11158e-06 3.11452e-06 0)
(3.23165e-06 3.24519e-06 0)
(3.35186e-06 3.37289e-06 0)
(1.04104e-06 6.95565e-07 0)
(1.14731e-06 8.22217e-07 0)
(1.25601e-06 9.5383e-07 0)
(1.3658e-06 1.08953e-06 0)
(1.47711e-06 1.22829e-06 0)
(1.58945e-06 1.36938e-06 0)
(1.70284e-06 1.51206e-06 0)
(1.81706e-06 1.65573e-06 0)
(1.93205e-06 1.79985e-06 0)
(2.04767e-06 1.944e-06 0)
(2.16386e-06 2.08776e-06 0)
(2.28055e-06 2.2308e-06 0)
(2.39772e-06 2.37284e-06 0)
(2.51531e-06 2.5136e-06 0)
(2.63332e-06 2.65284e-06 0)
(2.75173e-06 2.79033e-06 0)
(2.87052e-06 2.92582e-06 0)
(2.98966e-06 3.05907e-06 0)
(3.10908e-06 3.18971e-06 0)
(3.22863e-06 3.31752e-06 0)
(9.71581e-07 6.51869e-07 0)
(1.07187e-06 7.76758e-07 0)
(1.1748e-06 9.06889e-07 0)
(1.27921e-06 1.04133e-06 0)
(1.3855e-06 1.17904e-06 0)
(1.49325e-06 1.31927e-06 0)
(1.60246e-06 1.46124e-06 0)
(1.71292e-06 1.60433e-06 0)
(1.82456e-06 1.748e-06 0)
(1.93724e-06 1.89176e-06 0)
(2.05087e-06 2.03521e-06 0)
(2.16536e-06 2.17797e-06 0)
(2.28064e-06 2.31974e-06 0)
(2.39666e-06 2.46025e-06 0)
(2.51336e-06 2.59923e-06 0)
(2.63068e-06 2.73648e-06 0)
(2.74859e-06 2.87176e-06 0)
(2.86699e-06 3.00488e-06 0)
(2.9858e-06 3.13556e-06 0)
(3.10475e-06 3.26366e-06 0)
(8.99295e-07 6.10839e-07 0)
(9.93519e-07 7.34086e-07 0)
(1.09063e-06 8.62773e-07 0)
(1.18968e-06 9.95936e-07 0)
(1.29101e-06 1.13254e-06 0)
(1.39425e-06 1.27179e-06 0)
(1.4994e-06 1.41292e-06 0)
(1.60624e-06 1.5553e-06 0)
(1.71469e-06 1.69834e-06 0)
(1.82458e-06 1.84155e-06 0)
(1.93582e-06 1.98451e-06 0)
(2.04827e-06 2.12684e-06 0)
(2.16184e-06 2.2682e-06 0)
(2.27643e-06 2.40832e-06 0)
(2.39195e-06 2.54695e-06 0)
(2.5083e-06 2.68386e-06 0)
(2.62542e-06 2.81888e-06 0)
(2.74316e-06 2.95185e-06 0)
(2.86141e-06 3.0826e-06 0)
(2.97986e-06 3.21112e-06 0)
(8.22748e-07 5.72256e-07 0)
(9.10793e-07 6.93962e-07 0)
(1.00205e-06 8.21231e-07 0)
(1.09579e-06 9.53093e-07 0)
(1.19226e-06 1.08851e-06 0)
(1.29115e-06 1.22669e-06 0)
(1.39242e-06 1.36686e-06 0)
(1.49587e-06 1.50837e-06 0)
(1.60137e-06 1.65064e-06 0)
(1.70874e-06 1.79316e-06 0)
(1.81784e-06 1.93548e-06 0)
(1.92851e-06 2.07723e-06 0)
(2.04061e-06 2.21807e-06 0)
(2.15401e-06 2.35769e-06 0)
(2.26856e-06 2.49586e-06 0)
(2.38413e-06 2.63237e-06 0)
(2.50061e-06 2.76706e-06 0)
(2.61783e-06 2.89984e-06 0)
(2.73562e-06 3.03067e-06 0)
(2.85367e-06 3.15964e-06 0)
(7.40525e-07 5.3673e-07 0)
(8.22272e-07 6.56858e-07 0)
(9.07674e-07 7.82609e-07 0)
(9.96185e-07 9.13036e-07 0)
(1.08796e-06 1.04711e-06 0)
(1.18272e-06 1.18404e-06 0)
(1.28038e-06 1.32305e-06 0)
(1.38073e-06 1.4635e-06 0)
(1.4836e-06 1.60479e-06 0)
(1.58879e-06 1.74642e-06 0)
(1.69611e-06 1.88794e-06 0)
(1.80535e-06 2.02896e-06 0)
(1.91633e-06 2.16912e-06 0)
(2.02886e-06 2.30815e-06 0)
(2.14275e-06 2.44578e-06 0)
(2.25783e-06 2.58182e-06 0)
(2.37391e-06 2.71614e-06 0)
(2.49079e-06 2.84869e-06 0)
(2.60828e-06 2.97953e-06 0)
(2.72607e-06 3.10891e-06 0)
(6.50552e-07 5.03407e-07 0)
(7.25917e-07 6.21934e-07 0)
(8.0552e-07 7.46094e-07 0)
(8.88974e-07 8.74987e-07 0)
(9.76318e-07 1.00759e-06 0)
(1.06729e-06 1.14314e-06 0)
(1.16174e-06 1.28085e-06 0)
(1.25942e-06 1.4201e-06 0)
(1.36012e-06 1.56028e-06 0)
(1.4636e-06 1.70089e-06 0)
(1.56961e-06 1.84147e-06 0)
(1.67791e-06 1.98165e-06 0)
(1.78825e-06 2.12106e-06 0)
(1.90039e-06 2.25941e-06 0)
(2.01409e-06 2.39645e-06 0)
(2.1291e-06 2.53199e-06 0)
(2.24516e-06 2.6659e-06 0)
(2.36203e-06 2.79817e-06 0)
(2.47946e-06 2.92895e-06 0)
(2.59713e-06 3.05861e-06 0)
(5.51656e-07 4.74245e-07 0)
(6.20595e-07 5.90789e-07 0)
(6.94535e-07 7.12968e-07 0)
(7.73172e-07 8.39939e-07 0)
(8.56431e-07 9.70706e-07 0)
(9.44019e-07 1.10451e-06 0)
(1.03572e-06 1.24059e-06 0)
(1.13124e-06 1.37831e-06 0)
(1.2303e-06 1.51709e-06 0)
(1.33261e-06 1.65642e-06 0)
(1.43787e-06 1.79585e-06 0)
(1.54578e-06 1.93498e-06 0)
(1.65605e-06 2.07348e-06 0)
(1.76836e-06 2.21104e-06 0)
(1.88242e-06 2.34741e-06 0)
(1.99789e-06 2.48241e-06 0)
(2.11446e-06 2.61593e-06 0)
(2.23176e-06 2.74794e-06 0)
(2.34948e-06 2.87861e-06 0)
(2.46723e-06 3.00834e-06 0)
(7.91232e-08 8.65974e-09 0)
(2.3897e-07 5.28895e-08 0)
(4.08812e-07 1.35056e-07 0)
(5.90821e-07 2.4971e-07 0)
(7.88514e-07 3.93779e-07 0)
(1.00302e-06 5.62176e-07 0)
(1.23522e-06 7.4945e-07 0)
(1.48475e-06 9.49881e-07 0)
(1.75089e-06 1.15768e-06 0)
(2.03224e-06 1.36809e-06 0)
(7.45355e-08 7.76245e-09 0)
(2.2528e-07 4.75561e-08 0)
(3.85047e-07 1.22209e-07 0)
(5.55513e-07 2.27302e-07 0)
(7.39883e-07 3.60521e-07 0)
(9.39193e-07 5.1759e-07 0)
(1.15435e-06 6.9378e-07 0)
(1.38501e-06 8.84051e-07 0)
(1.63034e-06 1.08284e-06 0)
(1.88888e-06 1.28639e-06 0)
(7.04116e-08 6.70215e-09 0)
(2.12997e-07 4.21555e-08 0)
(3.63845e-07 1.09782e-07 0)
(5.24077e-07 2.05951e-07 0)
(6.96544e-07 3.28926e-07 0)
(8.82121e-07 4.75083e-07 0)
(1.08177e-06 6.40305e-07 0)
(1.29537e-06 8.20257e-07 0)
(1.52262e-06 1.0099e-06 0)
(1.76194e-06 1.20655e-06 0)
(6.66377e-08 5.46975e-09 0)
(2.01806e-07 3.67286e-08 0)
(3.4476e-07 9.80082e-08 0)
(4.96113e-07 1.86242e-07 0)
(6.58408e-07 3.00118e-07 0)
(8.32286e-07 4.36513e-07 0)
(1.01864e-06 5.91751e-07 0)
(1.21724e-06 7.6196e-07 0)
(1.42814e-06 9.42366e-07 0)
(1.64943e-06 1.13065e-06 0)
(6.31094e-08 4.05344e-09 0)
(1.9136e-07 3.10877e-08 0)
(3.27068e-07 8.63468e-08 0)
(4.70375e-07 1.67186e-07 0)
(6.2356e-07 2.72608e-07 0)
(7.87046e-07 3.9989e-07 0)
(9.61718e-07 5.45744e-07 0)
(1.14723e-06 7.06738e-07 0)
(1.34401e-06 8.78504e-07 0)
(1.54954e-06 1.05869e-06 0)
(5.97977e-08 2.47683e-09 0)
(1.8157e-07 2.52695e-08 0)
(3.10606e-07 7.48599e-08 0)
(4.46622e-07 1.48912e-07 0)
(5.91666e-07 2.46655e-07 0)
(7.45926e-07 3.65653e-07 0)
(9.1025e-07 5.02906e-07 0)
(1.08412e-06 6.55255e-07 0)
(1.26832e-06 8.18727e-07 0)
(1.45991e-06 9.90804e-07 0)
(5.6636e-08 7.32328e-10 0)
(1.72231e-07 1.91901e-08 0)
(2.94979e-07 6.33041e-08 0)
(4.2422e-07 1.30969e-07 0)
(5.61812e-07 2.21578e-07 0)
(7.07736e-07 3.32921e-07 0)
(8.62818e-07 4.62251e-07 0)
(1.02638e-06 6.06614e-07 0)
(1.19943e-06 7.62422e-07 0)
(1.37876e-06 9.26883e-07 0)
(5.35993e-08 -1.1575e-09 0)
(1.63263e-07 1.28754e-08 0)
(2.80037e-07 5.16875e-08 0)
(4.02919e-07 1.13342e-07 0)
(5.33605e-07 1.97349e-07 0)
(6.71886e-07 3.01654e-07 0)
(8.18562e-07 4.23702e-07 0)
(9.72833e-07 5.60673e-07 0)
(1.13587e-06 7.09336e-07 0)
(1.30434e-06 8.66673e-07 0)
(5.06487e-08 -3.19355e-09 0)
(1.54551e-07 6.29178e-09 0)
(2.65564e-07 3.99015e-08 0)
(3.82377e-07 9.58261e-08 0)
(5.06551e-07 1.73656e-07 0)
(6.37719e-07 2.71446e-07 0)
(7.76649e-07 3.86802e-07 0)
(9.22466e-07 5.16992e-07 0)
(1.0764e-06 6.59085e-07 0)
(1.23517e-06 8.09887e-07 0)
(4.77624e-08 -5.36191e-09 0)
(1.46027e-07 -5.48703e-10 0)
(2.51434e-07 2.79354e-08 0)
(3.62387e-07 7.83781e-08 0)
(4.80325e-07 1.50415e-07 0)
(6.04752e-07 2.42169e-07 0)
(7.36408e-07 3.51365e-07 0)
(8.74391e-07 4.75331e-07 0)
(1.01993e-06 6.11381e-07 0)
(1.16991e-06 7.56223e-07 0)
(4.49169e-08 -7.66145e-09 0)
(1.37624e-07 -7.6617e-09 0)
(2.37522e-07 1.57363e-08 0)
(3.42739e-07 6.08992e-08 0)
(4.54609e-07 1.27475e-07 0)
(5.72539e-07 2.13624e-07 0)
(6.9724e-07 3.17152e-07 0)
(8.2783e-07 4.35428e-07 0)
(9.65494e-07 5.65954e-07 0)
(1.10736e-06 7.05403e-07 0)
(4.2097e-08 -1.0088e-08 0)
(1.293e-07 -1.5048e-08 0)
(2.2374e-07 3.28914e-09 0)
(3.2328e-07 4.33605e-08 0)
(4.2915e-07 1.04787e-07 0)
(5.40697e-07 1.85732e-07 0)
(6.58611e-07 2.84045e-07 0)
(7.82072e-07 3.97124e-07 0)
(9.12204e-07 5.22615e-07 0)
(1.04641e-06 6.57205e-07 0)
(3.92933e-08 -1.26476e-08 0)
(1.21036e-07 -2.27308e-08 0)
(2.10033e-07 -9.44654e-09 0)
(3.03884e-07 2.5709e-08 0)
(4.03722e-07 8.22816e-08 0)
(5.08873e-07 1.58403e-07 0)
(6.20021e-07 2.51931e-07 0)
(7.3645e-07 3.60281e-07 0)
(8.59211e-07 4.812e-07 0)
(9.86023e-07 6.11431e-07 0)
(3.65054e-08 -1.53616e-08 0)
(1.12843e-07 -3.07361e-08 0)
(1.96382e-07 -2.24833e-08 0)
(2.84464e-07 7.96116e-09 0)
(3.78129e-07 5.99924e-08 0)
(4.76738e-07 1.31673e-07 0)
(5.80991e-07 2.20831e-07 0)
(6.90312e-07 3.24893e-07 0)
(8.05691e-07 4.4168e-07 0)
(9.25174e-07 5.68015e-07 0)
(3.37579e-08 -1.82701e-08 0)
(1.04821e-07 -3.91339e-08 0)
(1.82859e-07 -3.58843e-08 0)
(2.64999e-07 -9.92532e-09 0)
(3.52212e-07 3.78962e-08 0)
(4.43968e-07 1.05522e-07 0)
(5.41022e-07 1.90716e-07 0)
(6.42976e-07 2.90908e-07 0)
(7.50772e-07 4.03975e-07 0)
(8.62795e-07 5.2684e-07 0)
(3.11039e-08 -2.15075e-08 0)
(9.71329e-08 -4.8024e-08 0)
(1.69585e-07 -4.96257e-08 0)
(2.45493e-07 -2.77902e-08 0)
(3.25814e-07 1.62411e-08 0)
(4.10227e-07 8.02382e-08 0)
(4.99597e-07 1.6188e-07 0)
(5.93736e-07 2.586e-07 0)
(6.93557e-07 3.68326e-07 0)
(7.97793e-07 4.88097e-07 0)
(2.87393e-08 -2.52352e-08 0)
(9.02856e-08 -5.76072e-08 0)
(1.56979e-07 -6.38391e-08 0)
(2.26123e-07 -4.57238e-08 0)
(2.98829e-07 -5.02702e-09 0)
(3.7514e-07 5.57704e-08 0)
(4.56086e-07 1.34254e-07 0)
(5.41727e-07 2.2787e-07 0)
(6.32959e-07 3.34596e-07 0)
(7.28863e-07 4.51603e-07 0)
(2.70811e-08 -3.01412e-08 0)
(8.48662e-08 -6.81918e-08 0)
(1.45445e-07 -7.82399e-08 0)
(2.06977e-07 -6.30141e-08 0)
(2.71069e-07 -2.49987e-08 0)
(3.38251e-07 3.30998e-08 0)
(4.09808e-07 1.0881e-07 0)
(4.86053e-07 1.99636e-07 0)
(5.67881e-07 3.03622e-07 0)
(6.5471e-07 4.18099e-07 0)
(2.81581e-08 -3.67382e-08 0)
(8.306e-08 -8.01593e-08 0)
(1.36374e-07 -9.30972e-08 0)
(1.8854e-07 -8.00636e-08 0)
(2.42315e-07 -4.41613e-08 0)
(2.98835e-07 1.16402e-08 0)
(3.59652e-07 8.48832e-08 0)
(4.25285e-07 1.7316e-07 0)
(4.9663e-07 2.74614e-07 0)
(5.73379e-07 3.86738e-07 0)
(3.62697e-08 -4.8665e-08 0)
(8.62377e-08 -9.37859e-08 0)
(1.3042e-07 -1.06531e-07 0)
(1.70742e-07 -9.39563e-08 0)
(2.12234e-07 -5.94142e-08 0)
(2.56336e-07 -5.53475e-09 0)
(3.04913e-07 6.53967e-08 0)
(3.58574e-07 1.51184e-07 0)
(4.18236e-07 2.50091e-07 0)
(4.83748e-07 3.59805e-07 0)
)
;

boundaryField
{
    left
    {
        type            fixedDisplacement;
        value           uniform (0 0 0);
    }
    right
    {
        type            solidTraction;
        tractionSeries  
{
        file            "$FOAM_CASE/constant/timeVsTraction";
        outOfBounds     clamp;
}
        pressure        uniform 0;
        secondOrder     false;
        setEffectiveTraction false;
        relaxationFactor 1;
        value           nonuniform List<vector> 
30
(
(6.54806e-06 4.80148e-06 2.06355e-21)
(6.39551e-06 4.74659e-06 2.07111e-21)
(6.2416e-06 4.69208e-06 2.11477e-21)
(6.08591e-06 4.63695e-06 2.20106e-21)
(5.92844e-06 4.58056e-06 2.32737e-21)
(5.76954e-06 4.52235e-06 2.49023e-21)
(5.60978e-06 4.46196e-06 2.68367e-21)
(5.44983e-06 4.3992e-06 2.90137e-21)
(5.29037e-06 4.33407e-06 3.13624e-21)
(5.13212e-06 4.26675e-06 3.38023e-21)
(4.98242e-06 4.2005e-06 3.55213e-21)
(4.84048e-06 4.13537e-06 3.62388e-21)
(4.70056e-06 4.06926e-06 3.67299e-21)
(4.56293e-06 4.00249e-06 3.70034e-21)
(4.42774e-06 3.93554e-06 3.70174e-21)
(4.29467e-06 3.86883e-06 3.67886e-21)
(4.16395e-06 3.80264e-06 3.63549e-21)
(4.03533e-06 3.73742e-06 3.5716e-21)
(3.90851e-06 3.67347e-06 3.49092e-21)
(3.78317e-06 3.61104e-06 3.3967e-21)
(3.65891e-06 3.55034e-06 3.29315e-21)
(3.53532e-06 3.49147e-06 3.18462e-21)
(3.41197e-06 3.43449e-06 3.07606e-21)
(3.2884e-06 3.37934e-06 2.97241e-21)
(3.16422e-06 3.3259e-06 2.87868e-21)
(3.03907e-06 3.27394e-06 2.79923e-21)
(2.91269e-06 3.22314e-06 2.73923e-21)