/*--------------------------------*- C++ -*----------------------------------*\
  =========                 |
  \\      /  F ield         | OpenFOAM: The Open Source CFD Toolbox
   \\    /   O peration     | Website:  https://openfoam.org
    \\  /    A nd           | Version:  9
     \\/     M anipulation  |
\*---------------------------------------------------------------------------*/
FoamFile
{
    format      ascii;
    class       volScalarField;
    location    "5";
    object      epsilonEq;
}
// * * * * * * * * * * * * * * * * * * * * * * * * * * * * * * * * * * * * * //

dimensions      [0 0 0 0 0 0 0];

internalField   nonuniform List<scalar> 
1000
(
3.40633e-06
3.23408e-06
3.18456e-06
3.20855e-06
3.21155e-06
3.20455e-06
3.18205e-06
3.14793e-06
3.10985e-06
3.06242e-06
3.97137e-06
3.60552e-06
3.42809e-06
3.37294e-06
3.3237e-06
3.28167e-06
3.23294e-06
3.18131e-06
3.12288e-06
3.07132e-06
4.52373e-06
3.96318e-06
3.64838e-06
3.50317e-06
3.39314e-06
3.30956e-06
3.23011e-06
3.15644e-06
3.07903e-06
3.01712e-06
5.05215e-06
4.30254e-06
3.84618e-06
3.6024e-06
3.42407e-06
3.29364e-06
3.18037e-06
3.08322e-06
2.98742e-06
2.91457e-06
5.54002e-06
4.61557e-06
4.0176e-06
3.66973e-06
3.41711e-06
3.23537e-06
3.08585e-06
2.96383e-06
2.85084e-06
2.76646e-06
5.98987e-06
4.89984e-06
4.16018e-06
3.70495e-06
3.37397e-06
3.13834e-06
2.95158e-06
2.80459e-06
2.67548e-06
2.57923e-06
6.37624e-06
5.13648e-06
4.25368e-06
3.69293e-06
3.28644e-06
3.00043e-06
2.78021e-06
2.6113e-06
2.46939e-06
2.36237e-06
6.7387e-06
5.31528e-06
4.28031e-06
3.62489e-06
3.15444e-06
2.8295e-06
2.58569e-06
2.40253e-06
2.25399e-06
2.13962e-06
6.98827e-06
5.33152e-06
4.14564e-06
3.43429e-06
2.94777e-06
2.61807e-06
2.37568e-06
2.19405e-06
2.04908e-06
1.93308e-06
7.19998e-06
5.0246e-06
3.82822e-06
3.16164e-06
2.74004e-06
2.44785e-06
2.23252e-06
2.06472e-06
1.92888e-06
1.81342e-06
1.12155e-08
2.52137e-08
1.22086e-07
2.548e-07
4.00302e-07
5.50472e-07
6.96324e-07
8.3531e-07
9.62938e-07
1.0812e-06
3.02721e-08
1.69251e-07
3.63407e-07
5.54444e-07
7.23882e-07
8.74372e-07
1.00566e-06
1.12307e-06
1.22383e-06
1.3185e-06
1.38882e-07
4.05292e-07
6.50123e-07
8.71791e-07
1.05661e-06
1.21018e-06
1.33496e-06
1.43962e-06
1.52156e-06
1.59908e-06
3.22109e-07
6.93811e-07
9.69827e-07
1.20362e-06
1.38975e-06
1.539e-06
1.65494e-06
1.74777e-06
1.81425e-06
1.8782e-06
5.82422e-07
1.0189e-06
1.313e-06
1.54865e-06
1.72611e-06
1.8635e-06
1.96575e-06
2.04397e-06
2.09458e-06
2.14472e-06
9.18762e-07
1.36492e-06
1.65936e-06
1.88828e-06
2.0508e-06
2.17161e-06
2.25693e-06
2.31842e-06
2.35282e-06
2.3884e-06
1.32425e-06
1.72606e-06
1.99949e-06
2.21236e-06
2.35491e-06
2.45594e-06
2.52223e-06
2.56558e-06
2.58364e-06
2.6038e-06
1.78915e-06
2.09736e-06
2.32521e-06
2.51064e-06
2.62805e-06
2.70669e-06
2.75295e-06
2.77755e-06
2.78065e-06
2.78449e-06
2.30054e-06
2.47529e-06
2.63276e-06
2.77802e-06
2.86432e-06
2.91787e-06
2.94276e-06
2.9486e-06
2.93748e-06
2.92725e-06
2.84469e-06
2.85577e-06
2.91947e-06
3.01062e-06
3.05869e-06
3.08328e-06
3.08524e-06
3.07052e-06
3.0499e-06
3.01737e-06
1.18771e-06
1.27929e-06
1.36422e-06
1.44102e-06
1.51047e-06
1.57295e-06
1.62905e-06
1.67919e-06
1.72386e-06
1.76341e-06
1.79819e-06
1.82845e-06
1.85438e-06
1.87612e-06
1.89371e-06
1.90725e-06
1.91668e-06
1.92233e-06
1.9241e-06
1.92296e-06
1.39171e-06
1.44504e-06
1.49888e-06
1.54892e-06
1.59587e-06
1.63951e-06
1.67985e-06
1.71687e-06
1.75069e-06
1.78133e-06
1.80894e-06
1.83356e-06
1.85529e-06
1.87419e-06
1.89025e-06
1.90349e-06
1.91372e-06
1.92081e-06
1.9238e-06
1.92207e-06
1.64237e-06
1.65937e-06
1.68119e-06
1.70223e-06
1.72366e-06
1.74501e-06
1.76615e-06
1.7867e-06
1.80657e-06
1.82551e-06
1.84346e-06
1.86026e-06
1.87586e-06
1.89017e-06
1.90304e-06
1.91429e-06
1.92341e-06
1.92981e-06
1.93152e-06
1.92739e-06
1.89668e-06
1.8834e-06
1.87762e-06
1.87302e-06
1.87089e-06
1.87094e-06
1.87313e-06
1.8769e-06
1.8822e-06
1.88854e-06
1.89578e-06
1.90359e-06
1.91179e-06
1.92013e-06
1.92831e-06
1.93595e-06
1.94229e-06
1.94657e-06
1.94642e-06
1.94081e-06
2.14131e-06
2.1031e-06
2.07362e-06
2.04698e-06
2.02414e-06
2.00485e-06
1.98946e-06
1.97718e-06
1.96819e-06
1.96184e-06
1.95802e-06
1.95629e-06
1.9564e-06
1.95798e-06
1.96061e-06
1.96381e-06
1.96669e-06
1.96844e-06
1.96677e-06
1.96083e-06
2.36566e-06
2.30763e-06
2.25852e-06
2.21341e-06
2.17324e-06
2.13719e-06
2.10645e-06
2.07976e-06
2.05767e-06
2.03937e-06
2.02487e-06
2.01366e-06
2.0055e-06
1.99997e-06
1.99664e-06
1.99498e-06
1.99418e-06
1.99348e-06
1.99104e-06
1.98612e-06
2.56429e-06
2.49138e-06
2.4274e-06
2.36709e-06
2.31315e-06
2.2628e-06
2.21878e-06
2.17926e-06
2.14526e-06
2.11595e-06
2.09142e-06
2.07119e-06
2.05502e-06
2.04253e-06
2.0333e-06
2.02685e-06
2.02254e-06
2.01972e-06
2.01729e-06
2.0145e-06
2.73165e-06
2.64837e-06
2.57535e-06
2.50255e-06
2.43855e-06
2.37712e-06
2.32258e-06
2.27262e-06
2.22846e-06
2.18945e-06
2.15574e-06
2.12704e-06
2.10319e-06
2.08388e-06
2.06884e-06
2.05769e-06
2.05007e-06
2.04548e-06
2.0437e-06
2.0439e-06
2.86728e-06
2.7747e-06
2.70187e-06
2.62037e-06
2.54871e-06
2.47828e-06
2.41446e-06
2.35553e-06
2.30256e-06
2.2552e-06
2.21356e-06
2.17747e-06
2.14683e-06
2.12145e-06
2.10119e-06
2.08581e-06
2.07532e-06
2.06935e-06
2.06869e-06
2.07236e-06
2.96812e-06
2.86906e-06
2.80109e-06
2.72035e-06
2.64565e-06
2.57141e-06
2.50114e-06
2.43508e-06
2.37423e-06
2.3189e-06
2.26942e-06
2.22586e-06
2.18826e-06
2.15659e-06
2.13089e-06
2.11107e-06
2.09752e-06
2.09009e-06
2.09056e-06
2.09793e-06
3.00689e-06
2.91418e-06
2.84703e-06
2.77111e-06
2.69654e-06
2.62242e-06
2.55091e-06
2.4827e-06
2.41893e-06
2.36012e-06
2.30679e-06
2.25921e-06
2.21762e-06
2.18215e-06
2.15305e-06
2.13043e-06
2.11503e-06
2.10689e-06
2.10858e-06
2.11907e-06
2.92913e-06
2.88168e-06
2.82019e-06
2.75429e-06
2.68699e-06
2.61905e-06
2.5525e-06
2.48809e-06
2.42707e-06
2.37007e-06
2.31779e-06
2.27064e-06
2.22903e-06
2.19326e-06
2.16377e-06
2.14086e-06
2.12553e-06
2.11799e-06
2.12142e-06
2.13463e-06
2.86654e-06
2.8306e-06
2.78359e-06
2.72719e-06
2.66867e-06
2.60731e-06
2.5462e-06
2.48593e-06
2.42808e-06
2.37334e-06
2.32259e-06
2.27638e-06
2.23526e-06
2.19969e-06
2.17026e-06
2.14744e-06
2.13244e-06
2.12552e-06
2.13022e-06
2.14529e-06
2.79212e-06
2.77064e-06
2.73549e-06
2.68837e-06
2.63818e-06
2.58352e-06
2.52818e-06
2.47264e-06
2.41867e-06
2.36705e-06
2.31875e-06
2.27442e-06
2.23474e-06
2.20024e-06
2.17162e-06
2.14951e-06
2.13508e-06
2.12898e-06
2.13498e-06
2.15107e-06
2.70756e-06
2.69746e-06
2.67345e-06
2.63601e-06
2.59471e-06
2.54758e-06
2.49883e-06
2.44887e-06
2.39966e-06
2.352e-06
2.30701e-06
2.2654e-06
2.22791e-06
2.1952e-06
2.16794e-06
2.14705e-06
2.13315e-06
2.12869e-06
2.13175e-06
2.15161e-06
2.61765e-06
2.6177e-06
2.60368e-06
2.57532e-06
2.5424e-06
2.5027e-06
2.46064e-06
2.41655e-06
2.37253e-06
2.3294e-06
2.28834e-06
2.2501e-06
2.2155e-06
2.1852e-06
2.16001e-06
2.14059e-06
2.12831e-06
2.12386e-06
2.13014e-06
2.14572e-06
2.52399e-06
2.53236e-06
2.52706e-06
2.50719e-06
2.48221e-06
2.4499e-06
2.4146e-06
2.37667e-06
2.33821e-06
2.30005e-06
2.26342e-06
2.2291e-06
2.19793e-06
2.17056e-06
2.14781e-06
2.13029e-06
2.11932e-06
2.11515e-06
2.12098e-06
2.13564e-06
2.42845e-06
2.44373e-06
2.44602e-06
2.43381e-06
2.41614e-06
2.39087e-06
2.36218e-06
2.33044e-06
2.29771e-06
2.26482e-06
2.233e-06
2.20302e-06
2.17571e-06
2.1517e-06
2.13177e-06
2.11643e-06
2.10684e-06
2.10328e-06
2.10842e-06
2.12113e-06
2.33189e-06
2.35262e-06
2.36135e-06
2.35598e-06
2.345e-06
2.32643e-06
2.30418e-06
2.27864e-06
2.25175e-06
2.22437e-06
2.19765e-06
2.17236e-06
2.14929e-06
2.12902e-06
2.11225e-06
2.09938e-06
2.09137e-06
2.08834e-06
2.09253e-06
2.10289e-06
2.2347e-06
2.25972e-06
2.27388e-06
2.27457e-06
2.2697e-06
2.25745e-06
2.24144e-06
2.22203e-06
2.20107e-06
2.17935e-06
2.15798e-06
2.13766e-06
2.11914e-06
2.10293e-06
2.08962e-06
2.0795e-06
2.07327e-06
2.07093e-06
2.07406e-06
2.08168e-06
2.13674e-06
2.16503e-06
2.18376e-06
2.18984e-06
2.19062e-06
2.18441e-06
2.17449e-06
2.1612e-06
2.14625e-06
2.13035e-06
2.11453e-06
2.09944e-06
2.08574e-06
2.07389e-06
2.06432e-06
2.05724e-06
2.05304e-06
2.05156e-06
2.05365e-06
2.05844e-06
2.03752e-06
2.06834e-06
2.09099e-06
2.10201e-06
2.10812e-06
2.10777e-06
2.10388e-06
2.09677e-06
2.08793e-06
2.07803e-06
2.06797e-06
2.05834e-06
2.04971e-06
2.04245e-06
2.03689e-06
2.03311e-06
2.03121e-06
2.03085e-06
2.03212e-06
2.03416e-06
1.93608e-06
1.969e-06
1.99519e-06
2.01093e-06
2.02228e-06
2.02781e-06
2.03007e-06
2.0293e-06
2.02679e-06
2.02312e-06
2.01906e-06
2.01512e-06
2.01177e-06
2.00932e-06
2.00798e-06
2.00773e-06
2.00841e-06
2.0095e-06
2.0103e-06
2.00992e-06
1.83147e-06
1.8664e-06
1.89608e-06
1.91662e-06
1.93339e-06
1.94504e-06
1.95373e-06
1.9596e-06
1.96375e-06
1.9666e-06
1.96881e-06
1.97077e-06
1.97289e-06
1.9754e-06
1.97843e-06
1.98188e-06
1.98538e-06
1.98825e-06
1.98906e-06
1.98681e-06
1.72205e-06
1.7594e-06
1.79295e-06
1.8188e-06
1.84153e-06
1.85987e-06
1.87555e-06
1.8886e-06
1.89987e-06
1.90965e-06
1.91846e-06
1.92659e-06
1.93434e-06
1.94191e-06
1.94935e-06
1.95655e-06
1.963e-06
1.96793e-06
1.96933e-06
1.96595e-06
1.6072e-06
1.64788e-06
1.68614e-06
1.7182e-06
1.74776e-06
1.77361e-06
1.79702e-06
1.81791e-06
1.83685e-06
1.85402e-06
1.86975e-06
1.88424e-06
1.89773e-06
1.91034e-06
1.92212e-06
1.93295e-06
1.94232e-06
1.94942e-06
1.95195e-06
1.94832e-06
1.48465e-06
1.53044e-06
1.57502e-06
1.61488e-06
1.65271e-06
1.68734e-06
1.71958e-06
1.74922e-06
1.77658e-06
1.8017e-06
1.82476e-06
1.84587e-06
1.86517e-06
1.88275e-06
1.89864e-06
1.91277e-06
1.92473e-06
1.93381e-06
1.93784e-06
1.93493e-06
1.35683e-06
1.41009e-06
1.46302e-06
1.5125e-06
1.56012e-06
1.60479e-06
1.64687e-06
1.68602e-06
1.72234e-06
1.75575e-06
1.78632e-06
1.81408e-06
1.83908e-06
1.86137e-06
1.88097e-06
1.89787e-06
1.91181e-06
1.92231e-06
1.92774e-06
1.9262e-06
1.22119e-06
1.2859e-06
1.35049e-06
1.41235e-06
1.472e-06
1.52844e-06
1.58166e-06
1.63127e-06
1.67722e-06
1.71938e-06
1.75773e-06
1.79224e-06
1.8229e-06
1.84971e-06
1.87262e-06
1.89159e-06
1.90646e-06
1.91711e-06
1.92279e-06
1.92269e-06
1.09349e-06
1.17293e-06
1.25142e-06
1.32695e-06
1.39942e-06
1.46784e-06
1.53211e-06
1.59179e-06
1.64683e-06
1.69709e-06
1.74255e-06
1.78317e-06
1.81891e-06
1.8497e-06
1.87538e-06
1.89582e-06
1.91072e-06
1.92019e-06
1.92396e-06
1.92339e-06
1.71589e-06
1.8309e-06
2.02735e-06
2.2439e-06
2.45963e-06
2.64982e-06
2.80412e-06
2.91513e-06
2.98434e-06
2.99923e-06
1.62546e-06
1.73278e-06
1.91411e-06
2.11873e-06
2.32965e-06
2.52346e-06
2.68968e-06
2.81759e-06
2.90669e-06
2.94211e-06
1.54445e-06
1.64688e-06
1.81563e-06
2.00726e-06
2.2081e-06
2.39667e-06
2.56415e-06
2.70162e-06
2.80917e-06
2.8758e-06
1.47032e-06
1.5695e-06
1.72786e-06
1.90799e-06
2.09949e-06
2.28245e-06
2.44827e-06
2.58849e-06
2.70102e-06
2.78654e-06
1.40075e-06
1.49773e-06
1.64726e-06
1.81657e-06
1.99813e-06
2.17416e-06
2.33681e-06
2.47941e-06
2.59536e-06
2.69167e-06
1.3354e-06
1.43102e-06
1.57331e-06
1.73304e-06
1.90501e-06
2.07324e-06
2.23021e-06
2.37149e-06
2.48736e-06
2.59063e-06
1.27308e-06
1.36779e-06
1.50395e-06
1.65515e-06
1.81814e-06
1.97873e-06
2.12968e-06
2.26849e-06
2.38258e-06
2.48803e-06
1.21356e-06
1.30756e-06
1.43844e-06
1.58198e-06
1.73643e-06
1.8892e-06
2.0334e-06
2.16828e-06
2.27976e-06
2.38521e-06
1.15644e-06
1.24972e-06
1.37588e-06
1.51244e-06
1.65893e-06
1.80411e-06
1.9415e-06
2.07155e-06
2.17967e-06
2.28321e-06
1.1017e-06
1.19401e-06
1.31567e-06
1.44562e-06
1.58445e-06
1.72203e-06
1.85251e-06
1.9771e-06
2.08153e-06
2.18219e-06
1.04949e-06
1.14031e-06
1.25738e-06
1.38079e-06
1.51207e-06
1.64203e-06
1.76555e-06
1.88421e-06
1.98461e-06
2.08174e-06
1.00019e-06
1.08875e-06
1.2007e-06
1.31722e-06
1.44074e-06
1.56284e-06
1.67925e-06
1.79165e-06
1.88781e-06
1.98108e-06
9.54629e-07
1.0397e-06
1.14537e-06
1.25409e-06
1.3692e-06
1.483e-06
1.59203e-06
1.69789e-06
1.78963e-06
1.87892e-06
9.14029e-07
9.93727e-07
1.09127e-06
1.1907e-06
1.29632e-06
1.4011e-06
1.50235e-06
1.60141e-06
1.68864e-06
1.77397e-06
8.80752e-07
9.51791e-07
1.03769e-06
1.12519e-06
1.21957e-06
1.31439e-06
1.40744e-06
1.4996e-06
1.58244e-06
1.66414e-06
8.57601e-07
9.14353e-07
9.8388e-07
1.0564e-06
1.13749e-06
1.22127e-06
1.30571e-06
1.39101e-06
1.46977e-06
1.54835e-06
8.50813e-07
8.82323e-07
9.25819e-07
9.78045e-07
1.04337e-06
1.11542e-06
1.19153e-06
1.27078e-06
1.34662e-06
1.4234e-06
8.61615e-07
8.4988e-07
8.59115e-07
8.88127e-07
9.36438e-07
9.96767e-07
1.06544e-06
1.13997e-06
1.21453e-06
1.29122e-06
9.05633e-07
8.09179e-07
7.63614e-07
7.64193e-07
7.97452e-07
8.49742e-07
9.15217e-07
9.89335e-07
1.06678e-06
1.14725e-06
9.2438e-07
7.09487e-07
6.32876e-07
6.11202e-07
6.37025e-07
6.86994e-07
7.5492e-07
8.34015e-07
9.19148e-07
1.00773e-06
)
;

boundaryField
{
    left
    {
        type            calculated;
        value           nonuniform List<scalar> 
30
(
1.69636e-06
1.60693e-06
1.52688e-06
1.45359e-06
1.38495e-06
1.32061e-06
1.2595e-06
1.20145e-06
1.14614e-06
1.09363e-06
1.04416e-06
9.98218e-07
9.56713e-07
9.21002e-07
8.93571e-07
8.78084e-07
8.82e-07
9.14328e-07
1.0062e-06
1.14959e-06
7.66196e-06
4.91872e-06
3.70549e-06
3.08131e-06
2.69222e-06
2.41594e-06
2.20877e-06
2.04421e-06
1.90987e-06
1.7939e-06
)
;
    }
    right
    {
        type            calculated;
        value           nonuniform List<scalar> 
30
(
1.92263e-06
1.92208e-06
1.92721e-06
1.94052e-06
1.96047e-06
1.98578e-06
2.01422e-06
2.04376e-06
2.07238e-06
2.09819e-06
2.11942e-06
2.13524e-06
2.14597e-06
2.15181e-06
2.1518e-06
2.14635e-06
2.13633e-06
2.1217e-06
2.10334e-06
2.08198e-06
2.05859e-06
2.03418e-06
2.00983e-06
1.98665e-06
1.96576e-06
1.94815e-06
1.93483e-06
1.92619e-06
1.92277e-06
1.92301e-06
)
;
    }
    down
    {
        type            calculated;
        value           nonuniform List<scalar> 
30
(
8.09086e-09
9.29378e-09
8.97152e-08
2.17183e-07
3.64021e-07
5.17533e-07
6.67509e-07
8.10502e-07
9.41683e-07
1.06321e-06
1.17263e-06
1.26798e-06
1.35557e-06
1.43434e-06
1.50539e-06
1.56907e-06
1.62615e-06
1.67704e-06
1.72232e-06
1.76234e-06
1.7975e-06
1.82804e-06
1.85418e-06
1.87606e-06
1.89373e-06
1.90729e-06
1.91669e-06
1.9223e-06
1.92408e-06
1.92343e-06
)
;
    }
    up
    {
        type            calculated;
        value           nonuniform List<scalar> 
30
(
9.11595e-07
7.01594e-07
6.28742e-07
6.06498e-07
6.31541e-07
6.80724e-07
7.48169e-07
8.27124e-07
9.12193e-07
1.00115e-06
1.08719e-06
1.16728e-06
1.24655e-06
1.32271e-06
1.39585e-06
1.46485e-06
1.52967e-06
1.58982e-06
1.64529e-06
1.69592e-06
1.74171e-06
1.78261e-06
1.81859e-06
1.84956e-06
1.87536e-06
1.89588e-06
1.91078e-06
1.92021e-06
1.92392e-06
1.92368e-06
)
;
    }
    hole
    {
        type            calculated;
        value           nonuniform List<scalar> 
20
(
3.42959e-06
4.02425e-06
4.60561e-06
5.16172e-06
5.67454e-06
6.14769e-06
6.55518e-06
6.94737e-06
7.24691e-06
7.59431e-06
3.74079e-09
3.95746e-09
6.75329e-08
2.2989e-07
4.83306e-07
8.25506e-07
1.24525e-06
1.73076e-06
2.26697e-06
2.83878e-06
)
;
    }
    frontAndBack
    {
        type            empty;
    }
}


// ************************************************************************* //
