/*--------------------------------*- C++ -*----------------------------------*\
  =========                 |
  \\      /  F ield         | OpenFOAM: The Open Source CFD Toolbox
   \\    /   O peration     | Website:  https://openfoam.org
    \\  /    A nd           | Version:  9
     \\/     M anipulation  |
\*---------------------------------------------------------------------------*/
FoamFile
{
    format      ascii;
    class       volSymmTensorField;
    location    "5";
    object      epsilon;
}
// * * * * * * * * * * * * * * * * * * * * * * * * * * * * * * * * * * * * * //

dimensions      [0 0 0 0 0 0 0];

internalField   nonuniform List<symmTensor> 
1000
(
(2.10811e-06 -2.73132e-06 2.54655e-19 4.26847e-07 2.80045e-19 7.63171e-34)
(2.90601e-06 -2.10704e-06 -4.33946e-21 -5.16989e-07 2.4363e-21 0)
(3.29706e-06 -1.61429e-06 5.06437e-21 -9.68243e-07 -9.76062e-22 0)
(3.51626e-06 -1.24235e-06 1.30065e-21 -1.28488e-06 -9.31887e-22 0)
(3.62177e-06 -9.42968e-07 -5.49948e-21 -1.46038e-06 4.11039e-22 0)
(3.65704e-06 -7.08885e-07 -5.9511e-22 -1.5726e-06 6.55138e-22 0)
(3.65267e-06 -5.18713e-07 -4.99519e-21 -1.63323e-06 -2.67846e-21 0)
(3.61928e-06 -3.67518e-07 3.42829e-21 -1.66407e-06 1.59933e-21 0)
(3.57602e-06 -2.41871e-07 -1.76779e-21 -1.67519e-06 -2.01405e-21 0)
(3.51323e-06 -1.37354e-07 0 -1.67671e-06 0 0)
(2.85178e-06 -3.03766e-06 2.63605e-19 1.20156e-07 3.39807e-19 4.59896e-35)
(3.4702e-06 -2.1752e-06 0 -7.19141e-07 0 0)
(3.73484e-06 -1.55219e-06 4.05359e-21 -1.09095e-06 1.93043e-21 0)
(3.85729e-06 -1.10419e-06 -6.95511e-21 -1.35477e-06 -3.70782e-21 0)
(3.8875e-06 -7.62643e-07 -2.95599e-21 -1.48793e-06 -1.78191e-21 0)
(3.86328e-06 -5.07226e-07 2.05731e-21 -1.57058e-06 2.09965e-21 0)
(3.81067e-06 -3.07827e-07 2.3036e-21 -1.60773e-06 1.54332e-21 0)
(3.73965e-06 -1.56259e-07 5.41593e-21 -1.6244e-06 3.15731e-21 0)
(3.65982e-06 -3.34499e-08 0 -1.61883e-06 0 0)
(3.57554e-06 6.48452e-08 0 -1.62152e-06 0 0)
(3.68514e-06 -3.23149e-06 2.61953e-19 -2.86139e-07 3.92039e-19 0)
(4.0545e-06 -2.17255e-06 0 -9.4782e-07 0 0)
(4.15484e-06 -1.44436e-06 3.86316e-21 -1.20031e-06 1.99516e-21 0)
(4.15758e-06 -9.37027e-07 -1.1591e-21 -1.38738e-06 4.12479e-22 0)
(4.09889e-06 -5.65742e-07 -5.67619e-23 -1.464e-06 2.54974e-23 0)
(4.00706e-06 -2.98227e-07 -1.91787e-21 -1.50865e-06 -1.98666e-21 0)
(3.90194e-06 -9.73128e-08 2.61839e-21 -1.51724e-06 1.2076e-21 0)
(3.79021e-06 4.94262e-08 -1.94408e-21 -1.51597e-06 -1.43541e-21 0)
(3.6769e-06 1.6345e-07 -1.56647e-22 -1.49488e-06 2.73378e-22 0)
(3.56772e-06 2.56137e-07 -4.10506e-22 -1.4931e-06 -1.75429e-22 0)
(4.57697e-06 -3.28478e-06 2.33277e-19 -7.69068e-07 4.20594e-19 -2.68744e-35)
(4.64434e-06 -2.09032e-06 2.21194e-21 -1.19436e-06 -2.3045e-22 0)
(4.55047e-06 -1.29276e-06 -1.76547e-21 -1.29418e-06 -9.95916e-22 0)
(4.41455e-06 -7.49064e-07 -1.11843e-21 -1.3843e-06 2.19596e-22 0)
(4.25588e-06 -3.64325e-07 2.00239e-21 -1.39299e-06 1.93749e-21 0)
(4.09087e-06 -9.61271e-08 -2.41002e-21 -1.39389e-06 -1.59301e-21 0)
(3.93102e-06 9.77593e-08 -2.082e-21 -1.37212e-06 -1.48117e-21 0)
(3.77925e-06 2.34259e-07 -4.64003e-21 -1.35265e-06 -3.39328e-21 0)
(3.63464e-06 3.34849e-07 -6.65429e-22 -1.31894e-06 -8.15017e-22 0)
(3.50394e-06 4.16796e-07 1.13648e-21 -1.31133e-06 1.00621e-21 0)
(5.48352e-06 -3.17212e-06 1.81691e-19 -1.29776e-06 3.9643e-19 -4.63196e-34)
(5.22037e-06 -1.9177e-06 1.15639e-25 -1.44702e-06 5.41637e-27 0)
(4.91171e-06 -1.09521e-06 -5.71456e-21 -1.36845e-06 -2.79794e-21 0)
(4.62361e-06 -5.44399e-07 5.19132e-22 -1.34581e-06 -2.09866e-23 0)
(4.35744e-06 -1.67397e-07 -7.27453e-22 -1.27786e-06 7.99205e-23 0)
(4.11641e-06 8.65437e-08 1.73545e-21 -1.23132e-06 1.60498e-21 0)
(3.90233e-06 2.62593e-07 -1.94293e-22 -1.17895e-06 5.91627e-23 0)
(3.71243e-06 3.8148e-07 1.83077e-21 -1.14237e-06 1.22185e-21 0)
(3.5409e-06 4.6341e-07 -3.97082e-22 -1.09985e-06 -8.54837e-22 0)
(3.39174e-06 5.30235e-07 -7.24149e-22 -1.08775e-06 -5.8504e-22 0)
(6.37351e-06 -2.88832e-06 1.22076e-19 -1.83652e-06 3.41184e-19 -4.45522e-34)
(5.76864e-06 -1.64776e-06 1.05415e-25 -1.68905e-06 2.21843e-26 0)
(5.23246e-06 -8.49106e-07 -5.70333e-26 -1.41415e-06 -8.72566e-27 0)
(4.78329e-06 -3.27144e-07 4.58566e-22 -1.26951e-06 5.502e-23 0)
(4.40605e-06 1.6336e-08 -2.47211e-21 -1.1215e-06 -1.50218e-21 0)
(4.08978e-06 2.38277e-07 2.8159e-23 -1.02847e-06 -4.37469e-25 0)
(3.82469e-06 3.84846e-07 1.8397e-21 -9.48795e-07 1.24504e-21 0)
(3.60097e-06 4.78731e-07 3.91194e-21 -8.98614e-07 2.86089e-21 0)
(3.40751e-06 5.3758e-07 7.08562e-22 -8.51753e-07 5.19774e-22 0)
(3.24382e-06 5.85643e-07 -1.2374e-21 -8.37209e-07 -9.75432e-22 0)
(7.18695e-06 -2.41551e-06 8.05825e-20 -2.34232e-06 2.65346e-19 -8.39841e-34)
(6.25689e-06 -1.26059e-06 1.65262e-21 -1.8949e-06 6.6201e-22 0)
(5.48481e-06 -5.47335e-07 1.74886e-21 -1.41089e-06 7.93263e-22 0)
(4.87484e-06 -9.97939e-08 -3.76724e-22 -1.14475e-06 -1.11257e-22 0)
(4.39285e-06 1.78256e-07 1.78777e-21 -9.23416e-07 1.1972e-21 0)
(4.01061e-06 3.47583e-07 -1.64515e-21 -7.92844e-07 -1.13417e-21 0)
(3.7042e-06 4.52446e-07 4.66777e-22 -6.94777e-07 2.3393e-23 0)
(3.4551e-06 5.14413e-07 -1.46839e-21 -6.37905e-07 -9.61958e-22 0)
(3.24724e-06 5.47524e-07 -1.01083e-22 -5.92785e-07 1.51544e-23 0)
(3.07399e-06 5.75094e-07 -7.43836e-22 -5.79004e-07 -4.84426e-22 0)
(7.94763e-06 -1.75246e-06 4.23741e-20 -2.7779e-06 1.69887e-19 -2.70526e-35)
(6.66755e-06 -7.36799e-07 -4.41104e-21 -2.0138e-06 -1.58439e-21 0)
(5.65108e-06 -1.85654e-07 3.41036e-23 -1.31788e-06 1.8662e-23 0)
(4.89369e-06 1.24655e-07 5.50482e-22 -9.52698e-07 2.77239e-22 0)
(4.32433e-06 3.01051e-07 4.08697e-21 -6.82443e-07 2.03098e-21 0)
(3.89428e-06 3.98533e-07 -2.41029e-22 -5.35423e-07 -7.34998e-23 0)
(3.56171e-06 4.53755e-07 5.99423e-27 -4.35231e-07 1.11733e-27 0)
(3.29889e-06 4.81763e-07 -1.43675e-21 -3.82561e-07 -7.56454e-22 0)
(3.0852e-06 4.91117e-07 3.46693e-23 -3.46468e-07 5.84498e-25 0)
(2.90794e-06 5.00136e-07 1.07384e-22 -3.37094e-07 5.2089e-23 0)
(8.53264e-06 -8.178e-07 1.16327e-20 -3.03232e-06 6.34782e-20 1.47948e-34)
(6.86638e-06 -7.53026e-08 -4.85642e-21 -1.91274e-06 -2.03168e-21 0)
(5.61918e-06 1.87121e-07 5.06226e-22 -1.04824e-06 4.30387e-22 0)
(4.76892e-06 2.8578e-07 4.7578e-22 -6.54513e-07 3.74246e-22 0)
(4.17052e-06 3.35858e-07 -1.99044e-22 -3.98217e-07 -1.20087e-22 0)
(3.73433e-06 3.53574e-07 1.59276e-21 -2.74847e-07 5.78726e-22 0)
(3.40449e-06 3.62632e-07 8.65938e-23 -1.98098e-07 2.53825e-23 0)
(3.14562e-06 3.63214e-07 2.56872e-21 -1.6335e-07 9.82375e-22 0)
(2.93662e-06 3.57441e-07 5.67174e-22 -1.42926e-07 2.19314e-22 0)
(2.76093e-06 3.547e-07 3.18272e-22 -1.40479e-07 1.29295e-22 0)
(9.05004e-06 7.34979e-07 9.7476e-22 -2.79558e-06 -3.92897e-20 -1.7394e-34)
(6.69335e-06 8.16794e-07 -3.70354e-22 -1.25797e-06 -6.42922e-22 0)
(5.3849e-06 5.38511e-07 1.68734e-21 -5.25703e-07 7.12854e-22 0)
(4.56908e-06 3.49377e-07 8.65295e-23 -2.58573e-07 1.21035e-22 0)
(4.02019e-06 2.76341e-07 2.95764e-27 -1.21126e-07 2.72831e-27 0)
(3.61548e-06 2.35973e-07 1.61564e-21 -6.60448e-08 2.89705e-22 0)
(3.30809e-06 2.2198e-07 2.49247e-23 -3.678e-08 6.92219e-24 0)
(3.0612e-06 2.14023e-07 1.23831e-21 -2.70358e-08 2.34683e-22 0)
(2.85939e-06 2.07801e-07 -1.35915e-23 -2.27686e-08 -5.9061e-25 0)
(2.68482e-06 2.03662e-07 -2.07614e-23 -2.45167e-08 -4.18116e-24 0)
(-7.31776e-09 8.75286e-09 3.07109e-20 -4.99435e-11 2.28046e-20 1.60064e-34)
(1.20116e-08 -2.05725e-08 -9.3193e-23 -1.23934e-09 2.03728e-20 1.55877e-36)
(1.07554e-07 -6.97683e-08 -1.18349e-21 -4.75033e-08 1.6662e-20 1.94161e-35)
(2.5822e-07 -1.09204e-07 -2.15468e-24 -1.16436e-07 1.78648e-20 0)
(4.31753e-07 -1.33581e-07 -1.60504e-22 -1.9303e-07 1.58845e-20 -1.54903e-36)
(6.13168e-07 -1.47507e-07 -1.6212e-21 -2.71808e-07 1.74906e-20 3.22605e-35)
(7.90401e-07 -1.53037e-07 3.64285e-22 -3.47861e-07 1.93169e-20 1.53554e-36)
(9.59382e-07 -1.53568e-07 -1.07545e-21 -4.19677e-07 1.80972e-20 2.90805e-35)
(1.1144e-06 -1.49552e-07 8.68977e-22 -4.85772e-07 1.83771e-20 -1.25725e-35)
(1.25802e-06 -1.46456e-07 1.82264e-21 -5.45271e-07 1.78358e-20 -3.77833e-35)
(1.98649e-08 -2.22811e-08 3.16793e-20 -6.69872e-09 5.17702e-21 4.28981e-35)
(1.14537e-07 -1.30908e-07 1.30851e-21 6.66974e-10 1.43577e-21 0)
(2.87305e-07 -2.51025e-07 -1.2246e-21 -7.12829e-08 -1.23019e-21 0)
(4.79417e-07 -3.42909e-07 1.13463e-23 -1.6837e-07 -1.01897e-21 0)
(6.72097e-07 -3.99507e-07 0 -2.65123e-07 0 0)
(8.54807e-07 -4.31305e-07 -1.85736e-21 -3.56237e-07 -2.74937e-22 0)
(1.02311e-06 -4.42879e-07 3.14023e-22 -4.38191e-07 1.59972e-21 0)
(1.17775e-06 -4.42268e-07 2.3426e-23 -5.11468e-07 8.60595e-23 0)
(1.31399e-06 -4.30144e-07 -1.00258e-21 -5.7586e-07 -2.90875e-21 0)
(1.44051e-06 -4.20482e-07 7.33634e-22 -6.30575e-07 1.13481e-22 0)
(3.03662e-08 -1.18665e-07 3.38207e-20 3.6685e-08 6.68984e-21 -1.91317e-36)
(2.11698e-07 -3.30357e-07 1.33837e-21 1.32842e-08 1.4183e-21 0)
(4.55604e-07 -4.79159e-07 1.39953e-21 -9.85797e-08 2.92706e-22 0)
(6.95006e-07 -5.78973e-07 7.13824e-23 -2.37426e-07 -9.8273e-22 0)
(9.15288e-07 -6.34097e-07 0 -3.65404e-07 0 0)
(1.10903e-06 -6.60153e-07 -2.07913e-21 -4.77636e-07 -5.42077e-22 0)
(1.27727e-06 -6.63532e-07 -2.83607e-21 -5.71889e-07 -7.93215e-22 0)
(1.42518e-06 -6.53133e-07 1.87663e-21 -6.51245e-07 1.1467e-21 0)
(1.54813e-06 -6.30169e-07 1.14043e-23 -7.15967e-07 3.66459e-23 0)
(1.66287e-06 -6.10861e-07 -1.68795e-21 -7.68593e-07 -1.06631e-21 0)
(4.61501e-08 -2.69681e-07 4.33671e-20 1.39972e-07 1.08348e-20 -3.68419e-35)
(3.44716e-07 -5.69408e-07 3.29253e-22 2.64406e-08 -1.19176e-21 0)
(6.54577e-07 -7.25919e-07 1.53808e-21 -1.3536e-07 3.00246e-22 0)
(9.36917e-07 -8.13841e-07 0 -3.15264e-07 0 0)
(1.18142e-06 -8.50449e-07 -2.62059e-21 -4.71848e-07 9.77812e-22 0)
(1.38584e-06 -8.57498e-07 3.27461e-23 -6.04314e-07 2.41803e-21 0)
(1.55492e-06 -8.43162e-07 -1.30945e-22 -7.11249e-07 -1.29898e-21 0)
(1.69776e-06 -8.16332e-07 -3.76233e-22 -7.97954e-07 -2.00504e-21 0)
(1.80914e-06 -7.78884e-07 8.56469e-22 -8.64934e-07 2.77499e-22 0)
(1.9141e-06 -7.47218e-07 1.59881e-21 -9.17605e-07 5.98819e-22 0)
(8.69593e-08 -4.83012e-07 4.6098e-20 2.83605e-07 2.00362e-20 9.80186e-35)
(5.31913e-07 -8.29625e-07 -2.69903e-21 2.34367e-08 1.81132e-21 0)
(9.07881e-07 -9.70418e-07 -1.63783e-21 -2.06078e-07 -4.81475e-22 0)
(1.22676e-06 -1.0292e-06 -4.40852e-22 -4.30518e-07 1.77274e-21 0)
(1.48731e-06 -1.03346e-06 -1.72792e-23 -6.13041e-07 1.09351e-22 0)
(1.69568e-06 -1.01096e-06 2.52513e-21 -7.61753e-07 -6.79126e-22 0)
(1.86057e-06 -9.71293e-07 1.10033e-21 -8.7743e-07 2.88341e-22 0)
(1.99463e-06 -9.22565e-07 0 -9.68077e-07 0 0)
(2.09219e-06 -8.67733e-07 -1.17526e-21 -1.03465e-06 -1.54568e-21 0)
(2.18565e-06 -8.21079e-07 4.68696e-22 -1.08532e-06 1.13452e-22 0)
(1.75813e-07 -7.63419e-07 6.80083e-20 4.45214e-07 2.95159e-20 -1.4927e-34)
(7.79577e-07 -1.09345e-06 1.10052e-21 3.6703e-09 -2.14857e-21 0)
(1.21799e-06 -1.19039e-06 -1.35336e-21 -3.02953e-07 -1.4592e-21 0)
(1.56422e-06 -1.2051e-06 2.96846e-22 -5.70939e-07 -8.25533e-22 0)
(1.83076e-06 -1.16829e-06 2.86194e-21 -7.74154e-07 9.56633e-22 0)
(2.03429e-06 -1.11096e-06 -2.76071e-21 -9.33321e-07 3.08945e-22 0)
(2.18806e-06 -1.04274e-06 -3.12323e-24 -1.05266e-06 7.33142e-23 0)
(2.30777e-06 -9.70201e-07 -2.15125e-21 -1.143e-06 -1.48062e-21 0)
(2.38801e-06 -8.97463e-07 4.5212e-24 -1.20645e-06 2.87754e-23 0)
(2.4666e-06 -8.35044e-07 -2.34911e-21 -1.25267e-06 -1.07226e-21 0)
(3.38445e-07 -1.1079e-06 1.07139e-19 5.90442e-07 5.77424e-20 -1.60464e-34)
(1.08981e-06 -1.35041e-06 6.09348e-23 -3.97589e-08 -9.24199e-23 0)
(1.57922e-06 -1.37278e-06 -4.46466e-26 -4.23397e-07 7.63258e-26 0)
(1.94048e-06 -1.32848e-06 -2.92423e-21 -7.30951e-07 -2.04818e-21 0)
(2.2018e-06 -1.2437e-06 -4.95814e-22 -9.48804e-07 1.32797e-21 0)
(2.39079e-06 -1.14869e-06 -2.67959e-21 -1.11237e-06 -1.08924e-21 0)
(2.52587e-06 -1.05112e-06 4.81724e-21 -1.22988e-06 2.14492e-21 0)
(2.62491e-06 -9.55145e-07 -5.99042e-25 -1.31537e-06 5.75933e-23 0)
(2.684e-06 -8.65708e-07 9.4831e-22 -1.3724e-06 -4.97326e-24 0)
(2.74346e-06 -7.88034e-07 -1.28499e-21 -1.41154e-06 -6.10922e-22 0)
(5.9868e-07 -1.50369e-06 1.55854e-19 6.87026e-07 9.8227e-20 -3.27211e-34)
(1.46158e-06 -1.59047e-06 1.56981e-21 -1.09799e-07 -1.87765e-21 0)
(1.98018e-06 -1.50891e-06 -6.06049e-22 -5.57029e-07 8.08473e-22 0)
(2.33984e-06 -1.39231e-06 3.70586e-22 -8.9426e-07 -5.78178e-22 0)
(2.58352e-06 -1.25484e-06 3.30548e-26 -1.11866e-06 -6.49495e-26 0)
(2.74825e-06 -1.12167e-06 3.10987e-21 -1.28008e-06 2.61029e-22 0)
(2.85757e-06 -9.96215e-07 2.33544e-22 -1.39089e-06 -1.0135e-21 0)
(2.93014e-06 -8.79386e-07 -7.81626e-23 -1.46734e-06 8.3409e-22 0)
(2.96537e-06 -7.76136e-07 1.06966e-23 -1.51645e-06 4.16547e-22 0)
(3.00134e-06 -6.85234e-07 9.81896e-22 -1.54571e-06 9.17343e-22 0)
(9.75346e-07 -1.92765e-06 1.95517e-19 7.04684e-07 1.54368e-19 4.48768e-34)
(1.89226e-06 -1.80374e-06 -5.0432e-22 -2.11443e-07 3.44234e-21 0)
(2.4086e-06 -1.59477e-06 -5.85994e-26 -6.96963e-07 6.15087e-26 0)
(2.74593e-06 -1.39587e-06 4.02322e-21 -1.04854e-06 9.42823e-22 0)
(2.95827e-06 -1.2032e-06 3.07316e-21 -1.26916e-06 1.53283e-21 0)
(3.08895e-06 -1.03319e-06 2.77266e-21 -1.42163e-06 1.38311e-21 0)
(3.16582e-06 -8.82578e-07 -3.03192e-22 -1.52047e-06 8.7151e-22 0)
(3.20667e-06 -7.49198e-07 -3.33875e-21 -1.5851e-06 -1.86361e-21 0)
(3.21611e-06 -6.35632e-07 2.05031e-21 -1.62383e-06 4.83139e-22 0)
(3.22585e-06 -5.34058e-07 9.19432e-22 -1.64584e-06 5.45776e-22 0)
(1.47865e-06 -2.34904e-06 2.29025e-19 6.21902e-07 2.12158e-19 6.6034e-35)
(2.37631e-06 -1.97976e-06 -1.01823e-21 -3.46847e-07 7.52625e-22 0)
(2.85125e-06 -1.62964e-06 -1.9756e-21 -8.35594e-07 -9.20454e-22 0)
(3.14202e-06 -1.34349e-06 8.55837e-21 -1.18117e-06 2.00055e-21 0)
(3.30801e-06 -1.0958e-06 5.23894e-23 -1.38582e-06 -5.96563e-23 0)
(3.39486e-06 -8.91469e-07 -2.72643e-21 -1.52156e-06 -1.54666e-21 0)
(3.43294e-06 -7.19633e-07 -2.92134e-21 -1.60387e-06 -4.56781e-22 0)
(3.43737e-06 -5.74696e-07 -1.1007e-21 -1.65188e-06 -6.57702e-22 0)
(3.42214e-06 -4.57201e-07 1.22372e-22 -1.68288e-06 -9.13636e-22 0)
(3.39711e-06 -3.55313e-07 5.50581e-22 -1.68539e-06 1.15403e-21 0)
(1.38732e-06 -1.35846e-07 1.83425e-21 -6.00605e-07 1.89418e-20 -1.1209e-35)
(1.5e-06 -1.21126e-07 1.7144e-21 -6.46708e-07 1.76234e-20 -2.45574e-35)
(1.60351e-06 -1.08332e-07 -1.77015e-22 -6.89493e-07 1.53545e-20 -1.42858e-35)
(1.69659e-06 -9.67176e-08 1.5767e-22 -7.28206e-07 1.65176e-20 -6.25357e-37)
(1.78056e-06 -8.59476e-08 -8.7738e-22 -7.63034e-07 1.66442e-20 3.70557e-35)
(1.85581e-06 -7.63063e-08 5.64182e-22 -7.94428e-07 1.70865e-20 0)
(1.92327e-06 -6.74635e-08 5.30886e-22 -8.22525e-07 1.70372e-20 0)
(1.9834e-06 -5.94871e-08 1.04991e-21 -8.47662e-07 1.76703e-20 4.78637e-37)
(2.03691e-06 -5.21726e-08 9.54185e-22 -8.70035e-07 1.71323e-20 -1.24913e-35)
(2.0842e-06 -4.54712e-08 1.59111e-21 -8.89863e-07 1.82852e-20 8.09252e-37)
(2.12575e-06 -3.92347e-08 1.88173e-21 -9.07309e-07 1.74407e-20 -3.77307e-35)
(2.16184e-06 -3.33746e-08 -1.35613e-22 -9.22511e-07 1.66577e-20 1.26233e-35)
(2.19274e-06 -2.77745e-08 1.83524e-21 -9.35565e-07 1.73937e-20 -3.80164e-35)
(2.21859e-06 -2.23523e-08 -1.55857e-21 -9.46542e-07 1.46581e-20 -7.62659e-37)
(2.23947e-06 -1.70391e-08 3.72462e-22 -9.55475e-07 1.73008e-20 1.29932e-35)
(2.25549e-06 -1.18284e-08 2.24911e-22 -9.62399e-07 1.67568e-20 -3.07386e-45)
(2.2666e-06 -6.79589e-09 -4.41171e-22 -9.67295e-07 1.60077e-20 -1.38618e-37)
(2.27323e-06 -2.22793e-09 7.87266e-22 -9.70236e-07 1.74747e-20 9.94324e-38)
(2.27533e-06 1.27222e-09 4.29209e-22 -9.71121e-07 1.58115e-20 -3.91804e-35)
(2.27457e-06 2.08828e-09 1.52585e-20 -9.69783e-07 1.41564e-20 -3.41468e-35)
(1.54456e-06 -3.91542e-07 1.79599e-21 -6.79885e-07 2.20665e-21 0)
(1.62802e-06 -3.52364e-07 1.16364e-21 -7.15051e-07 3.17958e-22 0)
(1.70784e-06 -3.1785e-07 8.70519e-23 -7.47436e-07 -5.04829e-22 0)
(1.77944e-06 -2.8565e-07 2.64412e-21 -7.77163e-07 2.3822e-21 0)
(1.84539e-06 -2.5547e-07 -5.0794e-22 -8.03688e-07 -1.19429e-22 0)
(1.90493e-06 -2.28199e-07 -2.15621e-21 -8.28045e-07 -2.18438e-21 0)
(1.95915e-06 -2.02952e-07 1.09921e-21 -8.49903e-07 4.05498e-22 0)
(2.00798e-06 -1.80022e-07 0 -8.69774e-07 0 0)
(2.05205e-06 -1.58862e-07 5.23809e-22 -8.8765e-07 1.84852e-22 0)
(2.09148e-06 -1.3939e-07 1.07699e-21 -9.03763e-07 4.13698e-22 0)
(2.12667e-06 -1.21234e-07 3.23031e-21 -9.18185e-07 1.66544e-21 0)
(2.15778e-06 -1.04184e-07 1.45803e-23 -9.31033e-07 1.66731e-23 0)
(2.18504e-06 -8.79582e-08 4.19199e-22 -9.42359e-07 -3.27456e-22 0)
(2.2086e-06 -7.23631e-08 6.16632e-22 -9.52196e-07 7.05641e-22 0)
(2.22854e-06 -5.7246e-08 6.32598e-22 -9.60519e-07 7.25817e-22 0)
(2.24499e-06 -4.26025e-08 -6.26661e-22 -9.67238e-07 -7.22685e-22 0)
(2.25784e-06 -2.86088e-08 -6.30205e-22 -9.72124e-07 -7.30891e-22 0)
(2.26725e-06 -1.58768e-08 -1.2656e-21 -9.74772e-07 -1.47643e-21 0)
(2.27247e-06 -5.32666e-09 -9.57612e-24 -9.74249e-07 -1.04852e-23 0)
(2.27374e-06 2.61981e-10 1.77938e-20 -9.69048e-07 1.0808e-21 4.01586e-35)
(1.74295e-06 -5.67464e-07 4.91531e-22 -8.09189e-07 6.72e-22 0)
(1.79539e-06 -5.14058e-07 6.70152e-22 -8.3004e-07 2.38638e-22 0)
(1.84975e-06 -4.66132e-07 -1.55782e-21 -8.47517e-07 -1.96127e-21 0)
(1.89738e-06 -4.21638e-07 -1.39425e-22 -8.64109e-07 3.58589e-22 0)
(1.94305e-06 -3.79241e-07 2.84123e-21 -8.78253e-07 2.36411e-21 0)
(1.98444e-06 -3.40753e-07 -2.25701e-21 -8.91806e-07 -2.1541e-21 0)
(2.02324e-06 -3.04738e-07 -6.00875e-22 -9.04014e-07 -6.959e-22 0)
(2.05863e-06 -2.7183e-07 1.14839e-21 -9.15544e-07 1.30625e-21 0)
(2.09135e-06 -2.41274e-07 4.98102e-24 -9.26227e-07 -8.49283e-22 0)
(2.12116e-06 -2.13059e-07 -1.21512e-21 -9.36271e-07 -1.36657e-21 0)
(2.14841e-06 -1.86723e-07 1.16436e-21 -9.45667e-07 1.30483e-21 0)
(2.17309e-06 -1.62037e-07 1.7992e-21 -9.5447e-07 2.01747e-21 0)
(2.19536e-06 -1.38663e-07 1.37665e-23 -9.62663e-07 1.51766e-23 0)
(2.21528e-06 -1.16367e-07 -6.16042e-22 -9.70196e-07 -6.94821e-22 0)
(2.23288e-06 -9.49395e-08 6.09839e-22 -9.76924e-07 6.92009e-22 0)
(2.24816e-06 -7.43041e-08 8.98976e-29 -9.8257e-07 1.00152e-28 0)
(2.26079e-06 -5.45108e-08 -6.28303e-22 -9.86582e-07 -7.21994e-22 0)
(2.27062e-06 -3.58728e-08 8.51253e-23 -9.88069e-07 5.22319e-22 0)
(2.27603e-06 -1.89621e-08 -2.0658e-21 -9.85171e-07 -2.61782e-22 0)
(2.27691e-06 -4.55008e-09 1.83527e-20 -9.75803e-07 2.62575e-22 3.0297e-38)
(1.97061e-06 -6.91637e-07 0 -9.503e-07 0 0)
(1.99091e-06 -6.30455e-07 7.16647e-22 -9.58e-07 2.60553e-22 0)
(2.01946e-06 -5.74003e-07 5.61087e-22 -9.61365e-07 6.4115e-22 0)
(2.04205e-06 -5.22517e-07 6.1576e-22 -9.65669e-07 7.12883e-22 0)
(2.0664e-06 -4.72391e-07 0 -9.677e-07 0 0)
(2.08824e-06 -4.26886e-07 8.32047e-23 -9.7049e-07 -3.60384e-22 0)
(2.11025e-06 -3.83775e-07 -1.84261e-21 -9.72839e-07 -1.13021e-21 0)
(2.13074e-06 -3.44195e-07 -1.17592e-21 -9.75646e-07 -1.278e-21 0)
(2.15069e-06 -3.07193e-07 -6.61081e-22 -9.78638e-07 -3.04475e-22 0)
(2.16947e-06 -2.72898e-07 -3.84965e-24 -9.82016e-07 8.18599e-22 0)
(2.1874e-06 -2.40804e-07 -5.81535e-22 -9.85714e-07 1.80905e-22 0)
(2.20427e-06 -2.10708e-07 1.21644e-21 -9.89733e-07 5.20351e-22 0)
(2.22016e-06 -1.82252e-07 1.15484e-21 -9.9399e-07 5.52032e-23 0)
(2.23501e-06 -1.55171e-07 2.80652e-23 -9.98355e-07 4.37771e-22 0)
(2.24869e-06 -1.29204e-07 4.97816e-23 -1.00257e-06 4.64081e-22 0)
(2.26109e-06 -1.04151e-07 -6.21226e-22 -1.00624e-06 -6.99309e-22 0)
(2.27166e-06 -7.98843e-08 -1.32677e-28 -1.00861e-06 -1.4944e-28 0)
(2.28011e-06 -5.62449e-08 1.32467e-21 -1.00865e-06 1.94506e-21 0)
(2.28437e-06 -3.34323e-08 -6.7296e-23 -1.00425e-06 -5.12179e-22 0)
(2.28453e-06 -9.7986e-09 1.59733e-20 -9.9328e-07 -2.26077e-21 -6.0442e-35)
(2.21759e-06 -7.55998e-07 5.49546e-23 -1.10791e-06 8.96068e-22 0)
(2.20455e-06 -6.94573e-07 -7.78855e-22 -1.10216e-06 -3.39779e-22 0)
(2.20716e-06 -6.34616e-07 -1.9587e-21 -1.09024e-06 -1.59539e-21 0)
(2.20404e-06 -5.81838e-07 1.2895e-21 -1.08175e-06 8.77041e-22 0)
(2.20672e-06 -5.28796e-07 3.35565e-21 -1.07092e-06 2.20214e-21 0)
(2.20827e-06 -4.80856e-07 -6.16371e-22 -1.06212e-06 -6.44345e-22 0)
(2.21276e-06 -4.34741e-07 0 -1.05374e-06 0 0)
(2.21745e-06 -3.92176e-07 6.00225e-22 -1.04686e-06 6.24761e-22 0)
(2.22368e-06 -3.52053e-07 -1.93203e-21 -1.0412e-06 -8.23459e-22 0)
(2.23041e-06 -3.14663e-07 -1.25321e-21 -1.03695e-06 -9.23025e-22 0)
(2.23796e-06 -2.79531e-07 7.04001e-23 -1.03402e-06 -7.14291e-22 0)
(2.24593e-06 -2.46499e-07 -6.31332e-22 -1.03237e-06 -1.06877e-21 0)
(2.25432e-06 -2.15226e-07 -6.46429e-23 -1.03188e-06 1.12394e-21 0)
(2.26291e-06 -1.85427e-07 1.23418e-21 -1.03235e-06 1.74133e-21 0)
(2.27149e-06 -1.56779e-07 6.01126e-22 -1.03346e-06 2.55514e-22 0)
(2.27983e-06 -1.28928e-07 -2.25195e-23 -1.03474e-06 -4.34811e-22 0)
(2.28725e-06 -1.01555e-07 1.16522e-21 -1.0354e-06 4.77719e-22 0)
(2.29339e-06 -7.3974e-08 5.73093e-22 -1.03437e-06 2.29234e-22 0)
(2.29617e-06 -4.61592e-08 2.35183e-21 -1.0297e-06 1.85645e-21 0)
(2.29579e-06 -1.44385e-08 2.11501e-20 -1.01943e-06 2.4325e-21 6.24038e-35)
(2.47314e-06 -7.63817e-07 4.59271e-22 -1.26427e-06 6.31032e-22 0)
(2.42645e-06 -7.10099e-07 1.10548e-23 -1.24708e-06 2.42388e-23 0)
(2.40393e-06 -6.51457e-07 -1.4162e-21 -1.22077e-06 -9.80792e-22 0)
(2.37514e-06 -6.02593e-07 -3.40086e-21 -1.2005e-06 -2.54367e-21 0)
(2.35654e-06 -5.50965e-07 1.32861e-21 -1.1778e-06 9.0443e-22 0)
(2.33783e-06 -5.04485e-07 1.25034e-21 -1.15799e-06 1.24142e-21 0)
(2.32475e-06 -4.58948e-07 -6.12587e-22 -1.13942e-06 -6.09157e-22 0)
(2.31343e-06 -4.16567e-07 -9.85342e-23 -1.12311e-06 2.73668e-22 0)
(2.30555e-06 -3.76246e-07 2.688e-21 -1.10889e-06 1.59897e-21 0)
(2.29972e-06 -3.38372e-07 -1.79626e-21 -1.09688e-06 -1.83312e-21 0)
(2.29624e-06 -3.02574e-07 -6.38934e-22 -1.08706e-06 -6.60224e-22 0)
(2.29457e-06 -2.68736e-07 1.73642e-21 -1.07937e-06 2.57517e-21 0)
(2.29461e-06 -2.3657e-07 -2.53852e-21 -1.07367e-06 -7.52298e-22 0)
(2.29607e-06 -2.05782e-07 -1.80841e-21 -1.06979e-06 -1.9327e-21 0)
(2.29866e-06 -1.76022e-07 4.66928e-24 -1.06741e-06 -3.9108e-22 0)
(2.30207e-06 -1.46797e-07 -2.43719e-21 -1.06609e-06 -1.86353e-21 0)
(2.30564e-06 -1.17639e-07 -1.77398e-23 -1.06512e-06 -1.66775e-23 0)
(2.30898e-06 -8.74145e-08 2.39514e-21 -1.06359e-06 2.28946e-21 0)
(2.31037e-06 -5.59708e-08 3.74914e-23 -1.05994e-06 4.73504e-22 0)
(2.30989e-06 -1.80782e-08 2.20865e-20 -1.05251e-06 9.47036e-22 -4.74707e-37)
(2.72476e-06 -7.15041e-07 -4.81265e-22 -1.41123e-06 -6.175e-22 0)
(2.64594e-06 -6.77621e-07 6.6504e-22 -1.3858e-06 6.06981e-22 0)
(2.60073e-06 -6.25335e-07 8.21057e-22 -1.34758e-06 4.28254e-22 0)
(2.5475e-06 -5.85344e-07 -6.48802e-22 -1.31697e-06 -6.0833e-22 0)
(2.5089e-06 -5.39762e-07 -1.53733e-21 -1.28406e-06 -7.66484e-22 0)
(2.47075e-06 -4.98466e-07 7.50501e-22 -1.25394e-06 3.72498e-22 0)
(2.44053e-06 -4.57012e-07 2.12389e-21 -1.22575e-06 1.36498e-21 0)
(2.4135e-06 -4.17691e-07 -3.41697e-21 -1.20021e-06 -2.29176e-21 0)
(2.39154e-06 -3.79771e-07 -2.10766e-21 -1.17752e-06 -1.38672e-21 0)
(2.37309e-06 -3.43675e-07 3.30796e-21 -1.15777e-06 2.23759e-21 0)
(2.35836e-06 -3.09258e-07 -1.3493e-21 -1.14099e-06 -6.43716e-22 0)
(2.34674e-06 -2.76469e-07 1.78702e-21 -1.12715e-06 1.8307e-21 0)
(2.33804e-06 -2.45117e-07 1.92473e-21 -1.11613e-06 1.25237e-21 0)
(2.3319e-06 -2.14921e-07 -1.12276e-21 -1.10779e-06 -1.56448e-21 0)
(2.32801e-06 -1.8553e-07 -7.33766e-22 -1.10186e-06 3.82218e-22 0)
(2.32602e-06 -1.56354e-07 3.47302e-23 -1.098e-06 3.20321e-23 0)
(2.32539e-06 -1.26821e-07 -2.96973e-21 -1.09567e-06 -2.47003e-21 0)
(2.32571e-06 -9.54729e-08 5.8958e-22 -1.09421e-06 6.62593e-22 0)
(2.32588e-06 -6.20979e-08 1.16903e-21 -1.0926e-06 9.14033e-22 0)
(2.32563e-06 -2.04476e-08 2.27937e-20 -1.08958e-06 8.01776e-22 -2.04822e-37)
(2.95924e-06 -6.13247e-07 5.76279e-24 -1.53589e-06 1.96913e-23 0)
(2.85207e-06 -6.00515e-07 -6.87534e-22 -1.5063e-06 -6.04655e-22 0)
(2.78801e-06 -5.60035e-07 1.4767e-22 -1.46122e-06 -1.60731e-22 0)
(2.71305e-06 -5.32241e-07 0 -1.42212e-06 0 0)
(2.65647e-06 -4.96841e-07 0 -1.38221e-06 0 0)
(2.60117e-06 -4.63636e-07 -2.0589e-21 -1.34415e-06 -1.6111e-21 0)
(2.55514e-06 -4.29477e-07 1.8316e-21 -1.30845e-06 1.70777e-21 0)
(2.51364e-06 -3.96016e-07 3.86165e-21 -1.27528e-06 3.36664e-21 0)
(2.47824e-06 -3.63127e-07 -2.92079e-21 -1.24518e-06 -2.80499e-21 0)
(2.44759e-06 -3.31136e-07 -2.55875e-21 -1.21829e-06 -2.17791e-21 0)
(2.42175e-06 -3.00155e-07 1.17985e-21 -1.19481e-06 1.17337e-21 0)
(2.40014e-06 -2.70216e-07 -1.15687e-22 -1.17483e-06 2.3316e-22 0)
(2.38253e-06 -2.41262e-07 2.01983e-21 -1.15835e-06 9.95795e-22 0)
(2.36854e-06 -2.13084e-07 3.14567e-21 -1.14533e-06 2.17338e-21 0)
(2.35789e-06 -1.85377e-07 4.2929e-23 -1.13566e-06 3.92155e-23 0)
(2.35022e-06 -1.57533e-07 1.43238e-21 -1.12915e-06 -3.94753e-22 0)
(2.34521e-06 -1.28946e-07 0 -1.12552e-06 0 0)
(2.34241e-06 -9.79765e-08 -1.20516e-21 -1.12444e-06 -5.3064e-22 0)
(2.34157e-06 -6.44103e-08 5.79818e-22 -1.1255e-06 2.44566e-22 0)
(2.34184e-06 -2.14827e-08 2.52228e-20 -1.12796e-06 1.29947e-21 -5.71793e-37)
(3.16654e-06 -4.6822e-07 -4.51475e-24 -1.62921e-06 -1.72318e-23 0)
(3.03505e-06 -4.84766e-07 8.53406e-22 -1.59839e-06 5.09362e-22 0)
(2.95786e-06 -4.64524e-07 -8.48862e-22 -1.55688e-06 -5.16318e-22 0)
(2.86617e-06 -4.51341e-07 -8.3551e-22 -1.5126e-06 -5.02847e-22 0)
(2.7934e-06 -4.30372e-07 2.29386e-21 -1.46825e-06 1.56322e-21 0)
(2.72348e-06 -4.07251e-07 1.63428e-21 -1.4237e-06 9.74223e-22 0)
(2.66303e-06 -3.82047e-07 -2.17057e-21 -1.38141e-06 -1.45116e-21 0)
(2.6086e-06 -3.55706e-07 2.88927e-22 -1.34164e-06 -3.06454e-22 0)
(2.56098e-06 -3.28965e-07 4.92674e-22 -1.30512e-06 4.56857e-22 0)
(2.51918e-06 -3.02224e-07 -2.6807e-22 -1.27213e-06 3.61198e-22 0)
(2.48303e-06 -2.75832e-07 -2.20406e-21 -1.24291e-06 -1.20616e-21 0)
(2.45202e-06 -2.49936e-07 1.97176e-23 -1.21763e-06 1.90193e-23 0)
(2.4259e-06 -2.24581e-07 -1.00754e-21 -1.1964e-06 -1.37227e-21 0)
(2.4043e-06 -1.99636e-07 -3.40496e-23 -1.17927e-06 -3.11382e-23 0)
(2.38701e-06 -1.74849e-07 1.28745e-21 -1.16631e-06 6.25303e-22 0)
(2.37368e-06 -1.49637e-07 -2.5673e-23 -1.1575e-06 -2.24279e-23 0)
(2.36431e-06 -1.23409e-07 1.5688e-21 -1.1529e-06 2.10542e-21 0)
(2.35838e-06 -9.44853e-08 -5.92729e-22 -1.15249e-06 -2.64438e-22 0)
(2.35661e-06 -6.26499e-08 -2.77616e-21 -1.1566e-06 -2.74772e-21 0)
(2.3575e-06 -2.10978e-08 2.31185e-20 -1.16503e-06 -9.17838e-22 -4.51877e-35)
(3.33144e-06 -2.82227e-07 -1.08783e-22 -1.68973e-06 -5.47228e-23 0)
(3.19529e-06 -3.18194e-07 -9.1481e-22 -1.65194e-06 -5.38449e-22 0)
(3.10711e-06 -3.26794e-07 7.42769e-22 -1.62335e-06 5.82954e-22 0)
(3.00898e-06 -3.30338e-07 -1.944e-21 -1.58305e-06 -1.77037e-21 0)
(2.9231e-06 -3.28782e-07 -2.00023e-21 -1.54114e-06 -1.66243e-21 0)
(2.84192e-06 -3.21366e-07 1.18332e-21 -1.49624e-06 1.22255e-21 0)
(2.76851e-06 -3.09879e-07 1.02845e-21 -1.45101e-06 1.22726e-21 0)
(2.70189e-06 -2.94988e-07 1.79298e-21 -1.40685e-06 1.61586e-21 0)
(2.64239e-06 -2.77735e-07 -2.10402e-21 -1.3649e-06 -1.56964e-21 0)
(2.58953e-06 -2.589e-07 5.13679e-24 -1.32604e-06 4.31846e-23 0)
(2.54311e-06 -2.39111e-07 -2.54102e-23 -1.29088e-06 -1.28725e-22 0)
(2.50271e-06 -2.18816e-07 -1.64512e-21 -1.25985e-06 -1.60815e-21 0)
(2.46807e-06 -1.98284e-07 0 -1.23328e-06 0 0)
(2.43882e-06 -1.7758e-07 -1.49151e-21 -1.21144e-06 -4.82378e-22 0)
(2.41481e-06 -1.56601e-07 -6.94731e-24 -1.19458e-06 -2.97305e-23 0)
(2.39572e-06 -1.34895e-07 -1.92529e-21 -1.18293e-06 -9.34965e-22 0)
(2.38184e-06 -1.11962e-07 5.27102e-22 -1.1769e-06 5.5621e-22 0)
(2.37265e-06 -8.62459e-08 1.21424e-21 -1.17687e-06 5.54072e-22 0)
(2.36988e-06 -5.75596e-08 1.51021e-23 -1.18388e-06 -1.26286e-24 0)
(2.37145e-06 -1.95019e-08 2.48055e-20 -1.19838e-06 -4.86391e-23 -1.98889e-37)
(3.41179e-06 -1.29185e-07 9.40976e-22 -1.69451e-06 8.28037e-22 0)
(3.28784e-06 -1.48415e-07 -8.70451e-22 -1.66282e-06 -5.46419e-22 0)
(3.19254e-06 -1.83862e-07 -5.04367e-22 -1.64286e-06 -4.18576e-22 0)
(3.09521e-06 -2.00725e-07 8.36567e-22 -1.61021e-06 5.10547e-22 0)
(3.00505e-06 -2.1261e-07 -1.6538e-21 -1.57191e-06 -7.49082e-22 0)
(2.91952e-06 -2.17966e-07 -1.1154e-21 -1.52991e-06 -5.25279e-22 0)
(2.84063e-06 -2.18212e-07 -1.3904e-21 -1.48594e-06 -1.00804e-21 0)
(2.76786e-06 -2.14247e-07 1.67735e-22 -1.44185e-06 -1.17166e-22 0)
(2.70184e-06 -2.0687e-07 2.81096e-21 -1.39898e-06 1.78914e-21 0)
(2.64228e-06 -1.96925e-07 -9.66464e-23 -1.35847e-06 -1.03955e-22 0)
(2.58922e-06 -1.85069e-07 1.50257e-21 -1.32113e-06 8.4934e-22 0)
(2.54238e-06 -1.71854e-07 -7.40979e-23 -1.28766e-06 -8.39821e-23 0)
(2.50162e-06 -1.57658e-07 5.4886e-36 -1.25857e-06 5.57448e-36 0)
(2.46669e-06 -1.42678e-07 -6.6063e-22 -1.23434e-06 -3.28336e-22 0)
(2.43757e-06 -1.26945e-07 6.45807e-22 -1.21544e-06 3.13658e-22 0)
(2.41403e-06 -1.10184e-07 -2.89728e-23 -1.20235e-06 -4.18881e-23 0)
(2.39663e-06 -9.2042e-08 1.02992e-22 -1.19581e-06 -2.72976e-22 0)
(2.38482e-06 -7.13119e-08 5.83644e-24 -1.1965e-06 1.94557e-23 0)
(2.38118e-06 -4.78659e-08 -5.97924e-24 -1.20615e-06 7.76724e-24 0)
(2.3831e-06 -1.62618e-08 2.6809e-20 -1.22575e-06 1.37551e-22 2.38903e-37)
(3.34384e-06 2.09683e-08 8.7368e-22 -1.63222e-06 6.90594e-22 0)
(3.26126e-06 -1.11284e-09 0 -1.64157e-06 0 0)
(3.17506e-06 -4.43063e-08 -6.81616e-22 -1.62629e-06 -6.00598e-22 0)
(3.08882e-06 -7.2676e-08 8.91058e-36 -1.60159e-06 7.21053e-36 0)
(3.00658e-06 -9.50133e-08 2.04239e-36 -1.56886e-06 1.47995e-36 0)
(2.92719e-06 -1.10834e-07 9.68662e-36 -1.53148e-06 7.19644e-36 0)
(2.85266e-06 -1.21078e-07 1.48584e-35 -1.49122e-06 1.19988e-35 0)
(2.78271e-06 -1.26659e-07 -5.97387e-22 -1.44996e-06 -5.59854e-22 0)
(2.71821e-06 -1.28299e-07 0 -1.40913e-06 0 0)
(2.65911e-06 -1.26797e-07 5.70853e-22 -1.36996e-06 5.53198e-22 0)
(2.6057e-06 -1.22788e-07 -8.1673e-37 -1.33341e-06 -1.37432e-36 0)
(2.5579e-06 -1.16833e-07 -5.49125e-22 -1.30028e-06 -5.51014e-22 0)
(2.51578e-06 -1.09342e-07 5.40083e-22 -1.27125e-06 5.51332e-22 0)
(2.47926e-06 -1.0059e-07 7.75929e-36 -1.24693e-06 5.6456e-36 0)
(2.44849e-06 -9.06824e-08 -5.25637e-22 -1.22796e-06 -5.54485e-22 0)
(2.42339e-06 -7.95327e-08 -4.66067e-36 -1.215e-06 -4.3079e-36 0)
(2.40475e-06 -6.68932e-08 5.16247e-22 -1.209e-06 5.6109e-22 0)
(2.39213e-06 -5.20091e-08 5.13538e-22 -1.21089e-06 5.66015e-22 0)
(2.38869e-06 -3.49107e-08 -5.54501e-36 -1.22287e-06 -4.834e-36 0)
(2.39148e-06 -1.17938e-08 2.75212e-20 -1.24612e-06 -4.90906e-36 -1.6235e-49)