/*--------------------------------*- C++ -*----------------------------------*\
  =========                 |
  \\      /  F ield         | OpenFOAM: The Open Source CFD Toolbox
   \\    /   O peration     | Website:  https://openfoam.org
    \\  /    A nd           | Version:  9
     \\/     M anipulation  |
\*---------------------------------------------------------------------------*/
FoamFile
{
    format      ascii;
    class       pointVectorField;
    location    "5";
    object      pointD;
}
// * * * * * * * * * * * * * * * * * * * * * * * * * * * * * * * * * * * * * //

dimensions      [0 1 0 0 0 0 0];

internalField   nonuniform List<vector> 
2142
(
(3.70292e-06 1.08272e-06 -3.51522e-20)
(3.43216e-06 1.25418e-06 0)
(3.24286e-06 1.37653e-06 0)
(3.10509e-06 1.47598e-06 0)
(3.00593e-06 1.5575e-06 0)
(2.9356e-06 1.62774e-06 0)
(2.88707e-06 1.68953e-06 0)
(2.8554e-06 1.74539e-06 0)
(2.83677e-06 1.79685e-06 0)
(2.82838e-06 1.84493e-06 0)
(2.83009e-06 1.89714e-06 0)
(3.38331e-06 9.93154e-07 -4.13889e-20)
(3.0967e-06 1.1283e-06 0)
(2.89797e-06 1.22358e-06 0)
(2.7542e-06 1.30174e-06 0)
(2.65101e-06 1.36569e-06 0)
(2.57769e-06 1.42103e-06 0)
(2.52666e-06 1.46977e-06 0)
(2.49265e-06 1.51402e-06 0)
(2.47152e-06 1.5548e-06 0)
(2.46038e-06 1.59334e-06 0)
(2.41128e-06 1.59543e-06 0)
(3.05073e-06 9.05105e-07 -4.60774e-20)
(2.75632e-06 9.99811e-07 0)
(2.55345e-06 1.06595e-06 0)
(2.40754e-06 1.12184e-06 0)
(2.30322e-06 1.16791e-06 0)
(2.22915e-06 1.20849e-06 0)
(2.17735e-06 1.24453e-06 0)
(2.14231e-06 1.27759e-06 0)
(2.11977e-06 1.30813e-06 0)
(2.10662e-06 1.33732e-06 0)
(2.06265e-06 1.33456e-06 0)
(2.70653e-06 8.19351e-07 -4.85244e-20)
(2.41303e-06 8.71292e-07 0)
(2.2118e-06 9.07286e-07 0)
(2.06795e-06 9.4067e-07 0)
(1.96567e-06 9.69179e-07 0)
(1.89331e-06 9.95641e-07 0)
(1.84267e-06 1.01983e-06 0)
(1.80817e-06 1.04265e-06 0)
(1.78553e-06 1.06397e-06 0)
(1.77162e-06 1.08469e-06 0)
(1.73365e-06 1.07865e-06 0)
(2.35188e-06 7.36365e-07 -4.67908e-20)
(2.06827e-06 7.45152e-07 0)
(1.87469e-06 7.51216e-07 0)
(1.73739e-06 7.62754e-07 0)
(1.64058e-06 7.74679e-07 0)
(1.57255e-06 7.88197e-07 0)
(1.52513e-06 8.01801e-07 0)
(1.49276e-06 8.15668e-07 0)
(1.47134e-06 8.29058e-07 0)
(1.45777e-06 8.42488e-07 0)
(1.4261e-06 8.34614e-07 0)
(1.98844e-06 6.56126e-07 -4.07922e-20)
(1.72316e-06 6.23317e-07 0)
(1.54325e-06 6.00993e-07 0)
(1.41718e-06 5.92423e-07 0)
(1.32944e-06 5.89602e-07 0)
(1.26845e-06 5.92035e-07 0)
(1.2263e-06 5.96862e-07 0)
(1.19762e-06 6.03474e-07 0)
(1.17861e-06 6.10546e-07 0)
(1.16632e-06 6.18157e-07 0)
(1.14091e-06 6.09861e-07 0)
(1.61736e-06 5.77751e-07 -3.24586e-20)
(1.37778e-06 5.06894e-07 0)
(1.2177e-06 4.59217e-07 0)
(1.10779e-06 4.33659e-07 0)
(1.03288e-06 4.19021e-07 0)
(9.81681e-07 4.13034e-07 0)
(9.46749e-07 4.11446e-07 0)
(9.23168e-07 4.12884e-07 0)
(9.07552e-07 4.15516e-07 0)
(8.973e-07 4.19007e-07 0)
(8.77886e-07 4.11597e-07 0)
(1.24182e-06 4.98915e-07 -2.25711e-20)
(1.03259e-06 3.95426e-07 0)
(8.98553e-07 3.27555e-07 0)
(8.0997e-07 2.9016e-07 0)
(7.5155e-07 2.68085e-07 0)
(7.12582e-07 2.57274e-07 0)
(6.86439e-07 2.52177e-07 0)
(6.68963e-07 2.50815e-07 0)
(6.57404e-07 2.51025e-07 0)
(6.49678e-07 2.52178e-07 0)
(6.35829e-07 2.46709e-07 0)
(8.63843e-07 4.12584e-07 -1.1899e-20)
(6.85975e-07 2.84827e-07 0)
(5.85778e-07 2.05997e-07 0)
(5.23948e-07 1.65235e-07 0)
(4.85216e-07 1.42121e-07 0)
(4.60257e-07 1.30995e-07 0)
(4.43812e-07 1.25591e-07 0)
(4.32908e-07 1.23744e-07 0)
(4.2565e-07 1.23336e-07 0)
(4.20655e-07 1.23683e-07 0)
(4.11832e-07 1.20706e-07 0)
(5.07174e-07 3.03753e-07 -1.19201e-21)
(3.40913e-07 1.67676e-07 0)
(2.84043e-07 9.79129e-08 0)
(2.53581e-07 6.66538e-08 0)
(2.357e-07 5.06983e-08 0)
(2.24532e-07 4.37949e-08 0)
(2.17192e-07 4.07684e-08 0)
(2.12304e-07 3.99802e-08 0)
(2.0897e-07 3.99829e-08 0)
(2.06562e-07 4.03371e-08 0)
(2.02219e-07 3.9494e-08 0)
(1.70372e-07 1.20768e-07 2.03845e-21)
(0 0 0)
(0 0 0)
(0 0 0)
(0 0 0)
(0 0 0)
(0 0 0)
(0 0 0)
(0 0 0)
(0 0 0)
(0 0 0)
(3.70292e-06 1.08272e-06 -3.51522e-20)
(3.43216e-06 1.25418e-06 0)
(3.24286e-06 1.37653e-06 0)
(3.10509e-06 1.47598e-06 0)
(3.00593e-06 1.5575e-06 0)
(2.9356e-06 1.62774e-06 0)
(2.88707e-06 1.68953e-06 0)
(2.8554e-06 1.74539e-06 0)
(2.83677e-06 1.79685e-06 0)
(2.82838e-06 1.84493e-06 0)
(2.83009e-06 1.89714e-06 0)
(3.38331e-06 9.93154e-07 -4.13889e-20)
(3.0967e-06 1.1283e-06 0)
(2.89797e-06 1.22358e-06 0)
(2.7542e-06 1.30174e-06 0)
(2.65101e-06 1.36569e-06 0)
(2.57769e-06 1.42103e-06 0)
(2.52666e-06 1.46977e-06 0)
(2.49265e-06 1.51402e-06 0)
(2.47152e-06 1.5548e-06 0)
(2.46038e-06 1.59334e-06 0)
(2.41128e-06 1.59543e-06 0)
(3.05073e-06 9.05105e-07 -4.60774e-20)
(2.75632e-06 9.99811e-07 0)
(2.55345e-06 1.06595e-06 0)
(2.40754e-06 1.12184e-06 0)
(2.30322e-06 1.16791e-06 0)
(2.22915e-06 1.20849e-06 0)
(2.17735e-06 1.24453e-06 0)
(2.14231e-06 1.27759e-06 0)
(2.11977e-06 1.30813e-06 0)
(2.10662e-06 1.33732e-06 0)
(2.06265e-06 1.33456e-06 0)
(2.70653e-06 8.19351e-07 -4.85244e-20)
(2.41303e-06 8.71292e-07 0)
(2.2118e-06 9.07286e-07 0)
(2.06795e-06 9.4067e-07 0)
(1.96567e-06 9.69179e-07 0)
(1.89331e-06 9.95641e-07 0)
(1.84267e-06 1.01983e-06 0)
(1.80817e-06 1.04265e-06 0)
(1.78553e-06 1.06397e-06 0)
(1.77162e-06 1.08469e-06 0)
(1.73365e-06 1.07865e-06 0)
(2.35188e-06 7.36365e-07 -4.67908e-20)
(2.06827e-06 7.45152e-07 0)
(1.87469e-06 7.51216e-07 0)
(1.73739e-06 7.62754e-07 0)
(1.64058e-06 7.74679e-07 0)
(1.57255e-06 7.88197e-07 0)
(1.52513e-06 8.01801e-07 0)
(1.49276e-06 8.15668e-07 0)
(1.47134e-06 8.29058e-07 0)
(1.45777e-06 8.42488e-07 0)
(1.4261e-06 8.34614e-07 0)
(1.98844e-06 6.56126e-07 -4.07922e-20)
(1.72316e-06 6.23317e-07 0)
(1.54325e-06 6.00993e-07 0)
(1.41718e-06 5.92423e-07 0)
(1.32944e-06 5.89602e-07 0)
(1.26845e-06 5.92035e-07 0)
(1.2263e-06 5.96862e-07 0)
(1.19762e-06 6.03474e-07 0)
(1.17861e-06 6.10546e-07 0)
(1.16632e-06 6.18157e-07 0)
(1.14091e-06 6.09861e-07 0)
(1.61736e-06 5.77751e-07 -3.24586e-20)
(1.37778e-06 5.06894e-07 0)
(1.2177e-06 4.59217e-07 0)
(1.10779e-06 4.33659e-07 0)
(1.03288e-06 4.19021e-07 0)
(9.81681e-07 4.13034e-07 0)
(9.46749e-07 4.11446e-07 0)
(9.23168e-07 4.12884e-07 0)
(9.07552e-07 4.15516e-07 0)
(8.973e-07 4.19007e-07 0)
(8.77886e-07 4.11597e-07 0)
(1.24182e-06 4.98915e-07 -2.25711e-20)
(1.03259e-06 3.95426e-07 0)
(8.98553e-07 3.27555e-07 0)
(8.0997e-07 2.9016e-07 0)
(7.5155e-07 2.68085e-07 0)
(7.12582e-07 2.57274e-07 0)
(6.86439e-07 2.52177e-07 0)
(6.68963e-07 2.50815e-07 0)
(6.57404e-07 2.51025e-07 0)
(6.49678e-07 2.52178e-07 0)
(6.35829e-07 2.46709e-07 0)
(8.63843e-07 4.12584e-07 -1.1899e-20)
(6.85975e-07 2.84827e-07 0)
(5.85778e-07 2.05997e-07 0)
(5.23948e-07 1.65235e-07 0)
(4.85216e-07 1.42121e-07 0)
(4.60257e-07 1.30995e-07 0)
(4.43812e-07 1.25591e-07 0)
(4.32908e-07 1.23744e-07 0)
(4.2565e-07 1.23336e-07 0)
(4.20655e-07 1.23683e-07 0)
(4.11832e-07 1.20706e-07 0)
(5.07174e-07 3.03753e-07 -1.19201e-21)
(3.40913e-07 1.67676e-07 0)
(2.84043e-07 9.79129e-08 0)
(2.53581e-07 6.66538e-08 0)
(2.357e-07 5.06983e-08 0)
(2.24532e-07 4.37949e-08 0)
(2.17192e-07 4.07684e-08 0)
(2.12304e-07 3.99802e-08 0)
(2.0897e-07 3.99829e-08 0)
(2.06562e-07 4.03371e-08 0)
(2.02219e-07 3.9494e-08 0)
(1.70372e-07 1.20768e-07 2.03845e-21)
(0 0 0)
(0 0 0)
(0 0 0)
(0 0 0)
(0 0 0)
(0 0 0)
(0 0 0)
(0 0 0)
(0 0 0)
(0 0 0)
(6.00931e-06 1.77892e-06 -2.46369e-21)
(6.05223e-06 1.95146e-06 -1.54382e-21)
(6.04704e-06 2.17335e-06 -1.68429e-21)
(6.04356e-06 2.3792e-06 -1.82219e-21)
(6.0472e-06 2.56865e-06 -1.95667e-21)
(6.05999e-06 2.74363e-06 -2.08834e-21)
(6.08267e-06 2.9064e-06 -2.2178e-21)
(6.11513e-06 3.05928e-06 -2.34561e-21)
(6.15699e-06 3.20417e-06 -2.47225e-21)
(6.20736e-06 3.3429e-06 -2.59814e-21)
(6.2657e-06 3.47619e-06 -2.68653e-21)
(5.87571e-06 1.71211e-06 -3.51706e-21)
(5.85745e-06 1.94379e-06 0)
(5.84221e-06 2.16427e-06 0)
(5.83412e-06 2.36709e-06 0)
(5.83522e-06 2.5523e-06 0)
(5.84617e-06 2.72218e-06 0)
(5.86693e-06 2.87923e-06 0)
(5.89699e-06 3.02596e-06 0)
(5.93573e-06 3.16443e-06 0)
(5.9823e-06 3.2966e-06 0)
(6.03951e-06 3.42406e-06 0)
(5.69387e-06 1.68385e-06 -3.63048e-21)
(5.65575e-06 1.92064e-06 0)
(5.62479e-06 2.13909e-06 0)
(5.60499e-06 2.33766e-06 0)
(5.59712e-06 2.51746e-06 0)
(5.60093e-06 2.6813e-06 0)
(5.61555e-06 2.83192e-06 0)
(5.63992e-06 2.97199e-06 0)
(5.6731e-06 3.10364e-06 0)
(5.71391e-06 3.22895e-06 0)
(5.7696e-06 3.35084e-06 0)
(5.50115e-06 1.63807e-06 -3.91954e-21)
(5.439e-06 1.88263e-06 0)
(5.3893e-06 2.09828e-06 0)
(5.35462e-06 2.29104e-06 0)
(5.33483e-06 2.46367e-06 0)
(5.32882e-06 2.61992e-06 0)
(5.33499e-06 2.76285e-06 0)
(5.35176e-06 2.89523e-06 0)
(5.37785e-06 3.01927e-06 0)
(5.41168e-06 3.13707e-06 0)
(5.46576e-06 3.25355e-06 0)
(5.29409e-06 1.579e-06 -4.84271e-21)
(5.20386e-06 1.83031e-06 0)
(5.13335e-06 2.04194e-06 0)
(5.0821e-06 2.22744e-06 0)
(5.04892e-06 2.39138e-06 0)
(5.03175e-06 2.53862e-06 0)
(5.02831e-06 2.67256e-06 0)
(5.0365e-06 2.79615e-06 0)
(5.05469e-06 2.91161e-06 0)
(5.08093e-06 3.02107e-06 0)
(5.13358e-06 3.13214e-06 0)
(5.07077e-06 1.50949e-06 -6.85624e-21)
(4.94921e-06 1.76394e-06 0)
(4.8566e-06 1.96939e-06 0)
(4.78817e-06 2.14588e-06 0)
(4.74127e-06 2.29958e-06 0)
(4.71269e-06 2.43643e-06 0)
(4.69944e-06 2.56017e-06 0)
(4.6989e-06 2.6739e-06 0)
(4.70909e-06 2.77987e-06 0)
(4.72772e-06 2.88017e-06 0)
(4.77934e-06 2.9859e-06 0)
(4.83044e-06 1.43212e-06 -1.02704e-20)
(4.67565e-06 1.68414e-06 0)
(4.56049e-06 1.88045e-06 0)
(4.47507e-06 2.04597e-06 0)
(4.41484e-06 2.18794e-06 0)
(4.3753e-06 2.3132e-06 0)
(4.35266e-06 2.42573e-06 0)
(4.34379e-06 2.52871e-06 0)
(4.34637e-06 2.62443e-06 0)
(4.35779e-06 2.71487e-06 0)
(4.40892e-06 2.81538e-06 0)
(4.57297e-06 1.34898e-06 -1.51501e-20)
(4.38477e-06 1.59176e-06 0)
(4.24761e-06 1.77535e-06 0)
(4.14608e-06 1.92769e-06 0)
(4.07349e-06 2.05647e-06 0)
(4.02394e-06 2.16908e-06 0)
(3.9928e-06 2.26958e-06 0)
(3.97642e-06 2.36114e-06 0)
(3.97213e-06 2.44603e-06 0)
(3.97705e-06 2.52607e-06 0)
(4.02828e-06 2.62154e-06 0)
(4.29874e-06 1.26198e-06 -2.12802e-20)
(4.07882e-06 1.48812e-06 0)
(3.92126e-06 1.6551e-06 0)
(3.8052e-06 1.79195e-06 0)
(3.72172e-06 1.90615e-06 0)
(3.66349e-06 2.00524e-06 0)
(3.62505e-06 2.0931e-06 0)
(3.60224e-06 2.17282e-06 0)
(3.59203e-06 2.24651e-06 0)
(3.5914e-06 2.31581e-06 0)
(3.64327e-06 2.40636e-06 0)
(4.00842e-06 1.17274e-06 -2.81798e-20)
(3.76039e-06 1.3749e-06 0)
(3.58511e-06 1.52136e-06 0)
(3.45676e-06 1.6405e-06 0)
(3.36428e-06 1.73887e-06 0)
(3.29903e-06 1.82375e-06 0)
(3.25471e-06 1.89862e-06 0)
(3.22674e-06 1.96632e-06 0)
(3.21171e-06 2.02872e-06 0)
(3.20665e-06 2.08705e-06 0)
(3.25943e-06 2.17265e-06 0)
(6.00931e-06 1.77892e-06 -2.46369e-21)
(6.05223e-06 1.95146e-06 -1.54382e-21)
(6.04704e-06 2.17335e-06 -1.68429e-21)
(6.04356e-06 2.3792e-06 -1.82219e-21)
(6.0472e-06 2.56865e-06 -1.95667e-21)
(6.05999e-06 2.74363e-06 -2.08834e-21)
(6.08267e-06 2.9064e-06 -2.2178e-21)
(6.11513e-06 3.05928e-06 -2.34561e-21)
(6.15699e-06 3.20417e-06 -2.47225e-21)
(6.20736e-06 3.3429e-06 -2.59814e-21)
(6.2657e-06 3.47619e-06 -2.68653e-21)
(5.87571e-06 1.71211e-06 -3.51706e-21)
(5.85745e-06 1.94379e-06 0)
(5.84221e-06 2.16427e-06 0)
(5.83412e-06 2.36709e-06 0)
(5.83522e-06 2.5523e-06 0)
(5.84617e-06 2.72218e-06 0)
(5.86693e-06 2.87923e-06 0)
(5.89699e-06 3.02596e-06 0)
(5.93573e-06 3.16443e-06 0)
(5.9823e-06 3.2966e-06 0)
(6.03951e-06 3.42406e-06 0)
(5.69387e-06 1.68385e-06 -3.63048e-21)
(5.65575e-06 1.92064e-06 0)
(5.62479e-06 2.13909e-06 0)
(5.60499e-06 2.33766e-06 0)
(5.59712e-06 2.51746e-06 0)
(5.60093e-06 2.6813e-06 0)
(5.61555e-06 2.83192e-06 0)
(5.63992e-06 2.97199e-06 0)
(5.6731e-06 3.10364e-06 0)
(5.71391e-06 3.22895e-06 0)
(5.7696e-06 3.35084e-06 0)
(5.50115e-06 1.63807e-06 -3.91954e-21)
(5.439e-06 1.88263e-06 0)
(5.3893e-06 2.09828e-06 0)
(5.35462e-06 2.29104e-06 0)
(5.33483e-06 2.46367e-06 0)
(5.32882e-06 2.61992e-06 0)
(5.33499e-06 2.76285e-06 0)
(5.35176e-06 2.89523e-06 0)
(5.37785e-06 3.01927e-06 0)
(5.41168e-06 3.13707e-06 0)
(5.46576e-06 3.25355e-06 0)
(5.29409e-06 1.579e-06 -4.84271e-21)
(5.20386e-06 1.83031e-06 0)
(5.13335e-06 2.04194e-06 0)
(5.0821e-06 2.22744e-06 0)
(5.04892e-06 2.39138e-06 0)
(5.03175e-06 2.53862e-06 0)
(5.02831e-06 2.67256e-06 0)
(5.0365e-06 2.79615e-06 0)
(5.05469e-06 2.91161e-06 0)
(5.08093e-06 3.02107e-06 0)
(5.13358e-06 3.13214e-06 0)
(5.07077e-06 1.50949e-06 -6.85624e-21)
(4.94921e-06 1.76394e-06 0)
(4.8566e-06 1.96939e-06 0)
(4.78817e-06 2.14588e-06 0)
(4.74127e-06 2.29958e-06 0)
(4.71269e-06 2.43643e-06 0)
(4.69944e-06 2.56017e-06 0)
(4.6989e-06 2.6739e-06 0)
(4.70909e-06 2.77987e-06 0)
(4.72772e-06 2.88017e-06 0)
(4.77934e-06 2.9859e-06 0)
(4.83044e-06 1.43212e-06 -1.02704e-20)
(4.67565e-06 1.68414e-06 0)
(4.56049e-06 1.88045e-06 0)
(4.47507e-06 2.04597e-06 0)
(4.41484e-06 2.18794e-06 0)
(4.3753e-06 2.3132e-06 0)
(4.35266e-06 2.42573e-06 0)
(4.34379e-06 2.52871e-06 0)
(4.34637e-06 2.62443e-06 0)
(4.35779e-06 2.71487e-06 0)
(4.40892e-06 2.81538e-06 0)
(4.57297e-06 1.34898e-06 -1.51501e-20)
(4.38477e-06 1.59176e-06 0)
(4.24761e-06 1.77535e-06 0)
(4.14608e-06 1.92769e-06 0)
(4.07349e-06 2.05647e-06 0)
(4.02394e-06 2.16908e-06 0)
(3.9928e-06 2.26958e-06 0)
(3.97642e-06 2.36114e-06 0)
(3.97213e-06 2.44603e-06 0)
(3.97705e-06 2.52607e-06 0)
(4.02828e-06 2.62154e-06 0)
(4.29874e-06 1.26198e-06 -2.12802e-20)
(4.07882e-06 1.48812e-06 0)
(3.92126e-06 1.6551e-06 0)
(3.8052e-06 1.79195e-06 0)
(3.72172e-06 1.90615e-06 0)
(3.66349e-06 2.00524e-06 0)
(3.62505e-06 2.0931e-06 0)
(3.60224e-06 2.17282e-06 0)
(3.59203e-06 2.24651e-06 0)
(3.5914e-06 2.31581e-06 0)
(3.64327e-06 2.40636e-06 0)
(4.00842e-06 1.17274e-06 -2.81798e-20)
(3.76039e-06 1.3749e-06 0)
(3.58511e-06 1.52136e-06 0)
(3.45676e-06 1.6405e-06 0)
(3.36428e-06 1.73887e-06 0)
(3.29903e-06 1.82375e-06 0)
(3.25471e-06 1.89862e-06 0)
(3.22674e-06 1.96632e-06 0)
(3.21171e-06 2.02872e-06 0)
(3.20665e-06 2.08705e-06 0)
(3.25943e-06 2.17265e-06 0)
(6.33202e-06 3.60571e-06 -2.7004e-21)
(6.40519e-06 3.7332e-06 -2.6773e-21)
(6.48404e-06 3.85878e-06 -2.65497e-21)
(6.56803e-06 3.98306e-06 -2.6334e-21)
(6.65662e-06 4.10654e-06 -2.61257e-21)
(6.7493e-06 4.22963e-06 -2.59243e-21)
(6.84563e-06 4.35269e-06 -2.57293e-21)
(6.9452e-06 4.47601e-06 -2.55403e-21)
(7.04763e-06 4.59984e-06 -2.5357e-21)
(7.1526e-06 4.72439e-06 -2.5179e-21)
(7.25977e-06 4.84983e-06 -2.5006e-21)
(7.36887e-06 4.97632e-06 -2.48378e-21)
(7.47959e-06 5.10397e-06 -2.46744e-21)
(7.59167e-06 5.23288e-06 -2.45156e-21)
(7.70482e-06 5.36311e-06 -2.43615e-21)
(7.81875e-06 5.49465e-06 -2.42123e-21)
(7.93315e-06 5.62746e-06 -2.40681e-21)
(8.04771e-06 5.76136e-06 -2.39292e-21)
(8.16203e-06 5.89606e-06 -2.37962e-21)
(8.19987e-06 5.98003e-06 -2.81407e-22)
(6.11026e-06 3.54969e-06 0)
(6.18962e-06 3.67448e-06 0)
(6.2736e-06 3.79763e-06 0)
(6.36173e-06 3.91977e-06 0)
(6.45365e-06 4.0414e-06 0)
(6.54898e-06 4.1629e-06 0)
(6.64737e-06 4.28462e-06 0)
(6.74852e-06 4.40682e-06 0)
(6.85214e-06 4.52975e-06 0)
(6.95795e-06 4.65359e-06 0)
(7.0657e-06 4.77852e-06 0)
(7.17515e-06 4.90466e-06 0)
(7.28608e-06 5.03215e-06 0)
(7.39826e-06 5.16106e-06 0)
(7.51148e-06 5.29145e-06 0)
(7.62552e-06 5.42331e-06 0)
(7.74017e-06 5.5566e-06 0)
(7.85523e-06 5.69114e-06 0)
(7.97047e-06 5.82663e-06 0)
(8.08526e-06 5.96236e-06 1.82362e-21)
(5.84716e-06 3.47393e-06 0)
(5.93612e-06 3.59783e-06 0)
(6.02843e-06 3.72017e-06 0)
(6.12373e-06 3.84165e-06 0)
(6.22183e-06 3.96276e-06 0)
(6.32246e-06 4.0839e-06 0)
(6.42543e-06 4.2054e-06 0)
(6.53051e-06 4.32752e-06 0)
(6.63754e-06 4.45052e-06 0)
(6.74632e-06 4.57457e-06 0)
(6.85667e-06 4.69984e-06 0)
(6.96844e-06 4.82648e-06 0)
(7.08146e-06 4.95459e-06 0)
(7.19559e-06 5.08426e-06 0)
(7.31067e-06 5.21556e-06 0)
(7.42655e-06 5.34849e-06 0)
(7.54309e-06 5.48302e-06 0)
(7.66011e-06 5.61904e-06 0)
(7.77741e-06 5.75631e-06 0)
(7.89378e-06 5.89414e-06 1.84957e-21)
(5.5518e-06 3.37563e-06 0)
(5.65275e-06 3.50069e-06 0)
(5.75572e-06 3.62416e-06 0)
(5.86039e-06 3.74671e-06 0)
(5.96679e-06 3.86891e-06 0)
(6.07475e-06 3.99112e-06 0)
(6.18421e-06 4.11372e-06 0)
(6.29507e-06 4.23699e-06 0)
(6.40724e-06 4.36117e-06 0)
(6.52062e-06 4.48647e-06 0)
(6.63515e-06 4.61305e-06 0)
(6.75072e-06 4.74106e-06 0)
(6.86726e-06 4.87064e-06 0)
(6.98468e-06 5.00187e-06 0)
(7.10289e-06 5.13485e-06 0)
(7.22181e-06 5.26962e-06 0)
(7.34132e-06 5.40619e-06 0)
(7.4613e-06 5.54454e-06 0)
(7.58152e-06 5.68458e-06 0)
(7.70034e-06 5.82579e-06 1.91989e-21)
(5.2295e-06 3.25462e-06 0)
(5.34435e-06 3.38278e-06 0)
(5.45985e-06 3.50922e-06 0)
(5.57571e-06 3.63453e-06 0)
(5.69215e-06 3.75936e-06 0)
(5.8091e-06 3.88407e-06 0)
(5.92665e-06 4.00909e-06 0)
(6.04478e-06 4.13471e-06 0)
(6.16353e-06 4.26119e-06 0)
(6.28289e-06 4.38877e-06 0)
(6.40287e-06 4.51763e-06 0)
(6.52347e-06 4.64794e-06 0)
(6.64466e-06 4.77984e-06 0)
(6.76645e-06 4.91346e-06 0)
(6.8888e-06 5.04891e-06 0)
(7.01167e-06 5.18629e-06 0)
(7.135e-06 5.32568e-06 0)
(7.25871e-06 5.46717e-06 0)
(7.38258e-06 5.61081e-06 0)
(7.50466e-06 5.75625e-06 2.03742e-21)
(4.88627e-06 3.11026e-06 0)
(5.01644e-06 3.24352e-06 0)
(5.14587e-06 3.37482e-06 0)
(5.27427e-06 3.50462e-06 0)
(5.40207e-06 3.63369e-06 0)
(5.52928e-06 3.76238e-06 0)
(5.65614e-06 3.89119e-06 0)
(5.78272e-06 4.02041e-06 0)
(5.90916e-06 4.15037e-06 0)
(6.03555e-06 4.28131e-06 0)
(6.16198e-06 4.41345e-06 0)
(6.28853e-06 4.54699e-06 0)
(6.41525e-06 4.68209e-06 0)
(6.54221e-06 4.81892e-06 0)
(6.66944e-06 4.95762e-06 0)
(6.79696e-06 5.09836e-06 0)
(6.92475e-06 5.24128e-06 0)
(7.05278e-06 5.3866e-06 0)
(7.18091e-06 5.53449e-06 0)
(7.30698e-06 5.68479e-06 2.19849e-21)
(4.52762e-06 2.94308e-06 0)
(4.67406e-06 3.08334e-06 0)
(4.8184e-06 3.22134e-06 0)
(4.96028e-06 3.3573e-06 0)
(5.10041e-06 3.49216e-06 0)
(5.23882e-06 3.62626e-06 0)
(5.37589e-06 3.76017e-06 0)
(5.51179e-06 3.89424e-06 0)
(5.64676e-06 4.02881e-06 0)
(5.78098e-06 4.16418e-06 0)
(5.91461e-06 4.3006e-06 0)
(6.04782e-06 4.4383e-06 0)
(6.18073e-06 4.57747e-06 0)
(6.31346e-06 4.71832e-06 0)
(6.44613e-06 4.86103e-06 0)
(6.5788e-06 5.00583e-06 0)
(6.71152e-06 5.15292e-06 0)
(6.84433e-06 5.30264e-06 0)
(6.97717e-06 5.45526e-06 0)
(7.10787e-06 5.61082e-06 2.39731e-21)
(4.15911e-06 2.75401e-06 0)
(4.3222e-06 2.90305e-06 0)
(4.48196e-06 3.04944e-06 0)
(4.63788e-06 3.19316e-06 0)
(4.79091e-06 3.33529e-06 0)
(4.94113e-06 3.47621e-06 0)
(5.08905e-06 3.61653e-06 0)
(5.23489e-06 3.75664e-06 0)
(5.37899e-06 3.89695e-06 0)
(5.5216e-06 4.03779e-06 0)
(5.66298e-06 4.17946e-06 0)
(5.80334e-06 4.32222e-06 0)
(5.9429e-06 4.46631e-06 0)
(6.08184e-06 4.61195e-06 0)
(6.22032e-06 4.75939e-06 0)
(6.35849e-06 4.90888e-06 0)
(6.49647e-06 5.06071e-06 0)
(6.63437e-06 5.21528e-06 0)
(6.77222e-06 5.37298e-06 0)
(6.9081e-06 5.534e-06 2.62638e-21)
(3.78616e-06 2.54484e-06 0)
(3.96573e-06 2.70425e-06 0)
(4.14095e-06 2.86049e-06 0)
(4.31108e-06 3.01341e-06 0)
(4.47725e-06 3.1641e-06 0)
(4.63958e-06 3.31307e-06 0)
(4.79865e-06 3.46095e-06 0)
(4.95479e-06 3.60821e-06 0)
(5.10838e-06 3.75531e-06 0)
(5.25974e-06 3.90263e-06 0)
(5.4092e-06 4.05049e-06 0)
(5.55705e-06 4.19919e-06 0)
(5.70355e-06 4.349e-06 0)
(5.84895e-06 4.5002e-06 0)
(5.99349e-06 4.65304e-06 0)
(6.13738e-06 4.80782e-06 0)
(6.28082e-06 4.96488e-06 0)
(6.42398e-06 5.12467e-06 0)
(6.56705e-06 5.28765e-06 0)
(6.70853e-06 5.45422e-06 2.8774e-21)
(3.41366e-06 2.3181e-06 0)
(3.60886e-06 2.48903e-06 0)
(3.79893e-06 2.65615e-06 0)
(3.98312e-06 2.81952e-06 0)
(4.16239e-06 2.97996e-06 0)
(4.33696e-06 3.13813e-06 0)
(4.50737e-06 3.29464e-06 0)
(4.674e-06 3.45007e-06 0)
(4.83728e-06 3.60491e-06 0)
(4.9976e-06 3.75958e-06 0)
(5.15534e-06 3.91447e-06 0)
(5.31084e-06 4.06991e-06 0)
(5.46444e-06 4.2262e-06 0)
(5.61644e-06 4.38363e-06 0)
(5.76714e-06 4.54249e-06 0)
(5.91683e-06 4.7031e-06 0)
(6.06579e-06 4.86581e-06 0)
(6.21427e-06 5.03111e-06 0)
(6.36261e-06 5.19949e-06 0)
(6.51004e-06 5.37159e-06 3.14108e-21)
(3.08302e-06 2.11184e-06 0)
(3.28985e-06 2.29268e-06 0)
(3.49101e-06 2.46868e-06 0)
(3.68609e-06 2.64089e-06 0)
(3.87569e-06 2.80981e-06 0)
(4.06006e-06 2.97611e-06 0)
(4.23966e-06 3.14038e-06 0)
(4.41487e-06 3.30319e-06 0)
(4.58612e-06 3.46505e-06 0)
(4.75381e-06 3.62639e-06 0)
(4.91836e-06 3.78763e-06 0)
(5.08015e-06 3.9491e-06 0)
(5.23954e-06 4.11111e-06 0)
(5.39689e-06 4.27398e-06 0)
(5.55255e-06 4.43797e-06 0)
(5.70687e-06 4.60342e-06 0)
(5.86019e-06 4.77066e-06 0)
(6.01284e-06 4.94016e-06 0)
(6.1653e-06 5.11238e-06 0)
(6.31757e-06 5.28822e-06 3.37178e-21)
(6.33202e-06 3.60571e-06 -2.7004e-21)
(6.40519e-06 3.7332e-06 -2.6773e-21)
(6.48404e-06 3.85878e-06 -2.65497e-21)
(6.56803e-06 3.98306e-06 -2.6334e-21)
(6.65662e-06 4.10654e-06 -2.61257e-21)
(6.7493e-06 4.22963e-06 -2.59243e-21)
(6.84563e-06 4.35269e-06 -2.57293e-21)
(6.9452e-06 4.47601e-06 -2.55403e-21)
(7.04763e-06 4.59984e-06 -2.5357e-21)
(7.1526e-06 4.72439e-06 -2.5179e-21)
(7.25977e-06 4.84983e-06 -2.5006e-21)
(7.36887e-06 4.97632e-06 -2.48378e-21)
(7.47959e-06 5.10397e-06 -2.46744e-21)
(7.59167e-06 5.23288e-06 -2.45156e-21)
(7.70482e-06 5.36311e-06 -2.43615e-21)
(7.81875e-06 5.49465e-06 -2.42123e-21)
(7.93315e-06 5.62746e-06 -2.40681e-21)
(8.04771e-06 5.76136e-06 -2.39292e-21)
(8.16203e-06 5.89606e-06 -2.37962e-21)
(8.19987e-06 5.98003e-06 -2.81407e-22)
(6.11026e-06 3.54969e-06 0)
(6.18962e-06 3.67448e-06 0)
(6.2736e-06 3.79763e-06 0)
(6.36173e-06 3.91977e-06 0)
(6.45365e-06 4.0414e-06 0)
(6.54898e-06 4.1629e-06 0)
(6.64737e-06 4.28462e-06 0)
(6.74852e-06 4.40682e-06 0)
(6.85214e-06 4.52975e-06 0)
(6.95795e-06 4.65359e-06 0)
(7.0657e-06 4.77852e-06 0)
(7.17515e-06 4.90466e-06 0)
(7.28608e-06 5.03215e-06 0)
(7.39826e-06 5.16106e-06 0)
(7.51148e-06 5.29145e-06 0)
(7.62552e-06 5.42331e-06 0)
(7.74017e-06 5.5566e-06 0)
(7.85523e-06 5.69114e-06 0)
(7.97047e-06 5.82663e-06 0)
(8.08526e-06 5.96236e-06 1.82362e-21)
(5.84716e-06 3.47393e-06 0)
(5.93612e-06 3.59783e-06 0)
(6.02843e-06 3.72017e-06 0)
(6.12373e-06 3.84165e-06 0)
(6.22183e-06 3.96276e-06 0)
(6.32246e-06 4.0839e-06 0)
(6.42543e-06 4.2054e-06 0)
(6.53051e-06 4.32752e-06 0)
(6.63754e-06 4.45052e-06 0)
(6.74632e-06 4.57457e-06 0)
(6.85667e-06 4.69984e-06 0)
(6.96844e-06 4.82648e-06 0)
(7.08146e-06 4.95459e-06 0)
(7.19559e-06 5.08426e-06 0)
(7.31067e-06 5.21556e-06 0)
(7.42655e-06 5.34849e-06 0)
(7.54309e-06 5.48302e-06 0)
(7.66011e-06 5.61904e-06 0)
(7.77741e-06 5.75631e-06 0)
(7.89378e-06 5.89414e-06 1.84957e-21)
(5.5518e-06 3.37563e-06 0)
(5.65275e-06 3.50069e-06 0)
(5.75572e-06 3.62416e-06 0)
(5.86039e-06 3.74671e-06 0)
(5.96679e-06 3.86891e-06 0)
(6.07475e-06 3.99112e-06 0)
(6.18421e-06 4.11372e-06 0)
(6.29507e-06 4.23699e-06 0)
(6.40724e-06 4.36117e-06 0)
(6.52062e-06 4.48647e-06 0)
(6.63515e-06 4.61305e-06 0)
(6.75072e-06 4.74106e-06 0)
(6.86726e-06 4.87064e-06 0)
(6.98468e-06 5.00187e-06 0)
(7.10289e-06 5.13485e-06 0)
(7.22181e-06 5.26962e-06 0)
(7.34132e-06 5.40619e-06 0)
(7.4613e-06 5.54454e-06 0)
(7.58152e-06 5.68458e-06 0)
(7.70034e-06 5.82579e-06 1.91989e-21)
(5.2295e-06 3.25462e-06 0)
(5.34435e-06 3.38278e-06 0)
(5.45985e-06 3.50922e-06 0)
(5.57571e-06 3.63453e-06 0)
(5.69215e-06 3.75936e-06 0)
(5.8091e-06 3.88407e-06 0)
(5.92665e-06 4.00909e-06 0)
(6.04478e-06 4.13471e-06 0)
(6.16353e-06 4.26119e-06 0)
(6.28289e-06 4.38877e-06 0)
(6.40287e-06 4.51763e-06 0)
(6.52347e-06 4.64794e-06 0)
(6.64466e-06 4.77984e-06 0)
(6.76645e-06 4.91346e-06 0)
(6.8888e-06 5.04891e-06 0)
(7.01167e-06 5.18629e-06 0)
(7.135e-06 5.32568e-06 0)
(7.25871e-06 5.46717e-06 0)
(7.38258e-06 5.61081e-06 0)
(7.50466e-06 5.75625e-06 2.03742e-21)
(4.88627e-06 3.11026e-06 0)
(5.01644e-06 3.24352e-06 0)
(5.14587e-06 3.37482e-06 0)
(5.27427e-06 3.50462e-06 0)
(5.40207e-06 3.63369e-06 0)
(5.52928e-06 3.76238e-06 0)
(5.65614e-06 3.89119e-06 0)
(5.78272e-06 4.02041e-06 0)
(5.90916e-06 4.15037e-06 0)
(6.03555e-06 4.28131e-06 0)
(6.16198e-06 4.41345e-06 0)
(6.28853e-06 4.54699e-06 0)
(6.41525e-06 4.68209e-06 0)
(6.54221e-06 4.81892e-06 0)
(6.66944e-06 4.95762e-06 0)
(6.79696e-06 5.09836e-06 0)
(6.92475e-06 5.24128e-06 0)
(7.05278e-06 5.3866e-06 0)
(7.18091e-06 5.53449e-06 0)
(7.30698e-06 5.68479e-06 2.19849e-21)
(4.52762e-06 2.94308e-06 0)
(4.67406e-06 3.08334e-06 0)
(4.8184e-06 3.22134e-06 0)
(4.96028e-06 3.3573e-06 0)
(5.10041e-06 3.49216e-06 0)
(5.23882e-06 3.62626e-06 0)
(5.37589e-06 3.76017e-06 0)
(5.51179e-06 3.89424e-06 0)
(5.64676e-06 4.02881e-06 0)
(5.78098e-06 4.16418e-06 0)
(5.91461e-06 4.3006e-06 0)
(6.04782e-06 4.4383e-06 0)
(6.18073e-06 4.57747e-06 0)
(6.31346e-06 4.71832e-06 0)
(6.44613e-06 4.86103e-06 0)
(6.5788e-06 5.00583e-06 0)
(6.71152e-06 5.15292e-06 0)
(6.84433e-06 5.30264e-06 0)
(6.97717e-06 5.45526e-06 0)
(7.10787e-06 5.61082e-06 2.39731e-21)
(4.15911e-06 2.75401e-06 0)
(4.3222e-06 2.90305e-06 0)
(4.48196e-06 3.04944e-06 0)
(4.63788e-06 3.19316e-06 0)
(4.79091e-06 3.33529e-06 0)
(4.94113e-06 3.47621e-06 0)
(5.08905e-06 3.61653e-06 0)
(5.23489e-06 3.75664e-06 0)
(5.37899e-06 3.89695e-06 0)
(5.5216e-06 4.03779e-06 0)
(5.66298e-06 4.17946e-06 0)
(5.80334e-06 4.32222e-06 0)
(5.9429e-06 4.46631e-06 0)
(6.08184e-06 4.61195e-06 0)
(6.22032e-06 4.75939e-06 0)
(6.35849e-06 4.90888e-06 0)
(6.49647e-06 5.06071e-06 0)
(6.63437e-06 5.21528e-06 0)
(6.77222e-06 5.37298e-06 0)
(6.9081e-06 5.534e-06 2.62638e-21)
(3.78616e-06 2.54484e-06 0)
(3.96573e-06 2.70425e-06 0)
(4.14095e-06 2.86049e-06 0)
(4.31108e-06 3.01341e-06 0)
(4.47725e-06 3.1641e-06 0)
(4.63958e-06 3.31307e-06 0)
(4.79865e-06 3.46095e-06 0)
(4.95479e-06 3.60821e-06 0)
(5.10838e-06 3.75531e-06 0)
(5.25974e-06 3.90263e-06 0)
(5.4092e-06 4.05049e-06 0)
(5.55705e-06 4.19919e-06 0)
(5.70355e-06 4.349e-06 0)
(5.84895e-06 4.5002e-06 0)
(5.99349e-06 4.65304e-06 0)
(6.13738e-06 4.80782e-06 0)
(6.28082e-06 4.96488e-06 0)
(6.42398e-06 5.12467e-06 0)
(6.56705e-06 5.28765e-06 0)
(6.70853e-06 5.45422e-06 2.8774e-21)
(3.41366e-06 2.3181e-06 0)
(3.60886e-06 2.48903e-06 0)
(3.79893e-06 2.65615e-06 0)
(3.98312e-06 2.81952e-06 0)
(4.16239e-06 2.97996e-06 0)
(4.33696e-06 3.13813e-06 0)
(4.50737e-06 3.29464e-06 0)
(4.674e-06 3.45007e-06 0)
(4.83728e-06 3.60491e-06 0)
(4.9976e-06 3.75958e-06 0)
(5.15534e-06 3.91447e-06 0)
(5.31084e-06 4.06991e-06 0)
(5.46444e-06 4.2262e-06 0)
(5.61644e-06 4.38363e-06 0)
(5.76714e-06 4.54249e-06 0)
(5.91683e-06 4.7031e-06 0)
(6.06579e-06 4.86581e-06 0)
(6.21427e-06 5.03111e-06 0)
(6.36261e-06 5.19949e-06 0)
(6.51004e-06 5.37159e-06 3.14108e-21)
(3.08302e-06 2.11184e-06 0)
(3.28985e-06 2.29268e-06 0)
(3.49101e-06 2.46868e-06 0)
(3.68609e-06 2.64089e-06 0)
(3.87569e-06 2.80981e-06 0)
(4.06006e-06 2.97611e-06 0)
(4.23966e-06 3.14038e-06 0)
(4.41487e-06 3.30319e-06 0)
(4.58612e-06 3.46505e-06 0)
(4.75381e-06 3.62639e-06 0)
(4.91836e-06 3.78763e-06 0)
(5.08015e-06 3.9491e-06 0)
(5.23954e-06 4.11111e-06 0)
(5.39689e-06 4.27398e-06 0)
(5.55255e-06 4.43797e-06 0)
(5.70687e-06 4.60342e-06 0)
(5.86019e-06 4.77066e-06 0)
(6.01284e-06 4.94016e-06 0)
(6.1653e-06 5.11238e-06 0)
(6.31757e-06 5.28822e-06 3.37178e-21)
(2.59331e-06 1.76734e-06 0)
(2.84232e-06 1.97046e-06 0)
(3.05313e-06 2.15548e-06 0)
(3.25821e-06 2.33547e-06 0)
(3.45749e-06 2.51201e-06 0)
(3.65129e-06 2.68541e-06 0)
(3.83986e-06 2.85624e-06 0)
(4.02354e-06 3.02501e-06 0)
(4.20267e-06 3.19219e-06 0)
(4.37764e-06 3.35824e-06 0)
(4.54882e-06 3.52357e-06 0)
(4.7166e-06 3.68852e-06 0)
(4.88134e-06 3.85343e-06 0)
(5.04343e-06 4.01858e-06 0)
(5.20323e-06 4.18425e-06 0)
(5.36111e-06 4.3507e-06 0)
(5.51743e-06 4.51821e-06 0)
(5.67259e-06 4.68709e-06 0)
(5.82698e-06 4.85773e-06 0)
(5.98114e-06 5.0305e-06 0)
(6.13546e-06 5.20627e-06 3.51337e-21)
(2.417e-06 1.664e-06 0)
(2.65776e-06 1.86449e-06 0)
(2.86708e-06 2.04986e-06 0)
(3.0714e-06 2.23114e-06 0)
(3.27047e-06 2.40954e-06 0)
(3.46453e-06 2.5852e-06 0)
(3.65367e-06 2.75854e-06 0)
(3.83814e-06 2.92994e-06 0)
(4.0182e-06 3.09978e-06 0)
(4.19416e-06 3.26842e-06 0)
(4.36635e-06 3.43619e-06 0)
(4.53509e-06 3.60339e-06 0)
(4.70075e-06 3.77031e-06 0)
(4.86366e-06 3.93719e-06 0)
(5.02419e-06 4.10426e-06 0)
(5.18271e-06 4.27174e-06 0)
(5.33957e-06 4.43986e-06 0)
(5.49521e-06 4.60887e-06 0)
(5.65001e-06 4.77906e-06 0)
(5.8046e-06 4.9507e-06 0)
(5.95939e-06 5.12438e-06 3.58878e-21)
(2.26053e-06 1.56452e-06 0)
(2.49234e-06 1.76226e-06 0)
(2.69796e-06 1.94717e-06 0)
(2.89966e-06 2.12901e-06 0)
(3.09683e-06 2.30866e-06 0)
(3.28961e-06 2.48608e-06 0)
(3.47793e-06 2.66152e-06 0)
(3.66196e-06 2.83523e-06 0)
(3.84185e-06 3.00747e-06 0)
(4.01784e-06 3.1785e-06 0)
(4.19019e-06 3.34858e-06 0)
(4.35919e-06 3.51794e-06 0)
(4.52514e-06 3.68681e-06 0)
(4.68837e-06 3.85537e-06 0)
(4.84921e-06 4.02381e-06 0)
(5.00802e-06 4.19229e-06 0)
(5.16515e-06 4.36099e-06 0)
(5.32104e-06 4.53008e-06 0)
(5.47608e-06 4.69973e-06 0)
(5.63094e-06 4.87009e-06 0)
(5.78602e-06 5.04147e-06 3.63623e-21)
(2.12102e-06 1.46969e-06 0)
(2.34335e-06 1.66403e-06 0)
(2.54398e-06 1.84779e-06 0)
(2.74169e-06 2.02958e-06 0)
(2.93564e-06 2.20995e-06 0)
(3.1259e-06 2.38868e-06 0)
(3.31224e-06 2.56583e-06 0)
(3.49476e-06 2.74152e-06 0)
(3.67351e-06 2.91588e-06 0)
(3.84867e-06 3.08908e-06 0)
(4.02043e-06 3.26129e-06 0)
(4.18901e-06 3.43267e-06 0)
(4.3547e-06 3.60336e-06 0)
(4.51776e-06 3.77352e-06 0)
(4.6785e-06 3.94326e-06 0)
(4.83726e-06 4.1127e-06 0)
(4.99439e-06 4.28192e-06 0)
(5.15028e-06 4.45102e-06 0)
(5.3054e-06 4.62006e-06 0)
(5.46041e-06 4.78904e-06 0)
(5.61561e-06 4.95803e-06 3.65368e-21)
(1.99606e-06 1.37981e-06 0)
(2.2087e-06 1.5704e-06 0)
(2.40339e-06 1.75246e-06 0)
(2.59608e-06 1.93365e-06 0)
(2.78578e-06 2.11422e-06 0)
(2.9725e-06 2.29376e-06 0)
(3.15591e-06 2.4722e-06 0)
(3.33602e-06 2.64949e-06 0)
(3.51281e-06 2.82565e-06 0)
(3.68639e-06 3.00075e-06 0)
(3.85687e-06 3.17485e-06 0)
(4.02445e-06 3.34805e-06 0)
(4.18934e-06 3.52042e-06 0)
(4.35179e-06 3.69205e-06 0)
(4.51206e-06 3.86299e-06 0)
(4.67048e-06 4.03329e-06 0)
(4.82735e-06 4.20297e-06 0)
(4.98306e-06 4.37202e-06 0)
(5.13804e-06 4.54038e-06 0)
(5.29295e-06 4.70798e-06 0)
(5.44806e-06 4.87464e-06 3.63957e-21)
(1.88316e-06 1.29488e-06 0)
(2.08618e-06 1.48144e-06 0)
(2.27433e-06 1.66137e-06 0)
(2.46128e-06 1.84151e-06 0)
(2.64598e-06 2.02183e-06 0)
(2.82838e-06 2.20176e-06 0)
(3.00809e-06 2.38108e-06 0)
(3.18505e-06 2.55961e-06 0)
(3.35918e-06 2.73725e-06 0)
(3.53052e-06 2.91395e-06 0)
(3.69915e-06 3.0897e-06 0)
(3.8652e-06 3.2645e-06 0)
(4.02884e-06 3.43836e-06 0)
(4.19028e-06 3.6113e-06 0)