/*--------------------------------*- C++ -*----------------------------------*\
  =========                 |
  \\      /  F ield         | OpenFOAM: The Open Source CFD Toolbox
   \\    /   O peration     | Website:  https://openfoam.org
    \\  /    A nd           | Version:  9
     \\/     M anipulation  |
\*---------------------------------------------------------------------------*/
FoamFile
{
    format      ascii;
    class       volScalarField;
    location    "5";
    object      sigmaEq;
}
// * * * * * * * * * * * * * * * * * * * * * * * * * * * * * * * * * * * * * //

dimensions      [1 -1 -2 0 0 0 0];

internalField   nonuniform List<scalar> 
1000
(
860884
814375
799781
799718
797401
792349
784414
773920
763010
749568
1.00396e+06
912680
869069
850395
834653
820067
804879
789161
772645
757047
1.14362e+06
1.00884e+06
934886
894022
863022
837431
813980
791983
770191
751046
1.27936e+06
1.10242e+06
995776
931077
883295
845562
813127
784524
757504
734836
1.40754e+06
1.18942e+06
1.05049e+06
961099
895499
844794
802929
767560
736290
710455
1.52613e+06
1.26938e+06
1.09865e+06
984140
900107
836045
785345
744045
708185
678781
1.62851e+06
1.33782e+06
1.13554e+06
996601
895064
819548
761308
714216
674560
641943
1.72654e+06
1.39461e+06
1.15919e+06
997935
881567
797814
733451
682240
640128
605185
1.80041e+06
1.41795e+06
1.14922e+06
973147
853716
767234
701777
649761
607400
571551
1.89184e+06
1.38864e+06
1.10899e+06
938588
827630
745099
682443
631754
590209
554126
4833.5
6488.89
28773.5
60978.2
96839.6
134076
170362
205004
236816
266388
7475.68
41391.2
88157.4
133975
175084
211874
244258
273421
298553
322383
33142.3
98025.5
157147
209887
254198
291213
321603
347370
367739
387330
78376.8
167662
234229
289659
334050
369713
397666
420307
436689
452856
143729
246865
317243
372696
414755
447305
471726
490639
502988
515714
228927
332515
402183
455395
493542
521821
541929
556607
564829
573937
331967
423261
486957
535468
568364
591507
606750
616812
620860
626103
450228
517960
569885
610818
637103
654367
664411
669639
669754
670876
580253
615564
650075
680324
698488
709094
713809
714305
710735
708045
718453
714851
726832
743143
751675
755209
753864
748796
742273
733898
292937
315915
337178
356382
373747
389354
403367
415880
427028
436892
445567
453108
459569
464979
469354
472716
475054
476450
476891
476678
340780
354581
368468
381278
393309
404426
414697
424088
432656
440399
447364
453564
459028
463771
467802
471133
473728
475590
476523
476482
398473
403550
409940
415921
422021
427949
433780
439360
444714
449757
454495
458892
462944
466634
469941
472839
475227
477020
477806
477439
457873
455467
455264
455045
455563
456427
457799
459437
461380
463479
465722
468026
470359
472667
474892
476967
478735
480072
480470
479820
515317
506600
500704
495078
490645
486873
484081
481924
480509
479634
479294
479371
479814
480543
481469
482501
483450
484176
484180
483386
568712
554741
544066
533794
525138
517276
510780
505164
500623
496914
494047
491888
490382
489433
488944
488810
488854
488934
488651
487924
616660
598468
584078
569885
557780
546384
536638
527915
520509
514164
508905
504598
501187
498572
496662
495351
494498
493972
493533
493061
657945
636493
619638
602161
587393
573172
560761
549445
539542
530840
523370
517032
511781
507533
504216
501740
500024
498951
498484
498437
692924
668098
650508
630651
613721
597187
582405
568850
556759
546003
536590
528451
521545
515810
511201
507650
505154
503613
503215
503694
719953
693684
676025
655616
637388
619572
602959
587507
573409
560678
549352
539411
530837
523593
517668
513017
509718
507699
507386
508453
731906
707261
689085
669430
650701
632611
615450
599271
584299
570590
558229
547233
537627
529405
522601
517205
513372
511055
510865
512430
714374
699809
683083
665798
648825
632152
616105
600759
586367
573017
560835
549875
540201
531847
524888
519353
515457
513189
513296
515359
700687
688637
675339
660202
645295
630036
615148
600666
586918
574012
562112
551303
541682
533316
526313
520741
516857
514663
514991
517382
683468
674763
664426
651592
638615
624882
611301
597874
584986
572756
561380
550964
541631
533472
526616
521170
517380
515337
515909
518483
663983
657980
650340
639767
628864
616863
604793
592631
580817
569476
558835
549019
540168
532398
525832
520649
516949
515279
515137
518638
642877
639355
634166
625770
616865
606620
596118
585328
574717
564419
554680
545635
537445
530224
524135
519287
515983
514300
514972
517472
620623
619241
616230
609908
602928
594451
585560
576223
566918
557787
549084
540954
533562
527029
521517
517129
514152
512589
513203
515551
597677
598144
597067
592662
587485
580727
573436
565587
557651
549774
542212
535110
528637
522906
518074
514227
511620
510259
510791
512807
574280
576304
576911
574258
570765
565668
559958
553616
547097
540543
534206
528229
522772
517945
513885
510662
508486
507336
507756
509378
550555
553888
555961
554904
552980
549481
545323
540495
535425
530249
525206
520431
516076
512238
509034
506513
504827
503942
504245
505415
526503
530934
534289
534695
534250
532298
529676
526374
522785
519037
515349
511846
508666
505893
503618
501872
500744
500173
500383
501103
502034
507410
511912
513690
514667
514237
513154
511402
509335
507065
504791
502623
500680
499035
497754
496848
496344
496156
496328
496636
476970
483203
488775
491889
494280
495391
495881
495731
495243
494515
493715
492940
492289
491824
491588
491576
491759
492024
492240
492213
451091
458176
464819
469302
473158
475877
478019
479550
480723
481611
482354
483028
483716
484467
485308
486223
487139
487922
488282
488032
424100
432135
439944
445920
451372
455834
459759
463096
466042
468642
471004
473185
475250
477236
479161
481004
482672
484014
484624
484286
395778
404992
414173
421863
429123
435527
441416
446717
451569
455989
460050
463788
467251
470469
473453
476188
478580
480480
481422
481141
365822
376614
387526
397284
406669
415298
423392
430858
437778
444139
449984
455329
460202
464625
468609
472147
475167
477546
478851
478759
334436
347384
360515
372783
384668
395829
406374
416195
425319
433715
441397
448363
454629
460203
465093
469303
472790
475482
477062
477209
301729
317686
333739
349092
363936
377975
391231
403585
415035
425537
435090
443684
451316
457983
463676
468390
472092
474777
476303
476582
269922
289724
309304
328128
346199
363254
379276
394150
407868
420391
431719
441840
450743
458410
464802
469884
473583
475928
476855
476757
523646
540585
573021
609454
646995
680163
706638
724764
734713
733446
495602
511572
542082
577355
615243
650569
680971
703757
718655
721885
470321
485497
514020
547260
583669
618482
649748
675307
694807
706260
447140
461832
488876
520519
555782
590206
621843
648652
669641
685481
425381
439662
465311
495231
528953
562458
593963
621921
644245
663306
404920
418942
443500
471953
504220
536622
567401
595568
618243
639413
385352
399156
422751
449838
480669
511914
541852
569970
592674
614866
366581
380207
402988
428860
458323
488339
517227
544899
567388
590001
348416
361854
383894
408645
436815
465610
493419
520431
542545
565097
330801
344011
365344
389031
415947
443495
470176
496351
518001
540215
313684
326585
347179
369798
395469
421747
447280
472498
493607
515301
297098
309556
329304
350778
375146
400091
424433
448604
469119
490196
281155
292956
311627
331769
354696
378206
401297
424351
444236
464652
266078
276869
294073
312573
333823
355741
377494
399373
418609
438369
252319
261482
276500
292822
312029
332154
352479
373162
391779
410951
240530
246886
258656
272128
288843
306944
325760
345266
363348
382064
232021
233324
239810
249347
263047
278981
296351
314860
332662
351220
227656
219620
218740
223555
233940
247712
263859
281706
299639
318462
230961
203974
191519
190682
198237
210678
226530
244652
263612
283534
232283
175111
155614
150022
156378
168765
185643
205325
226493
248579
)
;

boundaryField
{
    left
    {
        type            calculated;
        value           nonuniform List<scalar> 
30
(
519212
491257
466047
442897
421184
400782
381312
362688
344736
327415
310693
294622
279333
265079
252351
242005
235733
236429
252864
290839
2.00968e+06
1.35158e+06
1.07273e+06
916340
815100
737201
676993
627265
586140
549869
)
;
    }
    right
    {
        type            calculated;
        value           nonuniform List<scalar> 
30
(
476581
476483
477387
479740
483290
487835
492996
498414
503715
508541
512541
515538
517580
518693
518692
517653
515745
512972
509509
505506
501155
496650
492195
487991
484236
481094
478732
477206
476605
476648
)
;
    }
    down
    {
        type            calculated;
        value           nonuniform List<scalar> 
30
(
3900
2500.03
21149.4
52756.5
89227.8
127369
164634
200166
232763
262963
290153
313848
335614
355187
372845
388668
402854
415498
426751
436696
445434
453024
459520
464956
469347
472717
475054
476447
476889
476729
)
;
    }
    up
    {
        type            calculated;
        value           nonuniform List<scalar> 
30
(
225287
173103
155001
149474
155697
167918
184677
204296
225435
247542
268922
288823
308522
327449
345624
362770
378877
393826
407610
420192
431571
441734
450674
458370
464783
469880
473585
475929
476850
476789
)
;
    }
    hole
    {
        type            calculated;
        value           nonuniform List<scalar> 
20
(
855698
1.00295e+06
1.14662e+06
1.28385e+06
1.41549e+06
1.53747e+06
1.64269e+06
1.7437e+06
1.82071e+06
1.90916e+06
2806.82
2811.48
16209.6
56906
120524
206372
311534
432949
566736
709042
)
;
    }
    frontAndBack
    {
        type            empty;
    }
}


// ************************************************************************* //
