/*--------------------------------*- C++ -*----------------------------------*\
  =========                 |
  \\      /  F ield         | OpenFOAM: The Open Source CFD Toolbox
   \\    /   O peration     | Website:  https://openfoam.org
    \\  /    A nd           | Version:  9
     \\/     M anipulation  |
\*---------------------------------------------------------------------------*/
FoamFile
{
    format      ascii;
    class       volSymmTensorField;
    location    "5";
    object      sigma;
}
// * * * * * * * * * * * * * * * * * * * * * * * * * * * * * * * * * * * * * //

dimensions      [1 -1 -2 0 0 0 0];

internalField   nonuniform List<symmTensor> 
1000
(
(614696 -420684 -2.25355e-10 357055 -3.06637e-10 85361)
(721142 -324393 -1.86943e-10 195001 -2.38534e-10 84043.6)
(774748 -248475 -1.49308e-10 118592 -1.85958e-10 84007.6)
(797483 -191204 -1.18988e-10 58638.7 -1.44363e-10 80995.6)
(805807 -145160 -8.98413e-11 23578.1 -1.09192e-10 77466.3)
(802490 -109150 -6.84876e-11 -2555.07 -8.26654e-11 74386.5)
(794433 -79890 -5.18429e-11 -19385.5 -6.20727e-11 72192.8)
(781978 -56622.9 -3.94839e-11 -31544.6 -4.63504e-11 70308.2)
(769131 -37285 -2.95388e-11 -39534.8 -3.37384e-11 68894.2)
(752116 -21194 -2.2232e-11 -47193.1 -2.36631e-11 67272.1)
(779478 -467734 -2.49807e-10 360220 -3.37736e-10 101050)
(849797 -334836 -1.87997e-10 205583 -2.45354e-10 97132.9)
(878584 -238930 -1.34883e-10 135984 -1.77941e-10 94457.3)
(881358 -170020 -9.28068e-11 79113.7 -1.25617e-10 88120.8)
(874330 -117476 -6.1849e-11 46751.9 -8.77608e-11 84271.6)
(858425 -78173.9 -4.03046e-11 21707.1 -6.02503e-11 80754.7)
(840099 -47487 -2.42899e-11 5631.99 -3.96708e-11 78169.9)
(819149 -24155.6 -1.31727e-11 -7054.08 -2.45647e-11 75796)
(798380 -5247.92 -4.674e-12 -14769.9 -1.29391e-11 74018.9)
(775436 9890.55 1.0918e-12 -25218.8 -3.67435e-12 71725.2)
(957004 -497452 -2.65497e-10 346907 -3.5685e-10 116853)
(980809 -334437 -1.77414e-10 211370 -2.41083e-10 108053)
(979142 -222423 -1.09152e-10 154952 -1.607e-10 102149)
(958596 -144367 -6.47189e-11 104910 -1.05093e-10 95672.9)
(934188 -87235.6 -3.33947e-11 77498.1 -6.62457e-11 91670.7)
(904479 -46061.3 -1.2696e-11 54878.6 -3.89459e-11 87811.4)
(875312 -15132.7 1.88455e-12 40428.3 -1.93117e-11 84904.2)
(845469 7463.29 1.12169e-11 27875.2 -5.46e-12 82096.3)
(817470 25025.4 1.78029e-11 20473.9 4.62774e-12 79983.1)
(788334 39306.1 2.20728e-11 8361.15 1.29931e-11 77153.3)
(1.14143e+06 -505654 -2.57631e-10 319769 -3.53117e-10 127813)
(1.11122e+06 -321893 -1.50067e-10 213038 -2.21942e-10 114913)
(1.07496e+06 -199181 -7.99071e-11 175270 -1.39565e-10 109875)
(1.02831e+06 -115510 -3.56593e-11 135303 -8.36162e-11 103496)
(984842 -56292.7 -5.7398e-12 114629 -4.5781e-11 99456.3)
(940484 -15001.9 1.29145e-11 95336.7 -2.00273e-11 95306.1)
(900088 14855.1 2.51885e-11 82745.4 -2.26631e-12 92069.7)
(861556 35882.8 3.22518e-11 70473.6 9.78102e-12 88846)
(826579 51384 3.65068e-11 62861.1 1.794e-11 86330.5)
(792311 64016.2 3.9029e-11 49838.4 2.49314e-11 83078.8)
(1.32451e+06 -488472 -2.20382e-10 282085 -3.2192e-10 132214)
(1.23726e+06 -295441 -1.14782e-10 211456 -1.93605e-10 121324)
(1.16381e+06 -168864 -4.72697e-11 196883 -1.14492e-10 117521)
(1.08923e+06 -84075.7 -6.22364e-12 169693 -6.1642e-11 111440)
(1.02567e+06 -26032.7 2.0141e-11 157236 -2.72296e-11 107460)
(966316 13077.3 3.52829e-11 141938 -4.64711e-12 103057)
(914837 40199.3 4.424e-11 131325 1.01403e-11 99491.3)
(867999 58518 4.89949e-11 119269 2.00907e-11 95605.8)
(826741 71113.6 5.44244e-11 110949 2.85739e-11 91110.2)
(787983 81394.7 5.75544e-11 97026.6 3.56252e-11 86408.2)
(1.5021e+06 -444959 -1.6766e-10 239759 -2.73253e-10 136098)
(1.35713e+06 -254015 -7.11051e-11 209516 -1.55852e-10 127588)
(1.24511e+06 -131072 -1.10424e-11 221506 -8.54666e-11 125288)
(1.14123e+06 -50697.7 2.31879e-11 208556 -3.96528e-11 119552)
(1.057e+06 2205.58 4.34506e-11 204823 -1.13923e-11 115614)
(982732 36405.2 5.33898e-11 193361 6.24087e-12 110905)
(920624 58966 6.13295e-11 184236 1.92547e-11 105625)
(866190 73400 6.68952e-11 171968 2.90089e-11 99576.8)
(819505 82445.2 6.96827e-11 162295 3.51227e-11 94426.4)
(777103 89840.5 7.07038e-11 147362 4.02489e-11 89272.6)
(1.66301e+06 -372360 -9.93206e-11 197442 -2.06775e-10 139557)
(1.46511e+06 -194546 -1.79116e-11 210367 -1.07504e-10 133875)
(1.31368e+06 -84706.5 2.87371e-11 251397 -5.24582e-11 133230)
(1.1805e+06 -15756.7 5.17812e-11 252590 -1.83041e-11 127729)
(1.07649e+06 27098 6.29978e-11 256511 7.59387e-13 123670)
(988725 53173.9 6.98978e-11 247571 1.43156e-11 116955)
(917545 69284.6 7.65644e-11 238660 2.50756e-11 109567)
(857023 78808.7 7.86416e-11 225277 3.15424e-11 102807)
(806236 83896.5 7.84456e-11 213482 3.50335e-11 97067.3)
(761156 88140.6 7.71698e-11 197247 3.80651e-11 91530.2)
(1.81798e+06 -270491 -1.33649e-11 167888 -1.22926e-10 144790)
(1.56235e+06 -114051 4.70845e-11 225630 -4.78287e-11 141799)
(1.3695e+06 -29115.3 7.26645e-11 295485 -1.60669e-11 142520)
(1.20797e+06 18747.7 7.85516e-11 306336 6.3894e-13 136582)
(1.086e+06 45965.4 7.88427e-11 313367 8.4668e-12 131266)
(987149 60930.6 8.37726e-11 303392 1.8396e-11 121127)
(909130 69406.8 8.49825e-11 292050 2.40663e-11 112831)
(844401 73709.9 8.31741e-11 275963 2.70745e-11 105417)
(790984 75147.2 8.00776e-11 261074 2.81724e-11 99157.5)
(744299 76539.7 7.6674e-11 243195 2.93204e-11 93316.8)
(1.9468e+06 -126821 9.53309e-11 166744 -1.69354e-11 153010)
(1.62809e+06 -12348.9 1.21336e-10 275580 1.92025e-11 152981)
(1.39239e+06 28209.3 1.13287e-10 364213 1.58453e-11 153415)
(1.209e+06 43532.8 9.5578e-11 372074 9.53861e-12 145554)
(1.07741e+06 51231.9 9.13868e-11 372084 1.07988e-11 134963)
(974114 53937 8.72451e-11 355056 1.26374e-11 123755)
(894089 55320.7 8.2917e-11 337733 1.36667e-11 114752)
(828334 55411.4 7.76948e-11 317285 1.39354e-11 106870)
(774360 54527 7.25128e-11 298725 1.35485e-11 100258)
(727290 54112.9 6.7678e-11 279166 1.35182e-11 94236.7)
(2.11471e+06 111901 2.71778e-10 289703 1.40899e-10 180676)
(1.65792e+06 124856 2.14646e-10 431468 9.44616e-11 176698)
(1.39002e+06 82265 1.49077e-10 477597 3.83179e-11 168842)
(1.20097e+06 53245.3 1.09832e-10 455497 1.086e-11 153223)
(1.06887e+06 41993.3 9.44598e-11 429299 3.43828e-12 138428)
(966124 35786.1 8.22913e-11 397541 -4.01481e-13 126075)
(886647 33639.3 7.40942e-11 370037 -1.53363e-12 116318)
(821226 32424.3 6.71911e-11 344246 -2.03274e-12 108050)
(767322 31475.6 6.1404e-11 322169 -2.3921e-12 101176)
(720065 30848 5.62664e-11 301609 -2.54627e-12 95058.5)
(-2829.67 993.892 -3.33983e-11 -1598.2 -1.87081e-11 2174.9)
(2221.67 -3517.18 -3.58096e-11 310.971 -2.17547e-11 2768.29)
(22592.3 -11072.7 -4.02332e-11 -1125.98 -2.67285e-11 4553.69)
(55207.1 -17122.4 -4.32892e-11 -2316.14 -3.06605e-11 7547.93)
(93111.2 -20855.1 -4.46182e-11 -2936.71 -3.30345e-11 11113.5)
(132894 -22979.5 -4.48165e-11 -3239.24 -3.43314e-11 14897.6)
(171871 -23813.4 -4.41771e-11 -3291.38 -3.47706e-11 18634.2)
(209117 -23879.4 -4.30711e-11 -3155.03 -3.47041e-11 22225.1)
(243264 -23247.6 -4.16255e-11 -3087.6 -3.41778e-11 25518.7)
(275100 -22758.6 -4.02675e-11 -2558.57 -3.37637e-11 28624.1)
(3706.54 -3778.44 -3.60216e-11 -252.998 -2.1914e-11 2865.81)
(29996.3 -20492.5 -4.37886e-11 12639.1 -3.32948e-11 6236.38)
(68162.3 -38951.6 -5.4293e-11 13193.7 -4.55627e-11 9793.08)
(108658 -53060.9 -6.26888e-11 9211.2 -5.48174e-11 13264.2)
(149370 -61743 -6.76006e-11 5378.52 -6.04365e-11 16813.2)
(188064 -66612.5 -7.00879e-11 1910.81 -6.35134e-11 20228.1)
(223950 -68373.5 -7.05529e-11 -754.422 -6.45314e-11 23460.3)
(257162 -68262.6 -6.97858e-11 -2661.68 -6.43179e-11 26509)
(286451 -66383.1 -6.79672e-11 -4298.48 -6.2936e-11 29216)
(314235 -64885.3 -6.61989e-11 -4452.03 -6.18443e-11 31888.2)
(11481 -18617.7 -4.31553e-11 12635.5 -3.20942e-11 4471.64)
(57499.2 -51177.6 -6.01344e-11 27243.8 -5.40706e-11 9736.76)
(110207 -74038.6 -7.34091e-11 25257.3 -6.91941e-11 14460.8)
(158617 -89355.9 -8.32665e-11 15489.8 -7.9119e-11 18241.5)
(203162 -97802.4 -8.87521e-11 6437.22 -8.44644e-11 21762.8)
(242394 -101782 -9.13676e-11 -1439.87 -8.68554e-11 24900.6)
(276845 -102279 -9.16043e-11 -7421.39 -8.69637e-11 27752.5)
(307549 -100660 -9.03417e-11 -11738.7 -8.56993e-11 30388.8)
(333224 -97112.7 -8.78315e-11 -14995.8 -8.31781e-11 32638.8)
(358084 -94131.3 -8.53356e-11 -15944.3 -8.10851e-11 34981.7)
(27561.5 -41879.5 -5.27065e-11 42247.2 -4.82288e-11 8080.98)
(94700.6 -87955.3 -7.93757e-11 46125.8 -7.89863e-11 14444.7)
(159409 -111989 -9.39738e-11 38303.8 -9.47427e-11 19867.6)
(214657 -125465 -1.03435e-10 22435.9 -1.03291e-10 23855.8)
(262439 -131056 -1.07795e-10 8476.79 -1.06614e-10 27338.1)
(302224 -132106 -1.09207e-10 -3615.36 -1.06956e-10 30232.1)
(335448 -129874 -1.08279e-10 -12913.3 -1.05173e-10 32736.1)
(363949 -125725 -1.05885e-10 -19792.1 -1.02168e-10 34986.5)
(386254 -119949 -1.02371e-10 -24991.1 -9.81243e-11 36783)
(408481 -115066 -9.89271e-11 -27078.7 -9.4742e-11 38801.9)
(55003.7 -74740 -6.58114e-11 85597.2 -7.1037e-11 13749.9)
(144622 -127986 -9.99977e-11 66901 -1.06081e-10 20492.7)
(219335 -149582 -1.1445e-10 48476.6 -1.19962e-10 26089.2)
(279305 -158565 -1.22159e-10 24834.1 -1.25329e-10 29976.3)
(328437 -159171 -1.24133e-10 5741.58 -1.25205e-10 33238.7)
(367432 -155672 -1.23305e-10 -10267.9 -1.22421e-10 35796.2)
(398536 -149540 -1.20415e-10 -22402.2 -1.17974e-10 37912.7)
(424230 -142022 -1.16295e-10 -31355 -1.12677e-10 39763.4)
(442873 -133572 -1.11429e-10 -38035.2 -1.06823e-10 41117.2)
(462239 -126384 -1.06732e-10 -40912 -1.01889e-10 42820.3)
(97424.3 -117926 -8.33646e-11 139320 -1.00927e-10 21563.4)
(208901 -168568 -1.20142e-10 90128.1 -1.33552e-10 28103.5)
(291565 -183397 -1.32229e-10 58149.6 -1.42602e-10 33487.5)
(353909 -185587 -1.36923e-10 25940 -1.43237e-10 37006.4)
(402294 -179872 -1.35682e-10 1966.99 -1.3878e-10 39877.9)
(438799 -171012 -1.3206e-10 -17417.5 -1.32343e-10 41983.6)
(466504 -160487 -1.26844e-10 -31820.5 -1.24917e-10 43637.1)
(488383 -149306 -1.2076e-10 -42345.2 -1.17145e-10 45032)
(502730 -138102 -1.14458e-10 -50182.4 -1.09435e-10 45907.7)
(518615 -128490 -1.08407e-10 -53575.7 -1.02876e-10 47257)
(157792 -170964 -1.05986e-10 197138 -1.37449e-10 31331.9)
(287315 -208090 -1.39051e-10 114193 -1.60285e-10 37146.2)
(374880 -211428 -1.46066e-10 67363.8 -1.61321e-10 41965.2)
(436744 -204530 -1.46427e-10 26234.9 -1.55688e-10 44833.9)
(482064 -191430 -1.41311e-10 -2282.48 -1.462e-10 47126.2)
(514171 -176773 -1.34593e-10 -24528.8 -1.35833e-10 48639.5)
(537068 -161734 -1.26916e-10 -40595.9 -1.25362e-10 49741.9)
(553954 -146949 -1.18864e-10 -52198.1 -1.15168e-10 50604.7)
(563354 -133177 -1.11191e-10 -60746.2 -1.05738e-10 50972.2)
(574911 -121220 -1.03827e-10 -64440.7 -9.76144e-11 51902.1)
(238808 -231883 -1.33295e-10 253117 -1.79154e-10 42879.3)
(379251 -245007 -1.55905e-10 138180 -1.85229e-10 47504.9)
(467410 -232340 -1.5493e-10 77596.3 -1.75261e-10 51466.4)
(525464 -214311 -1.49639e-10 28291.9 -1.62015e-10 53438.9)
(565312 -193106 -1.40141e-10 -4023.77 -1.47035e-10 54983.3)
(591155 -172578 -1.30234e-10 -28490.5 -1.32708e-10 55774.4)
(607905 -153252 -1.20202e-10 -45723.9 -1.19358e-10 56232.7)
(618713 -135261 -1.10393e-10 -57946.8 -1.07022e-10 56490.8)
(622608 -119366 -1.01636e-10 -67112.7 -9.61732e-11 56299.7)
(628987 -105377 -9.31422e-11 -70855.3 -8.67022e-11 56745.2)
(342066 -297113 -1.63934e-10 301278 -2.23525e-10 55932.5)
(483432 -277797 -1.70038e-10 160446 -2.07335e-10 58944.4)
(566648 -245520 -1.58436e-10 89286.3 -1.84027e-10 61788.8)
(617088 -214828 -1.46352e-10 33544.4 -1.62187e-10 62644.5)
(648964 -185132 -1.3211e-10 -1372.44 -1.41488e-10 63295.5)
(666690 -158940 -1.19088e-10 -27354.2 -1.23359e-10 63238.1)
(676077 -135767 -1.04897e-10 -45096 -1.06064e-10 62195.9)
(679695 -115253 -9.186e-11 -57782 -9.07395e-11 61002)
(677839 -97782.2 -8.14641e-11 -67122 -7.82753e-11 59931.4)
(677987 -82157.6 -7.18185e-11 -71933.7 -6.73828e-11 59525.8)
(467853 -361922 -1.95624e-10 337004 -2.67296e-10 70207)
(598123 -304847 -1.80675e-10 179770 -2.25504e-10 71218.2)
(669909 -250858 -1.56511e-10 102956 -1.87563e-10 72714.9)
(708555 -206748 -1.36849e-10 43455.6 -1.5669e-10 72262.8)
(729808 -168607 -1.16159e-10 7501.24 -1.29273e-10 71274.6)
(737641 -137184 -9.60012e-11 -19006.5 -1.0479e-10 68636)
(738496 -110752 -7.98044e-11 -36769.5 -8.52044e-11 66723.8)
(734236 -88453.9 -6.68294e-11 -49186.9 -6.93992e-11 65198.7)
(726632 -70374.1 -5.69306e-11 -59291.2 -5.69313e-11 63751.5)
(719673 -54695.9 -4.82867e-11 -62865.6 -4.67472e-11 63155.7)
(303564 -21114.7 -3.83602e-11 -2558.36 -3.25751e-11 31374.7)
(328617 -18841 -3.60641e-11 -1989.72 -3.09859e-11 33845.9)
(351580 -16863.8 -3.40466e-11 -1584.08 -2.9599e-11 36101.3)
(372202 -15069.5 -3.22326e-11 -1283.35 -2.83393e-11 38122.1)
(390818 -13405.4 -3.05632e-11 -986.339 -2.71732e-11 39948.6)
(407479 -11915.9 -2.90763e-11 -769.395 -2.61282e-11 41579.5)
(422420 -10549.7 -2.7722e-11 -562.114 -2.51711e-11 43043.4)
(435727 -9317.46 -2.65097e-11 -402.406 -2.43078e-11 44345.4)
(447570 -8187.68 -2.54099e-11 -261.174 -2.35172e-11 45504.3)
(458030 -7152.53 -2.4417e-11 -151.163 -2.27938e-11 46527.1)
(467217 -6189.67 -2.35124e-11 -61.4331 -2.21222e-11 47425.4)
(475193 -5285.21 -2.26848e-11 3.76688 -2.14929e-11 48204.8)
(482015 -4420.97 -2.19213e-11 48.26 -2.08937e-11 48871.4)
(487718 -3584.67 -2.12133e-11 71.0907 -2.03163e-11 49428.5)
(492318 -2765.74 -2.05525e-11 71.0907 -1.9753e-11 49877.6)
(495840 -1962.57 -1.99382e-11 52.5076 -1.92039e-11 50221.6)
(498273 -1187.48 -1.93776e-11 14.0672 -1.8676e-11 50459.1)
(499722 -484.407 -1.88907e-11 -14.9224 -1.81997e-11 50602.2)
(500188 54.1523 -1.85338e-11 -11.5243 -1.78374e-11 50651.8)
(500139 179.371 -1.84117e-11 260.85 -1.77592e-11 50668.8)
(336601 -60422.8 -6.28907e-11 -5741.16 -5.87593e-11 33977.9)
(355059 -54389.6 -5.84693e-11 -5598.44 -5.46617e-11 35814.1)
(372856 -49074.7 -5.44723e-11 -5125.26 -5.10543e-11 37606)
(388743 -44115.6 -5.07977e-11 -4883.37 -4.76869e-11 39193.6)
(403473 -39468.2 -4.73219e-11 -4430.58 -4.45358e-11 40683.6)
(416725 -35268.6 -4.42005e-11 -4132.19 -4.16864e-11 42015.7)
(428832 -31380.9 -4.13023e-11 -3773.05 -3.90509e-11 43239.9)
(439712 -27849.9 -3.86823e-11 -3501 -3.66562e-11 44336.4)
(449539 -24591.7 -3.62698e-11 -3239.03 -3.44475e-11 45328.6)
(458319 -21593.4 -3.40634e-11 -3036.32 -3.24151e-11 46213.5)
(466150 -18797.8 -3.20203e-11 -2867.58 -3.05207e-11 47002.8)
(473063 -16172.8 -3.01208e-11 -2744.51 -2.87427e-11 47698.8)
(479113 -13674.7 -2.83339e-11 -2655.2 -2.70514e-11 48308.4)
(484336 -11274.2 -2.66379e-11 -2591.81 -2.54277e-11 48835.6)
(488760 -8947.28 -2.50148e-11 -2537.23 -2.38555e-11 49284.6)
(492428 -6693.61 -2.3456e-11 -2452.91 -2.23354e-11 49662.6)
(495337 -4540.44 -2.19717e-11 -2289.81 -2.08866e-11 49972.9)
(497576 -2581.72 -2.05977e-11 -1921.01 -1.95741e-11 50232.8)
(499050 -959.623 -1.94015e-11 -1181.3 -1.84972e-11 50444.6)
(499999 -101.803 -1.85785e-11 363.004 -1.79501e-11 50660.8)
(375006 -87447.1 -8.0845e-11 -17651.2 -7.65189e-11 36534.7)
(386769 -79228.9 -7.51911e-11 -17231 -7.09828e-11 37766.8)
(399434 -71854.4 -6.98659e-11 -15682.1 -6.60321e-11 39164.7)
(410386 -65007.9 -6.50144e-11 -14668.8 -6.14297e-11 40352.5)
(421091 -58484.8 -6.03065e-11 -13222.6 -5.70533e-11 41546.9)
(430708 -52562.5 -5.60677e-11 -12109.1 -5.30767e-11 42606.4)
(439781 -47021.2 -5.20773e-11 -10932.1 -4.93583e-11 43615)
(448011 -41957.7 -4.84505e-11 -9963.97 -4.59585e-11 44522.7)
(455617 -37256 -4.5085e-11 -9076.02 -4.28015e-11 45361.3)
(462511 -32914.8 -4.19969e-11 -8350.54 -3.98849e-11 46116)
(468789 -28862.2 -3.9131e-11 -7744.73 -3.71615e-11 46799.8)
(474440 -25063.8 -3.6467e-11 -7275.69 -3.46075e-11 47410.9)
(479513 -21467.3 -3.3967e-11 -6919.22 -3.21883e-11 47956)
(484028 -18036.5 -3.16051e-11 -6655.23 -2.98803e-11 48439.1)
(488007 -14739.5 -2.93525e-11 -6443.07 -2.76624e-11 48865.6)
(491487 -11564.4 -2.71881e-11 -6205.74 -2.55283e-11 49245)
(494442 -8519.5 -2.51009e-11 -5834.07 -2.34857e-11 49583.1)
(496933 -5652.84 -2.3084e-11 -5105.83 -2.15711e-11 49902.2)
(498739 -3053.32 -2.115e-11 -3706.37 -1.98509e-11 50204.4)
(500070 -839.616 -1.92795e-11 -1087.43 -1.84156e-11 50550.8)
(419974 -106510 -9.35045e-11 -29375 -8.89257e-11 39803.7)
(424598 -97098.2 -8.73337e-11 -29119 -8.26082e-11 40346.9)
(431944 -88415.9 -8.12043e-11 -26746.8 -7.68134e-11 41307.2)
(437571 -80496.9 -7.57632e-11 -25312.5 -7.15167e-11 42024.2)
(443935 -72787.7 -7.03032e-11 -23064 -6.63748e-11 42872.4)
(449533 -65789 -6.53968e-11 -21307 -6.17016e-11 43603.5)
(455224 -59158.6 -6.07001e-11 -19412.1 -5.72777e-11 44351)
(460451 -53071.2 -5.64107e-11 -17814.8 -5.32132e-11 45026.5)
(465508 -47380.1 -5.23971e-11 -16329.6 -4.94128e-11 45673.9)
(470202 -42105.2 -4.86973e-11 -15082.1 -4.58875e-11 46264.7)
(474630 -37168.7 -4.52508e-11 -14018.4 -4.25864e-11 46813.1)
(478734 -32539.5 -4.20424e-11 -13161.7 -3.9488e-11 47311.9)
(482547 -28162.1 -3.90319e-11 -12481.6 -3.65558e-11 47767.2)
(486063 -23996.5 -3.61889e-11 -11951.1 -3.37633e-11 48180.7)
(489282 -20001.8 -3.34791e-11 -11514.8 -3.10847e-11 48557.1)
(492219 -16147.9 -3.08673e-11 -11076.5 -2.85012e-11 48905.3)
(494809 -12415.4 -2.83207e-11 -10503.2 -2.60029e-11 49229.5)
(497098 -8779.83 -2.57833e-11 -9543.36 -2.3578e-11 49553.4)
(498772 -5273.05 -2.3232e-11 -7872.9 -2.12556e-11 49871.2)
(500101 -1641.71 -2.04037e-11 -4908.85 -1.88767e-11 50255.5)
(468285 -116368 -1.00563e-10 -43320.9 -9.51085e-11 43302)
(465477 -106922 -9.46306e-11 -43284.6 -8.87861e-11 43114.3)
(467601 -97704.6 -8.81371e-11 -39787.8 -8.26708e-11 43662.7)
(467778 -89589.7 -8.26593e-11 -37872.2 -7.72692e-11 43894.1)
(469788 -81435.6 -7.6892e-11 -34662 -7.18613e-11 44400.7)
(471257 -74065.3 -7.17484e-11 -32123.9 -6.69671e-11 44797.5)
(473469 -66975.7 -6.67252e-11 -29361.3 -6.22633e-11 45280.5)
(475558 -60431.5 -6.21137e-11 -26977.6 -5.7918e-11 45718.2)
(477919 -54262.6 -5.77564e-11 -24745.7 -5.38202e-11 46167.4)
(480250 -48513.6 -5.37197e-11 -22833 -4.99978e-11 46585.7)
(482649 -43111.6 -4.99431e-11 -21181.9 -4.64024e-11 46987.7)
(485012 -38032 -4.64213e-11 -19826.4 -4.30175e-11 47361)
(487352 -33222.7 -4.31138e-11 -18732.8 -3.98085e-11 47709.8)
(489634 -28639.6 -3.99891e-11 -17874.5 -3.67467e-11 48033.3)
(491840 -24233.6 -3.70086e-11 -17190.4 -3.38002e-11 48334.5)
(493958 -19950.2 -3.41206e-11 -16580.3 -3.09348e-11 48620.7)
(495900 -15740.1 -3.12741e-11 -15907.4 -2.81202e-11 48894.2)
(497694 -11498.7 -2.83632e-11 -14928.9 -2.52912e-11 49177)
(499002 -7222.55 -2.53491e-11 -13357 -2.24523e-11 49458.6)
(500110 -2347.05 -2.17757e-11 -10643.7 -1.9235e-11 49813)
(519088 -117531 -1.01802e-10 -55954.7 -9.54814e-11 47213.1)
(508529 -109273 -9.69864e-11 -56713.3 -8.99624e-11 46209.5)
(505541 -100261 -9.06213e-11 -52239.8 -8.40202e-11 46339.2)
(500157 -92750.9 -8.5662e-11 -50109.8 -7.90452e-11 46047.2)
(497805 -84817 -8.00472e-11 -46153.9 -7.38132e-11 46189.5)
(495083 -77673.9 -7.50739e-11 -42988 -6.90967e-11 46229.3)
(493737 -70675.7 -7.01001e-11 -39507.3 -6.44792e-11 46424.2)
(492601 -64162.1 -6.54939e-11 -36429.1 -6.01781e-11 46604.5)
(492149 -57965 -6.10954e-11 -33519.1 -5.60836e-11 46835.1)
(491990 -52143.6 -5.69845e-11 -30968.1 -5.22329e-11 47063.4)
(492212 -46640.7 -5.31156e-11 -28734.2 -4.85881e-11 47301.4)
(492675 -41438.7 -4.94903e-11 -26862.2 -4.51374e-11 47532.4)
(493367 -36493.7 -4.60755e-11 -25331.4 -4.18509e-11 47757.3)
(494231 -31759.6 -4.28423e-11 -24124.1 -3.86993e-11 47972.2)
(495224 -27183.3 -3.97491e-11 -23191 -3.56472e-11 48177.4)
(496316 -22689.1 -3.67368e-11 -22448 -3.26463e-11 48376.8)
(497412 -18205 -3.37425e-11 -21780.4 -2.96506e-11 48570.8)
(498511 -13557 -3.06242e-11 -20989.9 -2.65476e-11 48775.9)
(499330 -8722.1 -2.73391e-11 -19853 -2.33268e-11 48982)
(500086 -2896.43 -2.32968e-11 -17916 -1.94583e-11 49251.3)
(569961 -109993 -9.71662e-11 -66519 -9.00623e-11 51362)
(551681 -104242 -9.44195e-11 -68758 -8.62187e-11 49481.9)
(543949 -96210.9 -8.87269e-11 -63693.2 -8.09599e-11 49192.4)
(533169 -90067.6 -8.48052e-11 -61591.9 -7.6917e-11 48367.9)
(526598 -83066.1 -7.98395e-11 -57194.1 -7.23314e-11 48130.4)
(519827 -76723 -7.54115e-11 -53492.1 -6.81742e-11 47815.1)
(514968 -70354.9 -7.0846e-11 -49395.2 -6.40023e-11 47714)
(510662 -64314.2 -6.65282e-11 -45644.8 -6.00411e-11 47636.8)
(507391 -58488.8 -6.23455e-11 -42078.6 -5.62174e-11 47643.3)
(504726 -52942.5 -5.83841e-11 -38895 -5.25715e-11 47676.5)
(502720 -47654 -5.46269e-11 -36085.3 -4.90887e-11 47742.4)
(501211 -42615 -5.10817e-11 -33704 -4.5763e-11 47821.3)
(500161 -37796 -4.77322e-11 -31748.6 -4.25753e-11 47910.1)
(499492 -33154.5 -4.45513e-11 -30216.3 -3.94965e-11 48001.7)
(499149 -28635.7 -4.15024e-11 -29075.3 -3.64915e-11 48093.6)
(499078 -24149.2 -3.85203e-11 -28270.9 -3.35004e-11 48185.9)
(499198 -19608.2 -3.55378e-11 -27721.3 -3.04671e-11 48277.6)
(499475 -14787 -3.2393e-11 -27297.3 -2.72433e-11 48377.1)
(499732 -9654.49 -2.90463e-11 -26848.1 -2.3811e-11 48479.2)
(500042 -3249.5 -2.4836e-11 -26072.1 -1.95323e-11 48622.1)
(618828 -94306.6 -8.67603e-11 -73068.1 -7.92684e-11 55692.7)
(593370 -92353.1 -8.69912e-11 -77447.3 -7.79488e-11 52927.4)
(581342 -86138.9 -8.26372e-11 -72704.4 -7.3915e-11 52185)
(565676 -81873.6 -8.00927e-11 -70822.6 -7.1141e-11 50858.1)
(555064 -76439.2 -7.62772e-11 -66608 -6.76148e-11 50204.9)
(544578 -71342.4 -7.2728e-11 -62743.7 -6.43074e-11 49534.4)
(536322 -66098.1 -6.89486e-11 -58446.3 -6.09031e-11 49112.5)
(528992 -60960.8 -6.52343e-11 -54309.2 -5.75644e-11 48766.5)
(522955 -55910.4 -6.15566e-11 -50294.2 -5.42778e-11 48534.7)
(517823 -50997.7 -5.799e-11 -46595.8 -5.10742e-11 48364.7)
(513592 -46239.1 -5.45531e-11 -43263.4 -4.79639e-11 48252.1)
(510098 -41639.9 -5.12675e-11 -40380.5 -4.49493e-11 48174.7)
(507276 -37191.3 -4.8136e-11 -37981.5 -4.20239e-11 48123.8)
(505030 -32861.2 -4.51437e-11 -36095.2 -3.91657e-11 48088.2)
(503296 -28602.6 -4.22654e-11 -34725.1 -3.63437e-11 48061.8)
(502001 -24321.6 -3.94407e-11 -33860.2 -3.34956e-11 48039.2)
(501090 -19926 -3.66076e-11 -33466.8 -3.05596e-11 48018.6)
(500483 -15162.9 -3.36012e-11 -33501.8 -2.73683e-11 47997.5)
(500156 -10000.1 -3.03875e-11 -33890.5 -2.39006e-11 47980)
(499977 -3396.64 -2.62923e-11 -34526.3 -1.94623e-11 47969.7)
(663986 -72019 -6.76512e-11 -74303.7 -6.15948e-11 58661.5)
(632120 -74538.8 -7.41355e-11 -81165.5 -6.51685e-11 56150.4)
(616134 -71425.6 -7.32179e-11 -78895.5 -6.3823e-11 55181.6)
(596547 -69408 -7.23085e-11 -77542.2 -6.25572e-11 53418.5)
(582074 -66194.3 -7.01293e-11 -73994.8 -6.05179e-11 52324.5)
(568394 -62649.4 -6.76547e-11 -70066.1 -5.8262e-11 51338.7)
(557005 -58784.1 -6.48288e-11 -65655.6 -5.57936e-11 50612.6)
(546947 -54743.6 -6.18495e-11 -61232.2 -5.32042e-11 50017)
(538353 -50640.4 -5.87998e-11 -56895.4 -5.05665e-11 49556)
(530917 -46536.6 -5.57598e-11 -52838.3 -4.79193e-11 49185.1)
(524568 -42485.4 -5.27793e-11 -49146.8 -4.52968e-11 48890.2)
(519151 -38509.1 -4.98931e-11 -45921.4 -4.27125e-11 48648.8)
(514582 -34615.5 -4.71187e-11 -43222.4 -4.01702e-11 48448.1)
(510756 -30783.3 -4.44555e-11 -41108.1 -3.76554e-11 48273.8)
(507611 -26974.5 -4.18866e-11 -39615.4 -3.51417e-11 48117.3)
(505056 -23099.1 -3.93629e-11 -38783.3 -3.25685e-11 47967.6)
(503079 -19066.2 -3.68316e-11 -38629.5 -2.98743e-11 47823.2)
(501547 -14617.5 -3.41397e-11 -39208.3 -2.68854e-11 47669.2)
(500619 -9719.71 -3.12621e-11 -40521.6 -2.35791e-11 47521)
(499914 -3326.08 -2.75641e-11 -42692.2 -1.92522e-11 47341.3)
(701535 -43438.8 -4.41817e-11 -71606.1 -3.98373e-11 61270)
(669207 -48945.7 -5.25654e-11 -77127.2 -4.55787e-11 58869.7)
(648756 -50251.9 -5.64913e-11 -79599.9 -4.78893e-11 57514.4)
(626984 -50781.1 -5.99404e-11 -80069.4 -4.99284e-11 56308.7)
(608682 -50551.5 -6.01247e-11 -78683.7 -4.98579e-11 54656.7)
(591996 -49421.8 -5.94713e-11 -75955.1 -4.9206e-11 53270)
(577444 -47666.8 -5.81962e-11 -72243.2 -4.81478e-11 52168.7)
(564600 -45387.7 -5.64574e-11 -68037.7 -4.67434e-11 51273.8)
(553422 -42745 -5.44001e-11 -63607.8 -4.50945e-11 50559.2)
(543678 -39858.5 -5.21556e-11 -59246.8 -4.32764e-11 49979.3)
(535245 -36824.5 -4.9818e-11 -55135.6 -4.13504e-11 49507.5)
(527957 -33711.4 -4.74627e-11 -51444.2 -3.93595e-11 49114.6)
(521703 -30560.6 -4.51391e-11 -48291.8 -3.73295e-11 48780.2)
(516357 -27382.1 -4.28751e-11 -45789.2 -3.52651e-11 48483.8)
(511849 -24159.9 -4.06758e-11 -44021.7 -3.31542e-11 48212.3)
(508068 -20824.5 -3.85175e-11 -43089.1 -3.09486e-11 47947.9)
(505039 -17298.4 -3.63618e-11 -43068.9 -2.85948e-11 47687.9)
(502583 -13342.8 -3.40883e-11 -44120.6 -2.59299e-11 47404.8)
(501048 -8928.44 -3.16806e-11 -46330.3 -2.29315e-11 47125.8)
(499823 -3070.03 -2.85884e-11 -50052.6 -1.8934e-11 46773.3)
(722737 -19914.1 -2.61889e-11 -63662.1 -2.3409e-11 63682.6)
(693001 -22848.4 -3.25888e-11 -69419.2 -2.72035e-11 61415.6)
(669615 -28282.4 -3.9592e-11 -75025.7 -3.21297e-11 59448.8)
(647165 -30858.4 -4.46065e-11 -77458.4 -3.54533e-11 57982.1)
(627297 -32677.7 -4.80032e-11 -77544.3 -3.78431e-11 56683.7)
(609093 -33511.5 -4.88506e-11 -76094.3 -3.84863e-11 55037)
(592911 -33559.9 -4.89287e-11 -73348 -3.86229e-11 53690.2)
(578395 -32961 -4.84268e-11 -69869 -3.83353e-11 52564.9)
(565558 -31837.5 -4.74673e-11 -65942.6 -3.76994e-11 51639.6)
(554194 -30318.6 -4.61938e-11 -61903.3 -3.67966e-11 50868)
(544215 -28504.9 -4.4709e-11 -57973.9 -3.56896e-11 50223.4)
(535467 -26481.1 -4.31044e-11 -54364.5 -3.44318e-11 49674.7)
(527853 -24305.2 -4.14465e-11 -51236.5 -3.30589e-11 49199.5)
(521249 -22007.8 -3.97819e-11 -48743.5 -3.15889e-11 48774)
(515596 -19592.9 -3.8138e-11 -47015.2 -3.00218e-11 48382.6)
(510776 -17018.2 -3.65154e-11 -46207 -2.83268e-11 48002.5)
(506853 -14229.2 -3.48983e-11 -46453 -2.64643e-11 47630.1)
(503607 -11039.9 -3.32162e-11 -48001.4 -2.43056e-11 47226.6)
(501528 -7430.36 -3.14675e-11 -51017.8 -2.18322e-11 46827)
(499802 -2563.27 -2.92363e-11 -56073.4 -1.84742e-11 46316.3)
(711751 3192.23 -1.32495e-11 -54774.4 -1.00916e-11 64615.9)
(688410 -185.861 -1.91066e-11 -66792.9 -1.29171e-11 61842.7)
(666927 -6812.82 -2.65728e-11 -72608.2 -1.84466e-11 59926.6)
(646535 -11160.7 -3.24016e-11 -75899.3 -2.26679e-11 58425.6)
(628145 -14592 -3.63102e-11 -76565.2 -2.57372e-11 56991.9)
(611054 -17034 -3.82333e-11 -75650 -2.74442e-11 55398)
(595612 -18619.2 -3.93469e-11 -73399.2 -2.85988e-11 54071.5)
(581522 -19487.7 -3.98358e-11 -70355.3 -2.92847e-11 52941.7)
(568853 -19750.4 -3.98134e-11 -66800 -2.95702e-11 51992.7)
(557453 -19529.6 -3.94168e-11 -63067.7 -2.95315e-11 51183.1)
(547283 -18922.4 -3.87456e-11 -59386.9 -2.92291e-11 50491.1)
(538232 -18015.3 -3.78929e-11 -55980.3 -2.87164e-11 49888.4)
(530240 -16870.7 -3.69303e-11 -53023 -2.80327e-11 49355.2)
(523211 -15531.1 -3.59141e-11 -50689.2 -2.72027e-11 48868.7)
(517118 -14012 -3.48808e-11 -49130.8 -2.6234e-11 48414.5)
(511858 -12300.1 -3.38547e-11 -48534.9 -2.51145e-11 47968.7)
(507537 -10357.3 -3.28346e-11 -49068.7 -2.38147e-11 47528.8)
(503928 -8066.61 -3.18019e-11 -51031.4 -2.22511e-11 47051.3)
(501629 -5432.88 -3.07778e-11 -54652.1 -2.04205e-11 46576.2)
(499712 -1869.7 -2.95238e-11 -60584.6 -1.79196e-11 45969.4)
(703457 26355.2 1.63296e-13 -44290.9 3.30771e-12 65891.7)
(681960 21044.6 -6.66425e-12 -58246.6 -4.16013e-13 62930.6)
(663773 13235.6 -1.4404e-11 -65452.5 -6.28755e-12 60980.2)
(644996 7458.88 -2.07482e-11 -70238.5 -1.10311e-11 59280)
(628083 2666.63 -2.46212e-11 -72172.8 -1.42564e-11 57466)
(611893 -1149.12 -2.75758e-11 -72402.4 -1.68588e-11 55859.8)
(597110 -4067.23 -2.96723e-11 -71111.6 -1.88858e-11 54512.4)
(583401 -6240.05 -3.11098e-11 -68877.8 -2.04285e-11 53346.5)
(570933 -7753.09 -3.19837e-11 -65980.9 -2.15386e-11 52356)
(559575 -8723.57 -3.24286e-11 -62777.4 -2.22875e-11 51500.1)
(549333 -9239.14 -3.25412e-11 -59512.5 -2.27295e-11 50760.1)
(540122 -9385.88 -3.24166e-11 -56431.8 -2.29173e-11 50108.2)
(531906 -9228.85 -3.21314e-11 -53734.1 -2.28912e-11 49525.4)
(524615 -8820.06 -3.17505e-11 -51617.3 -2.26815e-11 48989.3)
(518235 -8189.29 -3.13239e-11 -50263.8 -2.23051e-11 48484.4)
(512690 -7350.31 -3.08968e-11 -49884.2 -2.17671e-11 47987.3)
(508098 -6284.68 -3.04874e-11 -50693.2 -2.10506e-11 47493)
(504245 -4961.67 -3.01317e-11 -52987.3 -2.01299e-11 46958.7)
(501805 -3370.31 -2.98426e-11 -57026.7 -1.899e-11 46429.4)
(499693 -1161.82 -2.9563e-11 -63624 -1.73844e-11 45741.6)
(688863 44304.8 9.61949e-12 -35496.2 1.31067e-11 66457.6)
(670247 38880.6 3.10646e-12 -51017 9.72417e-12 63438.2)
(655141 30709 -3.8505e-12 -59089.2 4.36174e-12 61301.4)
(638468 24253 -9.39257e-12 -64863.2 9.86749e-14 59203.6)
(623435 18576.7 -1.39121e-11 -67674.7 -3.69562e-12 57496)
(608637 13779 -1.75811e-11 -68720.7 -6.93594e-12 55953.1)
(594981 9812.51 -2.04281e-11 -68162.7 -9.64726e-12 54649.4)
(582109 6571.26 -2.26261e-11 -66583.7 -1.18908e-11 53505)
(570267 3990.58 -2.42528e-11 -64259.4 -1.3703e-11 52522)
(559348 1974.93 -2.54294e-11 -61549.9 -1.51415e-11 51661.8)
(549398 448.383 -2.62433e-11 -58703.6 -1.62519e-11 50909.5)
(540361 -667.758 -2.67881e-11 -55975.7 -1.7082e-11 50239.3)
(532229 -1438.18 -2.71367e-11 -53573.8 -1.76709e-11 49634.2)
(524954 -1922.21 -2.73648e-11 -51711 -1.80547e-11 49072.8)
(518542 -2157.95 -2.75265e-11 -50576.7 -1.82551e-11 48540.8)
(512940 -2198.84 -2.76953e-11 -50410.7 -1.83028e-11 48014.5)
(508266 -2014.83 -2.78809e-11 -51416.1 -1.81736e-11 47489.9)
(504369 -1711.87 -2.82111e-11 -53932.3 -1.79323e-11 46925.8)
(501885 -1151.53 -2.8639e-11 -58336.3 -1.74764e-11 46355.9)
(499681 -376.562 -2.93298e-11 -65277.2 -1.68251e-11 45621)
(670478 59192 1.99396e-11 -26793 2.28562e-11 65478.9)
(654794 53702.6 1.33724e-11 -42938.8 1.94509e-11 62693.2)
(642760 45588.9 6.45285e-12 -51584.4 1.4148e-11 60808.5)
(628395 38844.5 6.55263e-13 -58242.1 9.71661e-12 58862.8)
(615445 32662.8 -4.25933e-12 -61898.5 5.60643e-12 57286.8)
(602290 27221.8 -8.4249e-12 -63793 1.95711e-12 55831.8)
(590022 22502.1 -1.18344e-11 -64012 -1.23949e-12 54595.9)
(578262 18444.3 -1.46328e-11 -63142.8 -4.01267e-12 53497.3)
(567326 15008.5 -1.68768e-11 -61445.2 -6.383e-12 52546.4)
(557125 12124.4 -1.86723e-11 -59282.6 -8.39036e-12 51706.4)
(547744 9731.39 -2.00958e-11 -56905 -1.00703e-11 50965.7)
(539151 7762.91 -2.12328e-11 -54573.5 -1.14624e-11 50300.8)
(531357 6157.52 -2.21573e-11 -52504 -1.26037e-11 49695.7)