/*--------------------------------*- C++ -*----------------------------------*\
  =========                 |
  \\      /  F ield         | OpenFOAM: The Open Source CFD Toolbox
   \\    /   O peration     | Website:  https://openfoam.org
    \\  /    A nd           | Version:  9
     \\/     M anipulation  |
\*---------------------------------------------------------------------------*/
FoamFile
{
    format      ascii;
    class       volVectorField;
    location    "15";
    object      D;
}
// * * * * * * * * * * * * * * * * * * * * * * * * * * * * * * * * * * * * * //

dimensions      [0 1 0 0 0 0 0];

internalField   nonuniform List<vector> 
1000
(
(1.01728e-05 3.42396e-06 0)
(9.49293e-06 3.78106e-06 0)
(8.99698e-06 4.08302e-06 0)
(8.63763e-06 4.31833e-06 0)
(8.38074e-06 4.52157e-06 0)
(8.19899e-06 4.69627e-06 0)
(8.07558e-06 4.85367e-06 0)
(7.99681e-06 4.99701e-06 0)
(7.95194e-06 5.13076e-06 0)
(7.93547e-06 5.25756e-06 0)
(9.17235e-06 3.08913e-06 0)
(8.46498e-06 3.34708e-06 0)
(7.95267e-06 3.57652e-06 0)
(7.58262e-06 3.75243e-06 0)
(7.3188e-06 3.90708e-06 0)
(7.13143e-06 4.0399e-06 0)
(7.00281e-06 4.16033e-06 0)
(6.91826e-06 4.27049e-06 0)
(6.86677e-06 4.37271e-06 0)
(6.84086e-06 4.47246e-06 0)
(8.14969e-06 2.75104e-06 0)
(7.43467e-06 2.90561e-06 0)
(6.91965e-06 3.05906e-06 0)
(6.54951e-06 3.17536e-06 0)
(6.28679e-06 3.2821e-06 0)
(6.10022e-06 3.37492e-06 0)
(5.9714e-06 3.46077e-06 0)
(5.88527e-06 3.5404e-06 0)
(5.83069e-06 3.61414e-06 0)
(5.79978e-06 3.68809e-06 0)
(7.11177e-06 2.41349e-06 0)
(6.40839e-06 2.46553e-06 0)
(5.90534e-06 2.54211e-06 0)
(5.54629e-06 2.60074e-06 0)
(5.29337e-06 2.66197e-06 0)
(5.11445e-06 2.71786e-06 0)
(4.99101e-06 2.7725e-06 0)
(4.90773e-06 2.82494e-06 0)
(4.85413e-06 2.87385e-06 0)
(4.82153e-06 2.92483e-06 0)
(6.06048e-06 2.08335e-06 0)
(5.39003e-06 2.03915e-06 0)
(4.91328e-06 2.03933e-06 0)
(4.57801e-06 2.04429e-06 0)
(4.34401e-06 2.0641e-06 0)
(4.1801e-06 2.08775e-06 0)
(4.06752e-06 2.11585e-06 0)
(3.99146e-06 2.14557e-06 0)
(3.94218e-06 2.1741e-06 0)
(3.9108e-06 2.20579e-06 0)
(5.00382e-06 1.76673e-06 0)
(4.38151e-06 1.62704e-06 0)
(3.94678e-06 1.56083e-06 0)
(3.64815e-06 1.51859e-06 0)
(3.44291e-06 1.50459e-06 0)
(3.30128e-06 1.50262e-06 0)
(3.20492e-06 1.51048e-06 0)
(3.14e-06 1.5231e-06 0)
(3.09794e-06 1.53662e-06 0)
(3.07011e-06 1.55369e-06 0)
(3.92995e-06 1.46707e-06 0)
(3.37672e-06 1.2372e-06 0)
(3.00519e-06 1.11677e-06 0)
(2.75695e-06 1.03845e-06 0)
(2.59083e-06 1.00094e-06 0)
(2.47831e-06 9.82105e-07 0)
(2.40284e-06 9.77178e-07 0)
(2.35221e-06 9.7907e-07 0)
(2.31946e-06 9.83274e-07 0)
(2.2969e-06 9.90774e-07 0)
(2.85317e-06 1.16419e-06 0)
(2.38007e-06 8.68154e-07 0)
(2.09417e-06 7.14436e-07 0)
(1.90963e-06 6.18367e-07 0)
(1.79113e-06 5.71415e-07 0)
(1.71249e-06 5.46588e-07 0)
(1.66065e-06 5.37199e-07 0)
(1.62592e-06 5.3501e-07 0)
(1.60342e-06 5.35533e-07 0)
(1.58713e-06 5.38493e-07 0)
(1.72798e-06 8.37262e-07 0)
(1.38916e-06 5.14637e-07 0)
(1.21207e-06 3.61122e-07 0)
(1.1031e-06 2.74849e-07 0)
(1.03802e-06 2.35885e-07 0)
(9.95483e-07 2.1655e-07 0)
(9.68006e-07 2.10001e-07 0)
(9.49291e-07 2.08782e-07 0)
(9.36932e-07 2.09458e-07 0)
(9.27223e-07 2.11344e-07 0)
(5.96365e-07 4.37684e-07 0)
(4.4178e-07 1.95339e-07 0)
(3.87423e-07 9.56755e-08 0)
(3.57751e-07 5.30328e-08 0)
(3.40387e-07 3.66825e-08 0)
(3.28474e-07 3.06889e-08 0)
(3.20578e-07 2.99847e-08 0)
(3.14865e-07 3.1135e-08 0)
(3.10919e-07 3.26076e-08 0)
(3.07466e-07 3.4224e-08 0)
(1.79327e-05 5.54599e-06 0)
(1.7903e-05 6.23586e-06 0)
(1.78825e-05 6.87878e-06 0)
(1.78831e-05 7.46741e-06 0)
(1.79098e-05 8.00772e-06 0)
(1.79648e-05 8.50645e-06 0)
(1.80481e-05 8.97135e-06 0)
(1.81583e-05 9.4092e-06 0)
(1.82941e-05 9.8253e-06 0)
(1.84523e-05 1.02256e-05 0)
(1.73692e-05 5.50038e-06 0)
(1.72893e-05 6.18826e-06 0)
(1.72349e-05 6.82333e-06 0)
(1.72106e-05 7.40011e-06 0)
(1.72192e-05 7.92598e-06 0)
(1.72591e-05 8.40809e-06 0)
(1.73288e-05 8.85494e-06 0)
(1.74251e-05 9.27366e-06 0)
(1.75467e-05 9.66983e-06 0)
(1.76889e-05 1.00502e-05 0)
(1.67717e-05 5.40789e-06 0)
(1.66325e-05 6.09401e-06 0)
(1.65319e-05 6.71615e-06 0)
(1.64712e-05 7.27433e-06 0)
(1.6451e-05 7.77979e-06 0)
(1.64666e-05 8.24067e-06 0)
(1.6515e-05 8.66607e-06 0)
(1.65914e-05 9.06323e-06 0)
(1.66939e-05 9.43791e-06 0)
(1.68161e-05 9.79702e-06 0)
(1.61263e-05 5.27342e-06 0)
(1.59205e-05 5.95625e-06 0)
(1.57663e-05 6.56251e-06 0)
(1.56624e-05 7.09794e-06 0)
(1.56069e-05 7.57883e-06 0)
(1.55924e-05 8.01453e-06 0)
(1.56147e-05 8.41497e-06 0)
(1.5667e-05 8.78747e-06 0)
(1.57472e-05 9.13801e-06 0)
(1.58469e-05 9.47345e-06 0)
(1.54256e-05 5.09828e-06 0)
(1.51468e-05 5.77234e-06 0)
(1.49353e-05 6.35773e-06 0)
(1.4786e-05 6.86519e-06 0)
(1.46931e-05 7.31668e-06 0)
(1.46469e-05 7.72283e-06 0)
(1.46415e-05 8.09458e-06 0)
(1.46685e-05 8.4392e-06 0)
(1.47254e-05 8.76298e-06 0)
(1.4802e-05 9.07231e-06 0)
(1.46687e-05 4.8865e-06 0)
(1.43128e-05 5.54252e-06 0)
(1.40428e-05 6.101e-06 0)
(1.3848e-05 6.57565e-06 0)
(1.37183e-05 6.99376e-06 0)
(1.36408e-05 7.36684e-06 0)
(1.3608e-05 7.70683e-06 0)
(1.36103e-05 8.02078e-06 0)
(1.36443e-05 8.3154e-06 0)
(1.36985e-05 8.59628e-06 0)
(1.38576e-05 4.64129e-06 0)
(1.34236e-05 5.26678e-06 0)
(1.30963e-05 5.79074e-06 0)
(1.28582e-05 6.22733e-06 0)
(1.26938e-05 6.60821e-06 0)
(1.25873e-05 6.94513e-06 0)
(1.25292e-05 7.2508e-06 0)
(1.25085e-05 7.53188e-06 0)
(1.25214e-05 7.79542e-06 0)
(1.2555e-05 8.04606e-06 0)
(1.29967e-05 4.36723e-06 0)
(1.24871e-05 4.94779e-06 0)
(1.21063e-05 5.42866e-06 0)
(1.18287e-05 5.82203e-06 0)
(1.16331e-05 6.16234e-06 0)
(1.15008e-05 6.46069e-06 0)
(1.14203e-05 6.73021e-06 0)
(1.13796e-05 6.97686e-06 0)
(1.13735e-05 7.20802e-06 0)
(1.13894e-05 7.42684e-06 0)
(1.20912e-05 4.06909e-06 0)
(1.15131e-05 4.58953e-06 0)
(1.10849e-05 5.01862e-06 0)
(1.07729e-05 5.36362e-06 0)
(1.0551e-05 5.66037e-06 0)
(1.0397e-05 5.91833e-06 0)
(1.02978e-05 6.15051e-06 0)
(1.02404e-05 6.36207e-06 0)
(1.02182e-05 6.55991e-06 0)
(1.02195e-05 6.74649e-06 0)
(1.11478e-05 3.75239e-06 0)
(1.05117e-05 4.19795e-06 0)
(1.00445e-05 4.56709e-06 0)
(9.70477e-06 4.85916e-06 0)
(9.462e-06 5.11001e-06 0)
(9.2913e-06 5.32647e-06 0)
(9.17754e-06 5.52106e-06 0)
(9.10712e-06 5.69749e-06 0)
(9.07207e-06 5.86254e-06 0)
(9.06304e-06 6.01484e-06 0)
(1.86414e-05 1.06107e-05 0)
(1.88586e-05 1.09929e-05 0)
(1.90925e-05 1.13689e-05 0)
(1.93412e-05 1.17405e-05 0)
(1.96034e-05 1.21097e-05 0)
(1.98776e-05 1.24774e-05 0)
(2.01626e-05 1.28451e-05 0)
(2.04574e-05 1.32135e-05 0)
(2.07608e-05 1.35834e-05 0)
(2.10718e-05 1.39554e-05 0)
(2.13896e-05 1.43303e-05 0)
(2.17133e-05 1.47083e-05 0)
(2.20421e-05 1.50899e-05 0)
(2.23752e-05 1.54755e-05 0)
(2.27118e-05 1.58652e-05 0)
(2.30513e-05 1.62591e-05 0)
(2.33929e-05 1.66571e-05 0)
(2.37358e-05 1.70591e-05 0)
(2.40794e-05 1.74641e-05 0)
(2.4423e-05 1.78712e-05 0)
(1.78861e-05 1.04208e-05 0)
(1.81303e-05 1.07966e-05 0)
(1.83875e-05 1.11666e-05 0)
(1.86557e-05 1.1533e-05 0)
(1.89345e-05 1.18977e-05 0)
(1.92227e-05 1.22616e-05 0)
(1.95195e-05 1.26262e-05 0)
(1.98241e-05 1.29921e-05 0)
(2.01357e-05 1.33602e-05 0)
(2.04537e-05 1.3731e-05 0)
(2.07773e-05 1.41051e-05 0)
(2.11059e-05 1.4483e-05 0)
(2.1439e-05 1.4865e-05 0)
(2.17759e-05 1.52514e-05 0)
(2.21161e-05 1.56424e-05 0)
(2.24591e-05 1.60381e-05 0)
(2.28044e-05 1.64386e-05 0)
(2.31513e-05 1.68433e-05 0)
(2.34994e-05 1.72518e-05 0)
(2.3848e-05 1.76629e-05 0)
(1.70244e-05 1.01567e-05 0)
(1.73032e-05 1.05332e-05 0)
(1.75914e-05 1.09041e-05 0)
(1.78864e-05 1.12713e-05 0)
(1.81889e-05 1.1637e-05 0)
(1.84975e-05 1.20021e-05 0)
(1.88124e-05 1.2368e-05 0)
(1.91327e-05 1.27355e-05 0)
(1.94583e-05 1.31054e-05 0)
(1.97885e-05 1.34783e-05 0)
(2.0123e-05 1.38549e-05 0)
(2.04615e-05 1.42354e-05 0)
(2.08035e-05 1.46204e-05 0)
(2.11488e-05 1.50101e-05 0)
(2.14969e-05 1.54049e-05 0)
(2.18475e-05 1.58047e-05 0)
(2.22003e-05 1.62097e-05 0)
(2.25547e-05 1.66198e-05 0)
(2.29105e-05 1.70345e-05 0)
(2.32666e-05 1.74533e-05 0)
(1.60688e-05 9.82431e-06 0)
(1.63887e-05 1.0207e-05 0)
(1.67146e-05 1.05843e-05 0)
(1.70426e-05 1.09571e-05 0)
(1.73747e-05 1.13284e-05 0)
(1.77097e-05 1.16988e-05 0)
(1.80481e-05 1.207e-05 0)
(1.83895e-05 1.24427e-05 0)
(1.87339e-05 1.28178e-05 0)
(1.90811e-05 1.31959e-05 0)
(1.94311e-05 1.35778e-05 0)
(1.97837e-05 1.39638e-05 0)
(2.01387e-05 1.43543e-05 0)
(2.04961e-05 1.47499e-05 0)
(2.08557e-05 1.51507e-05 0)
(2.12172e-05 1.5557e-05 0)
(2.15805e-05 1.5969e-05 0)
(2.19452e-05 1.63868e-05 0)
(2.23111e-05 1.68104e-05 0)
(2.26771e-05 1.72397e-05 0)
(1.50401e-05 9.41737e-06 0)
(1.54061e-05 9.81235e-06 0)
(1.57745e-05 1.02023e-05 0)
(1.61401e-05 1.05863e-05 0)
(1.65066e-05 1.09685e-05 0)
(1.68722e-05 1.13489e-05 0)
(1.72384e-05 1.17298e-05 0)
(1.76047e-05 1.21116e-05 0)
(1.79719e-05 1.24956e-05 0)
(1.83398e-05 1.28824e-05 0)
(1.87086e-05 1.32726e-05 0)
(1.90786e-05 1.3667e-05 0)
(1.94497e-05 1.40659e-05 0)
(1.9822e-05 1.44698e-05 0)
(2.01956e-05 1.48792e-05 0)
(2.05705e-05 1.52943e-05 0)
(2.09466e-05 1.57156e-05 0)
(2.13237e-05 1.61434e-05 0)
(2.17017e-05 1.65782e-05 0)
(2.20796e-05 1.70203e-05 0)
(1.39552e-05 8.93827e-06 0)
(1.43705e-05 9.3513e-06 0)
(1.47852e-05 9.75969e-06 0)
(1.51919e-05 1.01601e-05 0)
(1.55961e-05 1.0558e-05 0)
(1.59957e-05 1.09531e-05 0)
(1.63929e-05 1.13477e-05 0)
(1.67875e-05 1.17426e-05 0)
(1.71803e-05 1.21391e-05 0)
(1.75717e-05 1.25378e-05 0)
(1.79622e-05 1.29397e-05 0)
(1.8352e-05 1.33453e-05 0)
(1.87415e-05 1.37553e-05 0)
(1.9131e-05 1.41701e-05 0)
(1.95207e-05 1.45904e-05 0)
(1.99108e-05 1.50166e-05 0)
(2.03014e-05 1.54492e-05 0)
(2.06925e-05 1.5889e-05 0)
(2.10841e-05 1.63369e-05 0)
(2.14755e-05 1.67932e-05 0)
(1.28319e-05 8.38796e-06 0)
(1.32983e-05 8.82481e-06 0)
(1.37616e-05 9.25731e-06 0)
(1.42115e-05 9.67949e-06 0)
(1.46558e-05 1.00978e-05 0)
(1.50917e-05 1.0512e-05 0)
(1.55222e-05 1.09245e-05 0)
(1.59472e-05 1.13363e-05 0)
(1.63679e-05 1.17488e-05 0)
(1.67848e-05 1.21628e-05 0)
(1.71987e-05 1.25794e-05 0)
(1.76102e-05 1.29991e-05 0)
(1.80198e-05 1.34228e-05 0)
(1.8428e-05 1.38511e-05 0)
(1.88353e-05 1.42847e-05 0)
(1.92419e-05 1.47241e-05 0)
(1.96483e-05 1.51701e-05 0)
(2.00545e-05 1.56235e-05 0)
(2.04608e-05 1.60858e-05 0)
(2.0867e-05 1.65576e-05 0)
(1.1687e-05 7.77144e-06 0)
(1.22048e-05 8.23752e-06 0)
(1.27171e-05 8.69866e-06 0)
(1.32114e-05 9.14749e-06 0)
(1.36966e-05 9.59059e-06 0)
(1.41703e-05 1.00281e-05 0)
(1.46355e-05 1.04625e-05 0)
(1.50923e-05 1.08949e-05 0)
(1.55424e-05 1.13268e-05 0)
(1.59863e-05 1.17594e-05 0)
(1.64252e-05 1.21935e-05 0)
(1.68597e-05 1.26302e-05 0)
(1.72906e-05 1.30702e-05 0)
(1.77186e-05 1.35143e-05 0)
(1.81443e-05 1.39633e-05 0)
(1.85684e-05 1.44178e-05 0)
(1.89912e-05 1.48789e-05 0)
(1.94133e-05 1.53474e-05 0)
(1.98351e-05 1.58251e-05 0)
(2.02568e-05 1.63128e-05 0)
(1.05378e-05 7.09455e-06 0)
(1.11055e-05 7.59552e-06 0)
(1.16656e-05 8.0888e-06 0)
(1.22044e-05 8.56882e-06 0)
(1.27305e-05 9.04019e-06 0)
(1.32423e-05 9.50454e-06 0)
(1.37426e-05 9.96394e-06 0)
(1.42319e-05 1.04201e-05 0)
(1.47119e-05 1.08745e-05 0)
(1.51835e-05 1.13285e-05 0)
(1.5648e-05 1.17832e-05 0)
(1.61061e-05 1.22395e-05 0)
(1.6559e-05 1.26984e-05 0)
(1.70074e-05 1.31607e-05 0)
(1.74522e-05 1.36272e-05 0)
(1.78941e-05 1.40988e-05 0)
(1.83339e-05 1.45765e-05 0)
(1.87723e-05 1.50614e-05 0)
(1.92098e-05 1.55553e-05 0)
(1.96474e-05 1.60592e-05 0)
(9.39775e-06 6.36772e-06 0)
(1.00127e-05 6.90714e-06 0)
(1.06155e-05 7.43357e-06 0)
(1.11978e-05 7.94805e-06 0)
(1.17641e-05 8.45147e-06 0)
(1.23142e-05 8.94624e-06 0)
(1.28499e-05 9.43418e-06 0)
(1.33724e-05 9.91719e-06 0)
(1.3883e-05 1.0397e-05 0)
(1.43829e-05 1.0875e-05 0)
(1.48734e-05 1.13525e-05 0)
(1.53557e-05 1.18306e-05 0)
(1.58308e-05 1.23105e-05 0)
(1.62999e-05 1.27929e-05 0)
(1.67638e-05 1.32787e-05 0)
(1.72237e-05 1.3769e-05 0)
(1.76804e-05 1.42646e-05 0)
(1.8135e-05 1.47668e-05 0)
(1.85882e-05 1.52774e-05 0)
(1.90418e-05 1.57974e-05 0)
(8.51792e-06 5.82289e-06 0)
(9.15918e-06 6.39024e-06 0)
(9.78445e-06 6.93541e-06 0)
(1.03903e-05 7.46953e-06 0)
(1.09793e-05 7.99252e-06 0)
(1.15515e-05 8.50669e-06 0)
(1.21083e-05 9.01369e-06 0)
(1.26508e-05 9.51519e-06 0)
(1.31801e-05 1.00128e-05 0)
(1.36975e-05 1.05077e-05 0)
(1.42042e-05 1.10014e-05 0)
(1.47014e-05 1.14948e-05 0)
(1.51902e-05 1.1989e-05 0)
(1.56718e-05 1.24847e-05 0)
(1.61473e-05 1.2983e-05 0)
(1.66177e-05 1.34845e-05 0)
(1.70842e-05 1.39904e-05 0)
(1.7548e-05 1.45015e-05 0)
(1.801e-05 1.50195e-05 0)
(1.84724e-05 1.55454e-05 0)
(7.93045e-06 5.49713e-06 0)
(8.57181e-06 6.0644e-06 0)
(9.19725e-06 6.61399e-06 0)
(9.80511e-06 7.15408e-06 0)
(1.03971e-05 7.68449e-06 0)
(1.0973e-05 8.20678e-06 0)
(1.15341e-05 8.7223e-06 0)
(1.2081e-05 9.23236e-06 0)
(1.26149e-05 9.73826e-06 0)
(1.31367e-05 1.02411e-05 0)
(1.36476e-05 1.07421e-05 0)
(1.41486e-05 1.12421e-05 0)
(1.46409e-05 1.17419e-05 0)
(1.51256e-05 1.22425e-05 0)
(1.56037e-05 1.27444e-05 0)
(1.60763e-05 1.32485e-05 0)
(1.65447e-05 1.37556e-05 0)
(1.70101e-05 1.42665e-05 0)
(1.74735e-05 1.47825e-05 0)
(1.79375e-05 1.53042e-05 0)
(7.41193e-06 5.18444e-06 0)
(8.0417e-06 5.74999e-06 0)
(8.66072e-06 6.30112e-06 0)
(9.26387e-06 6.84485e-06 0)
(9.85338e-06 7.38058e-06 0)
(1.04281e-05 7.9093e-06 0)
(1.09893e-05 8.43199e-06 0)
(1.15369e-05 8.94958e-06 0)
(1.20721e-05 9.46306e-06 0)
(1.25956e-05 9.97333e-06 0)
(1.31083e-05 1.04813e-05 0)
(1.36111e-05 1.09876e-05 0)
(1.41052e-05 1.14931e-05 0)
(1.45915e-05 1.19984e-05 0)
(1.5071e-05 1.2504e-05 0)
(1.5545e-05 1.30107e-05 0)
(1.60145e-05 1.35189e-05 0)
(1.64809e-05 1.40293e-05 0)
(1.69453e-05 1.45428e-05 0)
(1.74105e-05 1.50597e-05 0)
(6.94729e-06 4.8834e-06 0)
(7.56191e-06 5.44435e-06 0)
(8.16976e-06 5.99493e-06 0)
(8.76385e-06 6.54076e-06 0)
(9.34666e-06 7.08053e-06 0)
(9.91635e-06 7.61465e-06 0)
(1.04738e-05 8.14365e-06 0)
(1.1019e-05 8.66806e-06 0)
(1.15526e-05 9.18854e-06 0)
(1.2075e-05 9.70573e-06 0)
(1.25872e-05 1.02203e-05 0)
(1.309e-05 1.07327e-05 0)
(1.35842e-05 1.12436e-05 0)
(1.40707e-05 1.17535e-05 0)
(1.45506e-05 1.22627e-05 0)
(1.50249e-05 1.27717e-05 0)
(1.54948e-05 1.32809e-05 0)
(1.59616e-05 1.37907e-05 0)
(1.64265e-05 1.43014e-05 0)
(1.68923e-05 1.48132e-05 0)
(6.53118e-06 4.59717e-06 0)
(7.12724e-06 5.15182e-06 0)
(7.72009e-06 5.70006e-06 0)
(8.30147e-06 6.24616e-06 0)
(8.87402e-06 6.78826e-06 0)
(9.43532e-06 7.3263e-06 0)
(9.9861e-06 7.86031e-06 0)
(1.05259e-05 8.39044e-06 0)
(1.10553e-05 8.91701e-06 0)
(1.15745e-05 9.44037e-06 0)
(1.20842e-05 9.96089e-06 0)
(1.2585e-05 1.0479e-05 0)
(1.30778e-05 1.09949e-05 0)
(1.35633e-05 1.1509e-05 0)
(1.40425e-05 1.20216e-05 0)
(1.45163e-05 1.25328e-05 0)
(1.49858e-05 1.30428e-05 0)
(1.54522e-05 1.35518e-05 0)
(1.59174e-05 1.40593e-05 0)
(1.63836e-05 1.45657e-05 0)
(6.15557e-06 4.32561e-06 0)
(6.7312e-06 4.87237e-06 0)
(7.30656e-06 5.41672e-06 0)
(7.87269e-06 5.9616e-06 0)
(8.43232e-06 6.50466e-06 0)
(8.9826e-06 7.04536e-06 0)
(9.52414e-06 7.58323e-06 0)
(1.00562e-05 8.11807e-06 0)
(1.05792e-05 8.64984e-06 0)
(1.10931e-05 9.17859e-06 0)
(1.15985e-05 9.70444e-06 0)
(1.20959e-05 1.02275e-05 0)
(1.25858e-05 1.0748e-05 0)
(1.30691e-05 1.1266e-05 0)
(1.35466e-05 1.17816e-05 0)
(1.40191e-05 1.22947e-05 0)
(1.44876e-05 1.28054e-05 0)
(1.49536e-05 1.33132e-05 0)
(1.54178e-05 1.38179e-05 0)
(1.5883e-05 1.43192e-05 0)
(5.81395e-06 4.06889e-06 0)
(6.36799e-06 4.60685e-06 0)
(6.92408e-06 5.14617e-06 0)
(7.47312e-06 5.68857e-06 0)
(8.01776e-06 6.23131e-06 0)
(8.55499e-06 6.77343e-06 0)
(9.08524e-06 7.31401e-06 0)
(9.60763e-06 7.85249e-06 0)
(1.01223e-05 8.38849e-06 0)
(1.06293e-05 8.92176e-06 0)
(1.11288e-05 9.45218e-06 0)
(1.16213e-05 9.97966e-06 0)
(1.21073e-05 1.05041e-05 0)
(1.25874e-05 1.10255e-05 0)
(1.30623e-05 1.15437e-05 0)
(1.35328e-05 1.20585e-05 0)
(1.39997e-05 1.25696e-05 0)
(1.44644e-05 1.30765e-05 0)
(1.49275e-05 1.35783e-05 0)
(1.53916e-05 1.40745e-05 0)
(5.49989e-06 3.82638e-06 0)
(6.03178e-06 4.35494e-06 0)
(6.56754e-06 4.8884e-06 0)
(7.09825e-06 5.42735e-06 0)
(7.62646e-06 5.96875e-06 0)
(8.14909e-06 6.51124e-06 0)
(8.66649e-06 7.0535e-06 0)
(9.17763e-06 7.59464e-06 0)
(9.68258e-06 8.13394e-06 0)
(1.01812e-05 8.67089e-06 0)
(1.06736e-05 9.2051e-06 0)
(1.116e-05 9.73626e-06 0)
(1.1641e-05 1.02641e-05 0)
(1.2117e-05 1.07884e-05 0)
(1.25885e-05 1.13088e-05 0)
(1.30563e-05 1.18249e-05 0)
(1.35211e-05 1.23363e-05 0)
(1.3984e-05 1.28421e-05 0)
(1.44456e-05 1.33413e-05 0)
(1.49082e-05 1.3833e-05 0)
(5.20767e-06 3.59732e-06 0)
(5.71721e-06 4.11634e-06 0)
(6.23201e-06 4.64344e-06 0)
(6.74358e-06 5.17824e-06 0)
(7.25433e-06 5.71748e-06 0)
(7.76125e-06 6.25945e-06 0)
(8.26459e-06 6.80247e-06 0)
(8.76329e-06 7.34534e-06 0)
(9.25732e-06 7.88705e-06 0)
(9.74639e-06 8.42682e-06 0)
(1.02306e-05 8.96402e-06 0)
(1.07101e-05 9.49814e-06 0)
(1.11852e-05 1.00287e-05 0)
(1.16563e-05 1.05553e-05 0)
(1.21238e-05 1.10775e-05 0)
(1.25884e-05 1.15947e-05 0)
(1.30506e-05 1.21062e-05 0)
(1.35113e-05 1.26111e-05 0)
(1.39711e-05 1.31079e-05 0)
(1.44317e-05 1.35957e-05 0)
(4.93201e-06 3.38085e-06 0)
(5.41919e-06 3.89042e-06 0)
(5.91271e-06 4.41093e-06 0)
(6.40465e-06 4.94114e-06 0)
(6.89724e-06 5.47762e-06 0)
(7.38766e-06 6.01834e-06 0)
(7.87609e-06 6.56134e-06 0)
(8.36147e-06 7.10511e-06 0)
(8.84368e-06 7.64839e-06 0)
(9.32238e-06 8.19017e-06 0)
(9.7976e-06 8.72959e-06 0)
(1.02694e-05 9.26595e-06 0)
(1.07379e-05 9.79861e-06 0)
(1.12035e-05 1.0327e-05 0)
(1.16665e-05 1.08505e-05 0)
(1.21274e-05 1.13684e-05 0)
(1.25867e-05 1.18798e-05 0)
(1.30449e-05 1.23838e-05 0)
(1.35026e-05 1.28787e-05 0)
(1.3961e-05 1.33635e-05 0)
(4.66804e-06 3.17608e-06 0)
(5.13295e-06 3.67658e-06 0)
(5.60505e-06 4.19049e-06 0)
(6.07705e-06 4.71588e-06 0)
(6.55106e-06 5.24916e-06 0)
(7.02445e-06 5.78807e-06 0)
(7.49738e-06 6.33036e-06 0)
(7.96881e-06 6.8743e-06 0)
(8.43857e-06 7.41839e-06 0)
(8.90631e-06 7.9614e-06 0)
(9.37195e-06 8.50228e-06 0)
(9.83546e-06 9.04016e-06 0)
(1.0297e-05 9.57425e-06 0)
(1.07566e-05 1.01038e-05 0)
(1.12148e-05 1.06281e-05 0)
(1.16716e-05 1.11464e-05 0)
(1.21276e-05 1.16577e-05 0)
(1.25831e-05 1.2161e-05 0)
(1.30384e-05 1.26544e-05 0)
(1.34944e-05 1.31369e-05 0)
(4.41119e-06 2.98229e-06 0)
(4.85392e-06 3.47425e-06 0)
(5.30452e-06 3.98171e-06 0)
(5.75642e-06 4.50218e-06 0)
(6.21159e-06 5.03198e-06 0)
(6.66764e-06 5.56861e-06 0)
(7.12471e-06 6.10962e-06 0)
(7.58181e-06 6.65307e-06 0)
(8.03876e-06 7.19726e-06 0)
(8.49514e-06 7.74078e-06 0)
(8.95083e-06 8.2824e-06 0)
(9.40574e-06 8.82111e-06 0)
(9.85989e-06 9.35598e-06 0)
(1.03134e-05 9.88617e-06 0)
(1.07663e-05 1.04109e-05 0)
(1.1219e-05 1.09292e-05 0)
(1.16715e-05 1.14403e-05 0)
(1.21241e-05 1.19429e-05 0)
(1.25769e-05 1.24353e-05 0)
(1.30303e-05 1.29165e-05 0)
(4.15705e-06 2.7988e-06 0)
(4.57761e-06 3.28283e-06 0)
(5.00666e-06 3.78412e-06 0)
(5.43839e-06 4.29971e-06 0)
(5.87459e-06 4.82583e-06 0)
(6.31317e-06 5.35982e-06 0)
(6.75422e-06 5.89905e-06 0)
(7.19685e-06 6.44143e-06 0)
(7.64081e-06 6.98507e-06 0)
(8.08569e-06 7.52841e-06 0)
(8.53131e-06 8.07009e-06 0)
(8.97748e-06 8.60896e-06 0)
(9.42416e-06 9.14399e-06 0)
(9.87132e-06 9.67425e-06 0)
(1.0319e-05 1.01989e-05 0)
(1.07673e-05 1.0717e-05 0)
(1.12163e-05 1.12276e-05 0)
(1.1666e-05 1.17297e-05 0)
(1.21163e-05 1.22216e-05 0)
(1.2567e-05 1.27023e-05 0)
(3.9013e-06 2.62533e-06 0)
(4.29958e-06 3.10208e-06 0)
(4.70702e-06 3.59748e-06 0)
(5.11852e-06 4.10824e-06 0)
(5.53576e-06 4.63054e-06 0)
(5.95687e-06 5.16156e-06 0)
(6.38195e-06 5.69855e-06 0)
(6.81015e-06 6.23929e-06 0)
(7.24122e-06 6.78175e-06 0)
(7.67469e-06 7.32426e-06 0)
(8.11032e-06 7.86535e-06 0)
(8.54786e-06 8.40374e-06 0)
(8.98715e-06 8.93833e-06 0)
(9.42808e-06 9.46812e-06 0)
(9.87058e-06 9.99219e-06 0)
(1.03146e-05 1.05097e-05 0)
(1.076e-05 1.10197e-05 0)
(1.12068e-05 1.15213e-05 0)
(1.16546e-05 1.20131e-05 0)
(1.21029e-05 1.24943e-05 0)
(3.63939e-06 2.46138e-06 0)
(4.01519e-06 2.93149e-06 0)
(4.4009e-06 3.42131e-06 0)
(4.79219e-06 3.92732e-06 0)
(5.19056e-06 4.44564e-06 0)
(5.59439e-06 4.9734e-06 0)
(6.00374e-06 5.50772e-06 0)
(6.41781e-06 6.04629e-06 0)
(6.8363e-06 6.587e-06 0)
(7.25871e-06 7.12807e-06 0)
(7.68472e-06 7.66794e-06 0)
(8.11397e-06 8.20526e-06 0)
(8.54621e-06 8.73884e-06 0)
(8.98121e-06 9.26766e-06 0)
(9.41877e-06 9.79077e-06 0)
(9.85871e-06 1.03073e-05 0)
(1.03008e-05 1.08166e-05 0)
(1.07448e-05 1.13177e-05 0)
(1.11903e-05 1.18096e-05 0)
(1.16364e-05 1.22919e-05 0)
(3.36671e-06 2.30748e-06 0)
(3.71968e-06 2.77141e-06 0)
(4.08352e-06 3.25578e-06 0)
(4.45468e-06 3.75698e-06 0)
(4.83439e-06 4.27109e-06 0)
(5.2213e-06 4.79519e-06 0)
(5.61538e-06 5.32634e-06 0)
(6.01586e-06 5.86218e-06 0)
(6.42236e-06 6.40052e-06 0)
(6.83433e-06 6.93951e-06 0)
(7.25134e-06 7.47754e-06 0)
(7.67294e-06 8.01319e-06 0)
(8.09874e-06 8.54523e-06 0)
(8.52836e-06 9.0726e-06 0)
(8.96149e-06 9.59434e-06 0)
(9.39779e-06 1.01097e-05 0)
(9.83692e-06 1.06179e-05 0)
(1.02784e-05 1.11184e-05 0)
(1.07219e-05 1.16106e-05 0)
(1.1166e-05 1.20945e-05 0)
(3.07782e-06 2.16282e-06 0)
(3.40758e-06 2.62094e-06 0)
(3.74945e-06 3.09996e-06 0)
(4.10064e-06 3.59625e-06 0)
(4.46211e-06 4.10589e-06 0)
(4.8327e-06 4.62595e-06 0)
(5.21223e-06 5.15346e-06 0)
(5.59996e-06 5.68603e-06 0)
(5.99539e-06 6.22143e-06 0)
(6.39788e-06 6.75778e-06 0)
(6.80688e-06 7.29342e-06 0)
(7.2218e-06 7.82688e-06 0)
(7.6421e-06 8.35691e-06 0)
(8.06725e-06 8.8824e-06 0)
(8.49676e-06 9.40243e-06 0)
(8.93013e-06 9.91623e-06 0)
(9.36687e-06 1.04232e-05 0)
(9.80641e-06 1.0923e-05 0)
(1.02481e-05 1.14155e-05 0)
(1.06908e-05 1.19011e-05 0)
(2.76738e-06 2.02965e-06 0)
(3.0735e-06 2.48182e-06 0)
(3.39339e-06 2.95511e-06 0)
(3.72497e-06 3.44598e-06 0)
(4.06882e-06 3.95055e-06 0)
(4.42392e-06 4.46587e-06 0)
(4.78994e-06 4.98902e-06 0)
(5.16607e-06 5.51757e-06 0)
(5.55167e-06 6.0493e-06 0)
(5.94599e-06 6.5823e-06 0)
(6.3483e-06 7.11488e-06 0)
(6.75787e-06 7.64557e-06 0)
(7.17397e-06 8.17308e-06 0)
(7.5959e-06 8.6963e-06 0)
(8.02295e-06 9.2143e-06 0)
(8.45444e-06 9.72633e-06 0)
(8.88969e-06 1.02319e-05 0)
(9.32797e-06 1.07308e-05 0)
(9.76853e-06 1.12234e-05 0)
(1.02102e-05 1.17105e-05 0)
(2.42758e-06 1.90477e-06 0)
(2.70978e-06 2.35089e-06 0)
(3.00793e-06 2.81819e-06 0)
(3.32057e-06 3.30327e-06 0)
(3.64784e-06 3.8023e-06 0)
(3.98875e-06 4.3124e-06 0)
(4.34275e-06 4.83064e-06 0)
(4.7089e-06 5.35464e-06 0)
(5.08641e-06 5.88217e-06 0)
(5.47434e-06 6.41132e-06 0)
(5.87179e-06 6.94039e-06 0)
(6.27785e-06 7.4679e-06 0)
(6.69158e-06 7.99255e-06 0)
(7.11207e-06 8.51323e-06 0)
(7.5384e-06 9.02899e-06 0)
(7.96964e-06 9.53911e-06 0)
(8.40486e-06 1.00431e-05 0)
(8.84307e-06 1.05411e-05 0)
(9.28339e-06 1.10334e-05 0)
(9.72462e-06 1.15215e-05 0)
(2.05398e-06 1.79546e-06 0)
(2.31213e-06 2.23411e-06 0)
(2.58909e-06 2.69393e-06 0)
(2.88373e-06 3.17176e-06 0)
(3.19574e-06 3.66387e-06 0)
(3.52402e-06 4.16739e-06 0)
(3.86777e-06 4.67948e-06 0)
(4.22587e-06 5.19774e-06 0)
(4.59728e-06 5.71998e-06 0)
(4.98089e-06 6.24431e-06 0)
(5.37558e-06 6.76901e-06 0)
(5.78022e-06 7.29261e-06 0)
(6.1937e-06 7.81382e-06 0)
(6.61487e-06 8.33151e-06 0)
(7.04257e-06 8.84477e-06 0)
(7.47558e-06 9.35289e-06 0)
(7.91268e-06 9.85542e-06 0)
(8.35252e-06 1.03523e-05 0)
(8.79394e-06 1.08443e-05 0)
(9.23547e-06 1.13327e-05 0)
(2.972e-07 3.29199e-08 0)
(8.9733e-07 1.99902e-07 0)
(1.5348e-06 5.09908e-07 0)
(2.21811e-06 9.42315e-07 0)
(2.96055e-06 1.48551e-06 0)
(3.76643e-06 2.12018e-06 0)
(4.63899e-06 2.82569e-06 0)
(5.57673e-06 3.58047e-06 0)
(6.57682e-06 4.36273e-06 0)
(7.634e-06 5.15462e-06 0)
(2.79934e-07 2.96553e-08 0)
(8.45863e-07 1.80112e-07 0)
(1.4455e-06 4.61838e-07 0)
(2.0854e-06 8.58149e-07 0)
(2.77767e-06 1.36033e-06 0)
(3.52628e-06 1.9522e-06 0)
(4.33459e-06 2.61589e-06 0)
(5.20126e-06 3.3324e-06 0)
(6.12306e-06 4.08081e-06 0)
(7.09456e-06 4.84697e-06 0)
(2.64412e-07 2.57383e-08 0)
(7.99672e-07 1.5999e-07 0)
(1.36582e-06 4.15289e-07 0)
(1.96723e-06 7.77952e-07 0)
(2.61469e-06 1.24146e-06 0)
(3.31156e-06 1.79215e-06 0)
(4.06146e-06 2.41448e-06 0)
(4.86387e-06 3.09212e-06 0)
(5.71763e-06 3.80608e-06 0)
(6.61684e-06 4.54634e-06 0)
(2.50211e-07 2.11586e-08 0)
(7.57591e-07 1.39732e-07 0)
(1.29409e-06 3.71178e-07 0)
(1.86212e-06 7.03954e-07 0)
(2.47131e-06 1.13315e-06 0)
(3.12412e-06 1.64701e-06 0)
(3.82393e-06 2.23167e-06 0)
(4.56985e-06 2.87259e-06 0)
(5.36206e-06 3.55177e-06 0)
(6.19343e-06 4.26054e-06 0)
(2.36934e-07 1.58699e-08 0)
(7.18303e-07 1.18629e-07 0)
(1.22757e-06 3.27459e-07 0)
(1.76536e-06 6.32411e-07 0)
(2.34028e-06 1.02976e-06 0)
(2.95397e-06 1.50926e-06 0)
(3.60978e-06 2.05855e-06 0)
(4.30642e-06 2.66474e-06 0)
(5.04547e-06 3.31137e-06 0)
(5.81752e-06 3.98965e-06 0)
(2.24472e-07 9.97061e-09 0)
(6.81479e-07 9.68385e-08 0)
(1.16567e-06 2.84381e-07 0)
(1.67605e-06 5.6381e-07 0)
(2.22035e-06 9.32241e-07 0)
(2.79932e-06 1.38054e-06 0)
(3.41617e-06 1.89742e-06 0)
(4.06898e-06 2.47103e-06 0)
(4.76066e-06 3.08641e-06 0)
(5.48023e-06 3.73417e-06 0)
(2.12573e-07 3.43329e-09 0)
(6.46339e-07 7.40488e-08 0)
(1.1069e-06 2.41028e-07 0)
(1.5918e-06 4.96449e-07 0)
(2.10807e-06 8.38044e-07 0)
(2.65567e-06 1.25752e-06 0)
(3.23773e-06 1.74457e-06 0)
(3.85173e-06 2.28809e-06 0)
(4.50146e-06 2.8746e-06 0)
(5.17485e-06 3.49366e-06 0)
(2.01141e-07 -3.65215e-09 0)
(6.12588e-07 5.03662e-08 0)
(1.05067e-06 1.97437e-07 0)
(1.51166e-06 4.3028e-07 0)
(2.00196e-06 7.47052e-07 0)
(2.5208e-06 1.14005e-06 0)
(3.07123e-06 1.59968e-06 0)
(3.65025e-06 2.11537e-06 0)
(4.26226e-06 2.67497e-06 0)
(4.89479e-06 3.2672e-06 0)
(1.90026e-07 -1.12865e-08 0)
(5.79785e-07 2.56682e-08 0)
(9.96193e-07 1.53206e-07 0)
(1.43435e-06 3.64528e-07 0)
(1.90015e-06 6.58085e-07 0)
(2.39223e-06 1.02659e-06 0)
(2.91351e-06 1.46104e-06 0)
(3.46071e-06 1.95121e-06 0)
(4.03845e-06 2.48608e-06 0)
(4.63447e-06 3.05368e-06 0)
(1.79143e-07 -1.94109e-08 0)
(5.47677e-07 7.45708e-12 0)
(9.42981e-07 1.08298e-07 0)
(1.35908e-06 2.99035e-07 0)
(1.80141e-06 5.70831e-07 0)
(2.26813e-06 9.16646e-07 0)
(2.76203e-06 1.32794e-06 0)
(3.27974e-06 1.79469e-06 0)
(3.82589e-06 2.30682e-06 0)
(4.3888e-06 2.85198e-06 0)
(1.68413e-07 -2.80325e-08 0)
(5.16005e-07 -2.66735e-08 0)
(8.90558e-07 6.25184e-08 0)
(1.28506e-06 2.33433e-07 0)
(1.70455e-06 4.84726e-07 0)
(2.14681e-06 8.09484e-07 0)
(2.61453e-06 1.19947e-06 0)
(3.10442e-06 1.64483e-06 0)
(3.62094e-06 2.13617e-06 0)
(4.15328e-06 2.66104e-06 0)
(1.57774e-07 -3.7134e-08 0)
(4.84604e-07 -5.43757e-08 0)
(8.38593e-07 1.58158e-08 0)
(1.2117e-06 1.67618e-07 0)
(1.6086e-06 3.9958e-07 0)
(2.02682e-06 7.04795e-07 0)
(2.469e-06 1.07519e-06 0)
(2.93205e-06 1.50102e-06 0)
(3.42022e-06 1.97343e-06 0)
(3.92374e-06 2.48001e-06 0)
(1.47189e-07 -4.67375e-08 0)
(4.53393e-07 -8.31839e-08 0)
(7.86865e-07 -3.19572e-08 0)
(1.13852e-06 1.01398e-07 0)
(1.51269e-06 3.15143e-07 0)
(1.90682e-06 6.02252e-07 0)
(2.32352e-06 9.54677e-07 0)
(2.7601e-06 1.36273e-06 0)
(3.22053e-06 1.81796e-06 0)
(3.69621e-06 2.30816e-06 0)
(1.36655e-07 -5.69196e-08 0)
(4.2242e-07 -1.13195e-07 0)
(7.35285e-07 -8.08388e-08 0)
(1.06517e-06 3.48388e-08 0)
(1.41607e-06 2.31545e-07 0)
(1.78555e-06 5.01988e-07 0)
(2.17629e-06 8.38008e-07 0)
(2.58611e-06 1.22996e-06 0)
(3.01874e-06 1.66966e-06 0)
(3.46684e-06 2.14521e-06 0)
(1.26259e-07 -6.78295e-08 0)
(3.92049e-07 -1.44673e-07 0)
(6.84105e-07 -1.31063e-07 0)
(9.9155e-07 -3.22057e-08 0)
(1.3181e-06 1.48708e-07 0)
(1.66176e-06 4.03935e-07 0)
(2.02539e-06 7.25077e-07 0)
(2.40747e-06 1.1025e-06 0)
(2.81156e-06 1.52823e-06 0)
(3.23158e-06 1.99074e-06 0)
(1.16194e-07 -7.99543e-08 0)
(3.62865e-07 -1.77967e-07 0)
(6.33738e-07 -1.82519e-07 0)
(9.17632e-07 -9.91268e-08 0)
(1.21817e-06 6.75714e-08 0)
(1.53416e-06 3.09181e-07 0)
(1.86884e-06 6.16986e-07 0)
(2.2215e-06 9.81371e-07 0)
(2.59558e-06 1.39455e-06 0)
(2.9863e-06 1.84544e-06 0)
(1.07184e-07 -9.39014e-08 0)
(3.36732e-07 -2.13829e-07 0)
(5.85718e-07 -2.35698e-07 0)
(8.44017e-07 -1.66242e-07 0)
(1.11582e-06 -1.20577e-08 0)
(1.40127e-06 2.17546e-07 0)
(1.70423e-06 5.13498e-07 0)
(2.02492e-06 8.66219e-07 0)
(2.36668e-06 1.26813e-06 0)
(2.72606e-06 1.70864e-06 0)
(1.0077e-07 -1.12178e-07 0)
(3.15807e-07 -2.53345e-07 0)
(5.41521e-07 -2.895e-07 0)
(7.70982e-07 -2.3087e-07 0)
(1.01027e-06 -8.67543e-08 0)
(1.26132e-06 1.327e-07 0)
(1.52895e-06 4.18224e-07 0)
(1.8143e-06 7.60462e-07 0)
(2.12069e-06 1.15208e-06 0)
(2.44595e-06 1.58307e-06 0)
(1.04456e-07 -1.36738e-07 0)
(3.08159e-07 -2.9796e-07 0)
(5.0626e-07 -3.44934e-07 0)
(7.00321e-07 -2.94528e-07 0)
(9.0068e-07 -1.58357e-07 0)
(1.11157e-06 5.24636e-08 0)
(1.33877e-06 3.28707e-07 0)
(1.58422e-06 6.61346e-07 0)
(1.85122e-06 1.04343e-06 0)
(2.13859e-06 1.46558e-06 0)
(1.34123e-07 -1.80885e-07 0)
(3.18821e-07 -3.48536e-07 0)
(4.82296e-07 -3.94884e-07 0)
(6.31726e-07 -3.46278e-07 0)
(7.85833e-07 -2.15272e-07 0)
(9.49986e-07 -1.17121e-08 0)
(1.13113e-06 2.55828e-07 0)
(1.33152e-06 5.79108e-07 0)
(1.55459e-06 9.51613e-07 0)
(1.79975e-06 1.36468e-06 0)
)
;

boundaryField
{
    left
    {
        type            fixedDisplacement;
        value           uniform (0 0 0);
    }
    right
    {
        type            solidTraction;
        tractionSeries  
{
        file            "$FOAM_CASE/constant/timeVsTraction";
        outOfBounds     clamp;
}
        pressure        uniform 0;
        secondOrder     false;
        setEffectiveTraction false;
        relaxationFactor 1;
        value           nonuniform List<vector> 
30
(
(2.4594e-05 1.80742e-05 -9.84701e-21)
(2.402e-05 1.7868e-05 -9.90536e-21)
(2.3441e-05 1.76632e-05 -1.00148e-20)
(2.28552e-05 1.7456e-05 -1.017e-20)
(2.22627e-05 1.72441e-05 -1.0371e-20)
(2.16649e-05 1.70253e-05 -1.06178e-20)
(2.10639e-05 1.67982e-05 -1.09112e-20)
(2.04622e-05 1.65621e-05 -1.12516e-20)
(1.98623e-05 1.63172e-05 -1.16393e-20)
(1.9267e-05 1.6064e-05 -1.20748e-20)
(1.87038e-05 1.58148e-05 -1.23075e-20)
(1.81698e-05 1.55698e-05 -1.22794e-20)
(1.76433e-05 1.53211e-05 -1.22613e-20)
(1.71254e-05 1.507e-05 -1.22528e-20)
(1.66167e-05 1.48181e-05 -1.22553e-20)
(1.61159e-05 1.45673e-05 -1.22682e-20)
(1.56239e-05 1.43183e-05 -1.22898e-20)
(1.51397e-05 1.40731e-05 -1.232e-20)
(1.46622e-05 1.38326e-05 -1.23571e-20)
(1.41903e-05 1.35979e-05 -1.23997e-20)
(1.37224e-05 1.33697e-05 -1.24458e-20)
(1.3257e-05 1.31485e-05 -1.24935e-20)
(1.27925e-05 1.29343e-05 -1.25407e-20)
(1.23271e-05 1.27271e-05 -1.25852e-20)
(1.18594e-05 1.25263e-05 -1.26248e-20)
(1.1388e-05 1.2331e-05 -1.26579e-20)