/*--------------------------------*- C++ -*----------------------------------*\
  =========                 |
  \\      /  F ield         | OpenFOAM: The Open Source CFD Toolbox
   \\    /   O peration     | Website:  https://openfoam.org
    \\  /    A nd           | Version:  9
     \\/     M anipulation  |
\*---------------------------------------------------------------------------*/
FoamFile
{
    format      ascii;
    class       volVectorField;
    location    "15";
    object      D_0;
}
// * * * * * * * * * * * * * * * * * * * * * * * * * * * * * * * * * * * * * //

dimensions      [0 1 0 0 0 0 0];

internalField   nonuniform List<vector> 
1000
(
(9.47981e-06 3.18455e-06 0)
(8.84462e-06 3.51955e-06 0)
(8.38227e-06 3.80096e-06 0)
(8.04772e-06 4.02093e-06 0)
(7.80877e-06 4.21053e-06 0)
(7.63999e-06 4.37367e-06 0)
(7.52555e-06 4.52057e-06 0)
(7.45273e-06 4.65438e-06 0)
(7.41148e-06 4.7792e-06 0)
(7.39666e-06 4.89754e-06 0)
(8.54507e-06 2.87086e-06 0)
(7.88486e-06 3.11462e-06 0)
(7.40759e-06 3.32797e-06 0)
(7.06358e-06 3.49273e-06 0)
(6.81834e-06 3.63711e-06 0)
(6.64453e-06 3.7613e-06 0)
(6.52533e-06 3.87384e-06 0)
(6.44721e-06 3.97679e-06 0)
(6.39982e-06 4.0723e-06 0)
(6.37623e-06 4.16548e-06 0)
(7.59058e-06 2.55551e-06 0)
(6.92335e-06 2.7026e-06 0)
(6.44405e-06 2.8452e-06 0)
(6.10029e-06 2.95426e-06 0)
(5.85624e-06 3.05417e-06 0)
(5.68328e-06 3.1411e-06 0)
(5.56396e-06 3.22152e-06 0)
(5.48438e-06 3.29608e-06 0)
(5.43411e-06 3.36511e-06 0)
(5.40584e-06 3.4343e-06 0)
(6.62162e-06 2.2427e-06 0)
(5.96591e-06 2.29272e-06 0)
(5.49823e-06 2.36377e-06 0)
(5.16524e-06 2.41861e-06 0)
(4.93044e-06 2.47621e-06 0)
(4.7647e-06 2.52867e-06 0)
(4.65039e-06 2.58006e-06 0)
(4.57345e-06 2.6293e-06 0)
(4.52404e-06 2.67523e-06 0)
(4.49415e-06 2.72303e-06 0)
(5.64207e-06 1.9397e-06 0)
(5.0154e-06 1.89398e-06 0)
(4.57381e-06 1.89604e-06 0)
(4.26288e-06 1.89997e-06 0)
(4.04601e-06 1.91936e-06 0)
(3.8942e-06 1.94165e-06 0)
(3.79002e-06 1.96839e-06 0)
(3.71972e-06 1.99643e-06 0)
(3.67429e-06 2.02339e-06 0)
(3.64546e-06 2.0532e-06 0)
(4.6557e-06 1.64746e-06 0)
(4.07368e-06 1.51095e-06 0)
(3.67352e-06 1.45112e-06 0)
(3.39653e-06 1.41077e-06 0)
(3.20679e-06 1.39864e-06 0)
(3.07561e-06 1.39698e-06 0)
(2.9865e-06 1.40482e-06 0)
(2.92647e-06 1.41689e-06 0)
(2.88767e-06 1.42982e-06 0)
(2.86206e-06 1.44597e-06 0)
(3.65173e-06 1.36567e-06 0)
(3.13744e-06 1.14801e-06 0)
(2.79634e-06 1.03756e-06 0)
(2.56646e-06 9.64224e-07 0)
(2.41324e-06 9.30133e-07 0)
(2.30905e-06 9.12786e-07 0)
(2.23932e-06 9.08633e-07 0)
(2.19249e-06 9.10634e-07 0)
(2.16226e-06 9.14815e-07 0)
(2.14146e-06 9.21988e-07 0)
(2.63737e-06 1.08264e-06 0)
(2.21029e-06 8.04578e-07 0)
(1.94826e-06 6.63104e-07 0)
(1.77782e-06 5.73902e-07 0)
(1.66866e-06 5.30832e-07 0)
(1.5958e-06 5.07922e-07 0)
(1.54789e-06 4.99471e-07 0)
(1.51572e-06 4.9759e-07 0)
(1.49493e-06 4.98243e-07 0)
(1.47989e-06 5.01116e-07 0)
(1.59291e-06 7.78306e-07 0)
(1.29024e-06 4.79329e-07 0)
(1.12782e-06 3.35912e-07 0)
(1.02725e-06 2.55886e-07 0)
(9.67282e-07 2.19504e-07 0)
(9.27828e-07 2.01515e-07 0)
(9.02417e-07 1.95427e-07 0)
(8.85063e-07 1.9431e-07 0)
(8.73634e-07 1.94975e-07 0)
(8.64649e-07 1.96761e-07 0)
(5.47703e-07 4.05367e-07 0)
(4.10406e-07 1.82743e-07 0)
(3.60362e-07 8.92574e-08 0)
(3.33135e-07 4.97831e-08 0)
(3.17149e-07 3.43379e-08 0)
(3.06129e-07 2.87189e-08 0)
(2.98837e-07 2.80082e-08 0)
(2.93549e-07 2.90569e-08 0)
(2.89903e-07 3.04187e-08 0)
(2.86709e-07 3.19202e-08 0)
(1.67214e-05 5.16673e-06 0)
(1.66936e-05 5.81042e-06 0)
(1.66744e-05 6.41032e-06 0)
(1.66748e-05 6.95953e-06 0)
(1.66996e-05 7.4636e-06 0)
(1.67507e-05 7.92881e-06 0)
(1.68283e-05 8.36239e-06 0)
(1.6931e-05 8.77068e-06 0)
(1.70576e-05 9.15863e-06 0)
(1.72051e-05 9.5318e-06 0)
(1.61957e-05 5.12417e-06 0)
(1.61212e-05 5.76602e-06 0)
(1.60703e-05 6.35861e-06 0)
(1.60475e-05 6.89677e-06 0)
(1.60554e-05 7.38736e-06 0)
(1.60925e-05 7.83706e-06 0)
(1.61574e-05 8.25381e-06 0)
(1.62472e-05 8.64424e-06 0)
(1.63606e-05 9.01358e-06 0)
(1.64932e-05 9.36813e-06 0)
(1.56384e-05 5.03786e-06 0)
(1.55085e-05 5.67812e-06 0)
(1.54145e-05 6.25864e-06 0)
(1.53578e-05 6.77944e-06 0)
(1.53388e-05 7.25098e-06 0)
(1.53532e-05 7.68086e-06 0)
(1.53984e-05 8.07757e-06 0)
(1.54696e-05 8.44792e-06 0)
(1.55652e-05 8.79723e-06 0)
(1.56793e-05 9.13199e-06 0)
(1.50364e-05 4.91237e-06 0)
(1.48443e-05 5.54961e-06 0)
(1.47003e-05 6.11533e-06 0)
(1.46033e-05 6.61491e-06 0)
(1.45513e-05 7.0635e-06 0)
(1.45377e-05 7.46988e-06 0)
(1.45585e-05 7.84333e-06 0)
(1.46073e-05 8.19066e-06 0)
(1.46821e-05 8.51746e-06 0)
(1.47752e-05 8.83014e-06 0)
(1.43828e-05 4.74892e-06 0)
(1.41225e-05 5.37805e-06 0)
(1.3925e-05 5.92431e-06 0)
(1.37855e-05 6.39778e-06 0)
(1.36987e-05 6.81893e-06 0)
(1.36556e-05 7.19775e-06 0)
(1.36505e-05 7.54442e-06 0)
(1.36758e-05 7.86574e-06 0)
(1.3729e-05 8.16758e-06 0)
(1.38006e-05 8.45591e-06 0)
(1.36767e-05 4.55127e-06 0)
(1.33443e-05 5.16365e-06 0)
(1.30922e-05 5.68479e-06 0)
(1.29103e-05 6.12767e-06 0)
(1.27891e-05 6.51767e-06 0)
(1.27169e-05 6.86562e-06 0)
(1.26864e-05 7.18266e-06 0)
(1.26886e-05 7.47536e-06 0)
(1.27205e-05 7.75001e-06 0)
(1.27713e-05 8.01182e-06 0)
(1.29199e-05 4.32239e-06 0)
(1.25145e-05 4.9064e-06 0)
(1.22089e-05 5.39529e-06 0)
(1.19866e-05 5.80267e-06 0)
(1.18332e-05 6.15793e-06 0)
(1.17339e-05 6.47216e-06 0)
(1.16798e-05 6.75717e-06 0)
(1.16608e-05 7.01923e-06 0)
(1.1673e-05 7.2649e-06 0)
(1.17047e-05 7.49852e-06 0)
(1.21165e-05 4.06656e-06 0)
(1.16405e-05 4.60875e-06 0)
(1.12849e-05 5.05743e-06 0)
(1.10258e-05 5.42449e-06 0)
(1.08434e-05 5.74188e-06 0)
(1.07201e-05 6.02013e-06 0)
(1.06453e-05 6.27144e-06 0)
(1.06076e-05 6.5014e-06 0)
(1.06024e-05 6.71689e-06 0)
(1.06175e-05 6.92086e-06 0)
(1.12714e-05 3.78814e-06 0)
(1.07312e-05 4.2744e-06 0)
(1.03315e-05 4.67469e-06 0)
(1.00405e-05 4.99668e-06 0)
(9.83359e-06 5.27342e-06 0)
(9.69037e-06 5.51403e-06 0)
(9.59821e-06 5.73053e-06 0)
(9.54505e-06 5.92782e-06 0)
(9.52481e-06 6.11228e-06 0)
(9.52646e-06 6.28622e-06 0)
(1.03906e-05 3.49225e-06 0)
(9.79614e-06 3.90895e-06 0)
(9.36017e-06 4.25316e-06 0)
(9.04355e-06 4.52585e-06 0)
(8.81751e-06 4.75977e-06 0)
(8.65882e-06 4.96174e-06 0)
(8.55324e-06 5.14323e-06 0)
(8.4881e-06 5.30781e-06 0)
(8.45593e-06 5.46175e-06 0)
(8.44802e-06 5.60377e-06 0)
(1.73815e-05 9.89074e-06 0)
(1.7584e-05 1.02469e-05 0)
(1.78022e-05 1.05974e-05 0)
(1.80341e-05 1.09437e-05 0)
(1.82786e-05 1.12877e-05 0)
(1.85344e-05 1.16305e-05 0)
(1.88004e-05 1.19731e-05 0)
(1.90753e-05 1.23164e-05 0)
(1.93584e-05 1.2661e-05 0)
(1.96486e-05 1.30078e-05 0)
(1.9945e-05 1.3357e-05 0)
(2.0247e-05 1.37093e-05 0)
(2.05538e-05 1.4065e-05 0)
(2.08646e-05 1.44242e-05 0)
(2.11787e-05 1.47874e-05 0)
(2.14955e-05 1.51545e-05 0)
(2.18142e-05 1.55255e-05 0)
(2.21342e-05 1.59e-05 0)
(2.24548e-05 1.62776e-05 0)
(2.27754e-05 1.66569e-05 0)
(1.66772e-05 9.71356e-06 0)
(1.69049e-05 1.00639e-05 0)
(1.71448e-05 1.04087e-05 0)
(1.7395e-05 1.07502e-05 0)
(1.76552e-05 1.109e-05 0)
(1.7924e-05 1.14292e-05 0)
(1.82009e-05 1.17689e-05 0)
(1.8485e-05 1.21099e-05 0)
(1.87758e-05 1.24529e-05 0)
(1.90724e-05 1.27984e-05 0)
(1.93743e-05 1.3147e-05 0)
(1.9681e-05 1.34991e-05 0)
(1.99917e-05 1.38551e-05 0)
(2.03061e-05 1.42152e-05 0)
(2.06236e-05 1.45796e-05 0)
(2.09436e-05 1.49484e-05 0)
(2.12658e-05 1.53216e-05 0)
(2.15895e-05 1.56988e-05 0)
(2.19143e-05 1.60795e-05 0)
(2.22395e-05 1.64626e-05 0)
(1.58735e-05 9.46723e-06 0)
(1.61336e-05 9.81818e-06 0)
(1.64025e-05 1.01639e-05 0)
(1.66778e-05 1.0506e-05 0)
(1.69599e-05 1.08469e-05 0)
(1.72479e-05 1.11871e-05 0)
(1.75417e-05 1.15281e-05 0)
(1.78405e-05 1.18705e-05 0)
(1.81443e-05 1.22152e-05 0)
(1.84524e-05 1.25628e-05 0)
(1.87645e-05 1.29136e-05 0)
(1.90803e-05 1.32682e-05 0)
(1.93995e-05 1.3627e-05 0)
(1.97216e-05 1.39902e-05 0)
(2.00464e-05 1.4358e-05 0)
(2.03735e-05 1.47306e-05 0)
(2.07027e-05 1.51081e-05 0)
(2.10334e-05 1.54902e-05 0)
(2.13654e-05 1.58768e-05 0)
(2.16977e-05 1.62671e-05 0)
(1.49823e-05 9.15719e-06 0)
(1.52808e-05 9.51388e-06 0)
(1.55848e-05 9.86555e-06 0)
(1.58909e-05 1.0213e-05 0)
(1.62008e-05 1.05591e-05 0)
(1.65133e-05 1.09043e-05 0)
(1.68291e-05 1.12502e-05 0)
(1.71476e-05 1.15974e-05 0)
(1.74689e-05 1.1947e-05 0)
(1.77929e-05 1.22994e-05 0)
(1.81195e-05 1.26552e-05 0)
(1.84485e-05 1.30149e-05 0)
(1.87797e-05 1.33788e-05 0)
(1.91132e-05 1.37474e-05 0)
(1.94487e-05 1.41209e-05 0)
(1.9786e-05 1.44996e-05 0)
(2.0125e-05 1.48835e-05 0)
(2.04654e-05 1.52729e-05 0)
(2.08068e-05 1.56677e-05 0)
(2.11483e-05 1.60678e-05 0)
(1.40228e-05 8.77757e-06 0)
(1.43643e-05 9.14575e-06 0)
(1.47081e-05 9.50922e-06 0)
(1.50492e-05 9.86711e-06 0)
(1.53912e-05 1.02233e-05 0)
(1.57323e-05 1.05779e-05 0)
(1.60741e-05 1.09328e-05 0)
(1.64159e-05 1.12886e-05 0)
(1.67585e-05 1.16464e-05 0)
(1.71017e-05 1.20069e-05 0)
(1.74459e-05 1.23706e-05 0)
(1.77911e-05 1.2738e-05 0)
(1.81374e-05 1.31098e-05 0)
(1.84848e-05 1.34862e-05 0)
(1.88334e-05 1.38677e-05 0)
(1.91832e-05 1.42545e-05 0)
(1.95342e-05 1.46471e-05 0)
(1.98861e-05 1.50458e-05 0)
(2.02388e-05 1.54511e-05 0)
(2.05914e-05 1.58631e-05 0)
(1.30109e-05 8.33063e-06 0)
(1.33985e-05 8.71567e-06 0)
(1.37855e-05 9.09636e-06 0)
(1.4165e-05 9.46959e-06 0)
(1.45422e-05 9.84046e-06 0)
(1.49151e-05 1.02087e-05 0)
(1.52857e-05 1.05764e-05 0)
(1.56539e-05 1.09445e-05 0)
(1.60205e-05 1.13139e-05 0)
(1.63857e-05 1.16855e-05 0)
(1.675e-05 1.206e-05 0)
(1.71137e-05 1.2438e-05 0)
(1.74772e-05 1.282e-05 0)
(1.78406e-05 1.32066e-05 0)
(1.82042e-05 1.35982e-05 0)
(1.85682e-05 1.39954e-05 0)
(1.89328e-05 1.43986e-05 0)
(1.92977e-05 1.48085e-05 0)
(1.96631e-05 1.52259e-05 0)
(2.00283e-05 1.56513e-05 0)
(1.19632e-05 7.81727e-06 0)
(1.23985e-05 8.22455e-06 0)
(1.28308e-05 8.62774e-06 0)
(1.32507e-05 9.02128e-06 0)
(1.36653e-05 9.41124e-06 0)
(1.40721e-05 9.79726e-06 0)
(1.44738e-05 1.01817e-05 0)
(1.48704e-05 1.05655e-05 0)
(1.52629e-05 1.09499e-05 0)
(1.5652e-05 1.13357e-05 0)
(1.60382e-05 1.17239e-05 0)
(1.64222e-05 1.21151e-05 0)
(1.68044e-05 1.251e-05 0)
(1.71853e-05 1.29091e-05 0)
(1.75653e-05 1.33131e-05 0)
(1.79448e-05 1.37226e-05 0)
(1.8324e-05 1.41382e-05 0)
(1.8703e-05 1.45608e-05 0)
(1.90822e-05 1.49916e-05 0)
(1.94612e-05 1.54313e-05 0)
(1.08954e-05 7.24217e-06 0)
(1.13786e-05 7.67673e-06 0)
(1.18567e-05 8.10665e-06 0)
(1.2318e-05 8.52507e-06 0)
(1.27708e-05 8.93811e-06 0)
(1.32128e-05 9.34594e-06 0)
(1.36469e-05 9.75078e-06 0)
(1.40733e-05 1.01538e-05 0)
(1.44932e-05 1.05564e-05 0)
(1.49075e-05 1.09595e-05 0)
(1.5317e-05 1.13641e-05 0)
(1.57225e-05 1.1771e-05 0)
(1.61246e-05 1.21811e-05 0)
(1.65239e-05 1.25949e-05 0)
(1.69212e-05 1.30133e-05 0)
(1.73169e-05 1.34369e-05 0)
(1.77115e-05 1.38665e-05 0)
(1.81054e-05 1.43032e-05 0)
(1.84989e-05 1.47484e-05 0)
(1.88924e-05 1.5203e-05 0)
(9.82372e-06 6.61078e-06 0)
(1.03535e-05 7.07791e-06 0)
(1.08761e-05 7.53784e-06 0)
(1.1379e-05 7.98535e-06 0)
(1.187e-05 8.42478e-06 0)
(1.23476e-05 8.85762e-06 0)
(1.28144e-05 9.28582e-06 0)
(1.3271e-05 9.711e-06 0)
(1.37189e-05 1.01345e-05 0)
(1.4159e-05 1.05576e-05 0)
(1.45924e-05 1.09813e-05 0)
(1.502e-05 1.14066e-05 0)
(1.54425e-05 1.18343e-05 0)
(1.5861e-05 1.22651e-05 0)
(1.6276e-05 1.26998e-05 0)
(1.66884e-05 1.31393e-05 0)
(1.70988e-05 1.35845e-05 0)
(1.75079e-05 1.40364e-05 0)
(1.79161e-05 1.44966e-05 0)
(1.83245e-05 1.49663e-05 0)
(8.76057e-06 5.93287e-06 0)
(9.33443e-06 6.43586e-06 0)
(9.89695e-06 6.92672e-06 0)
(1.04403e-05 7.40638e-06 0)
(1.09687e-05 7.8757e-06 0)
(1.14821e-05 8.33693e-06 0)
(1.1982e-05 8.79175e-06 0)
(1.24696e-05 9.24196e-06 0)
(1.29461e-05 9.68912e-06 0)
(1.34126e-05 1.01346e-05 0)
(1.38703e-05 1.05796e-05 0)
(1.43203e-05 1.10253e-05 0)
(1.47637e-05 1.14724e-05 0)
(1.52014e-05 1.1922e-05 0)
(1.56344e-05 1.23748e-05 0)
(1.60635e-05 1.28316e-05 0)
(1.64897e-05 1.32935e-05 0)
(1.69139e-05 1.37615e-05 0)
(1.73369e-05 1.42373e-05 0)
(1.77601e-05 1.4722e-05 0)
(7.94047e-06 5.42475e-06 0)
(8.53879e-06 5.95379e-06 0)
(9.12223e-06 6.46211e-06 0)
(9.68758e-06 6.96008e-06 0)
(1.02372e-05 7.44765e-06 0)
(1.07711e-05 7.92695e-06 0)
(1.12907e-05 8.39955e-06 0)
(1.17969e-05 8.867e-06 0)
(1.22908e-05 9.33075e-06 0)
(1.27736e-05 9.79209e-06 0)
(1.32465e-05 1.02522e-05 0)
(1.37104e-05 1.0712e-05 0)
(1.41666e-05 1.11725e-05 0)
(1.4616e-05 1.16345e-05 0)
(1.50597e-05 1.20988e-05 0)
(1.54987e-05 1.25662e-05 0)
(1.5934e-05 1.30376e-05 0)
(1.63668e-05 1.35139e-05 0)
(1.67979e-05 1.39967e-05 0)
(1.72295e-05 1.44868e-05 0)
(7.3932e-06 5.12103e-06 0)
(7.99156e-06 5.64994e-06 0)
(8.57511e-06 6.16233e-06 0)
(9.14227e-06 6.66586e-06 0)
(9.69461e-06 7.16032e-06 0)
(1.0232e-05 7.64718e-06 0)
(1.07555e-05 8.12771e-06 0)
(1.12659e-05 8.60313e-06 0)
(1.17641e-05 9.07465e-06 0)
(1.2251e-05 9.54334e-06 0)
(1.27278e-05 1.00102e-05 0)
(1.31953e-05 1.04762e-05 0)
(1.36547e-05 1.0942e-05 0)
(1.4107e-05 1.14085e-05 0)
(1.45531e-05 1.18762e-05 0)
(1.49942e-05 1.2346e-05 0)
(1.54312e-05 1.28186e-05 0)
(1.58656e-05 1.32947e-05 0)
(1.6298e-05 1.37755e-05 0)
(1.67311e-05 1.42617e-05 0)
(6.91026e-06 4.82954e-06 0)
(7.49776e-06 5.3568e-06 0)
(8.07528e-06 5.87059e-06 0)
(8.63801e-06 6.37746e-06 0)
(9.18805e-06 6.87686e-06 0)
(9.72434e-06 7.36969e-06 0)
(1.02479e-05 7.85689e-06 0)
(1.0759e-05 8.33932e-06 0)
(1.12584e-05 8.8179e-06 0)
(1.17468e-05 9.29348e-06 0)
(1.22252e-05 9.76685e-06 0)
(1.26945e-05 1.02388e-05 0)
(1.31555e-05 1.07098e-05 0)
(1.36093e-05 1.11807e-05 0)
(1.40568e-05 1.16519e-05 0)
(1.44991e-05 1.21241e-05 0)
(1.49372e-05 1.25977e-05 0)
(1.53725e-05 1.30733e-05 0)
(1.58059e-05 1.35518e-05 0)
(1.624e-05 1.40335e-05 0)
(6.47754e-06 4.54897e-06 0)
(7.05088e-06 5.07187e-06 0)
(7.61795e-06 5.5851e-06 0)
(8.17221e-06 6.0939e-06 0)
(8.71598e-06 6.59702e-06 0)
(9.24752e-06 7.09488e-06 0)
(9.76769e-06 7.58794e-06 0)
(1.02764e-05 8.07671e-06 0)
(1.07742e-05 8.56181e-06 0)
(1.12618e-05 9.04383e-06 0)
(1.17398e-05 9.52335e-06 0)
(1.22089e-05 1.00009e-05 0)
(1.267e-05 1.0477e-05 0)
(1.3124e-05 1.09522e-05 0)
(1.35719e-05 1.14267e-05 0)
(1.40145e-05 1.19011e-05 0)
(1.4453e-05 1.23756e-05 0)
(1.48886e-05 1.28506e-05 0)
(1.53225e-05 1.33265e-05 0)
(1.57572e-05 1.38034e-05 0)
(6.09005e-06 4.28223e-06 0)
(6.64606e-06 4.7992e-06 0)
(7.19913e-06 5.3102e-06 0)
(7.74151e-06 5.8192e-06 0)
(8.2757e-06 6.32448e-06 0)
(8.7994e-06 6.82596e-06 0)
(9.31331e-06 7.32367e-06 0)
(9.817e-06 7.81775e-06 0)
(1.03109e-05 8.30851e-06 0)
(1.07954e-05 8.79627e-06 0)
(1.12711e-05 9.28138e-06 0)
(1.17384e-05 9.76417e-06 0)
(1.21982e-05 1.0245e-05 0)
(1.26513e-05 1.07241e-05 0)
(1.30984e-05 1.12017e-05 0)
(1.35406e-05 1.16781e-05 0)
(1.39788e-05 1.21534e-05 0)
(1.4414e-05 1.26277e-05 0)
(1.48482e-05 1.31006e-05 0)
(1.52831e-05 1.35725e-05 0)
(5.7403e-06 4.02918e-06 0)
(6.27725e-06 4.53874e-06 0)
(6.81399e-06 5.04606e-06 0)
(7.34215e-06 5.55389e-06 0)
(7.86427e-06 6.06002e-06 0)
(8.37769e-06 6.56395e-06 0)
(8.88297e-06 7.06525e-06 0)
(9.37943e-06 7.56371e-06 0)
(9.86739e-06 8.0593e-06 0)
(1.0347e-05 8.55207e-06 0)
(1.08186e-05 9.04213e-06 0)
(1.12827e-05 9.52962e-06 0)
(1.17399e-05 1.00147e-05 0)
(1.21909e-05 1.04974e-05 0)
(1.26364e-05 1.09778e-05 0)
(1.30774e-05 1.1456e-05 0)
(1.35146e-05 1.19319e-05 0)
(1.39494e-05 1.24051e-05 0)
(1.43826e-05 1.28753e-05 0)
(1.48168e-05 1.33424e-05 0)
(5.4222e-06 3.78995e-06 0)
(5.93903e-06 4.29127e-06 0)
(6.45779e-06 4.79386e-06 0)
(6.97001e-06 5.29934e-06 0)
(7.47815e-06 5.80514e-06 0)
(7.97939e-06 6.31037e-06 0)
(8.47414e-06 6.81416e-06 0)
(8.96157e-06 7.316e-06 0)
(9.44183e-06 7.81551e-06 0)
(9.91488e-06 8.31249e-06 0)
(1.0381e-05 8.8068e-06 0)
(1.08406e-05 9.29837e-06 0)
(1.12941e-05 9.78713e-06 0)
(1.17421e-05 1.0273e-05 0)
(1.21852e-05 1.07559e-05 0)
(1.26243e-05 1.12356e-05 0)
(1.306e-05 1.17118e-05 0)
(1.34937e-05 1.21842e-05 0)
(1.39258e-05 1.26517e-05 0)
(1.4359e-05 1.31141e-05 0)
(5.12976e-06 3.56396e-06 0)
(5.62595e-06 4.05648e-06 0)
(6.12576e-06 4.55357e-06 0)
(6.6209e-06 5.0558e-06 0)
(7.11371e-06 5.56032e-06 0)
(7.60134e-06 6.06587e-06 0)
(8.0841e-06 6.57121e-06 0)
(8.56104e-06 7.0755e-06 0)
(9.03221e-06 7.57808e-06 0)
(9.49744e-06 8.07847e-06 0)
(9.95692e-06 8.57631e-06 0)
(1.04109e-05 9.0713e-06 0)
(1.08597e-05 9.56319e-06 0)
(1.13038e-05 1.00518e-05 0)
(1.17438e-05 1.05367e-05 0)
(1.21804e-05 1.10177e-05 0)
(1.26141e-05 1.14941e-05 0)
(1.30462e-05 1.19655e-05 0)
(1.34769e-05 1.24306e-05 0)
(1.39086e-05 1.28887e-05 0)
(4.85768e-06 3.3505e-06 0)
(5.33303e-06 3.83407e-06 0)
(5.81331e-06 4.32521e-06 0)
(6.29061e-06 4.82355e-06 0)
(6.76714e-06 5.32603e-06 0)
(7.24012e-06 5.83107e-06 0)
(7.70977e-06 6.3371e-06 0)
(8.17511e-06 6.84299e-06 0)
(8.63609e-06 7.3478e-06 0)
(9.09245e-06 7.8508e-06 0)
(9.5443e-06 8.35142e-06 0)
(9.99175e-06 8.84916e-06 0)
(1.04351e-05 9.3436e-06 0)
(1.08747e-05 9.83432e-06 0)
(1.1311e-05 1.03209e-05 0)
(1.17445e-05 1.08028e-05 0)
(1.21758e-05 1.12794e-05 0)
(1.26058e-05 1.17499e-05 0)
(1.30349e-05 1.22128e-05 0)
(1.34647e-05 1.26673e-05 0)
(4.60101e-06 3.14874e-06 0)
(5.05553e-06 3.62349e-06 0)
(5.51598e-06 4.10846e-06 0)
(5.97497e-06 4.60249e-06 0)
(6.43459e-06 5.10237e-06 0)
(6.89219e-06 5.60623e-06 0)
(7.34794e-06 6.11222e-06 0)
(7.80085e-06 6.61894e-06 0)
(8.25081e-06 7.1252e-06 0)
(8.69751e-06 7.63006e-06 0)
(9.14097e-06 8.13273e-06 0)
(9.58122e-06 8.63255e-06 0)
(1.00185e-05 9.12891e-06 0)
(1.04529e-05 9.62128e-06 0)
(1.0885e-05 1.01091e-05 0)
(1.13151e-05 1.05917e-05 0)
(1.17437e-05 1.10682e-05 0)
(1.21713e-05 1.15379e-05 0)
(1.25984e-05 1.1999e-05 0)
(1.30262e-05 1.24506e-05 0)
(4.35521e-06 2.95787e-06 0)
(4.789e-06 3.42414e-06 0)
(5.22949e-06 3.90293e-06 0)
(5.6699e-06 4.39245e-06 0)
(6.11219e-06 4.88934e-06 0)
(6.55392e-06 5.39148e-06 0)
(6.99522e-06 5.89679e-06 0)
(7.43513e-06 6.40366e-06 0)
(7.87349e-06 6.91066e-06 0)
(8.30996e-06 7.41666e-06 0)
(8.74448e-06 7.92069e-06 0)
(9.17702e-06 8.42191e-06 0)
(9.60769e-06 8.9196e-06 0)
(1.00367e-05 9.41307e-06 0)
(1.04642e-05 9.90164e-06 0)
(1.08905e-05 1.03846e-05 0)
(1.1316e-05 1.0861e-05 0)
(1.17411e-05 1.133e-05 0)
(1.2166e-05 1.17897e-05 0)
(1.25915e-05 1.22392e-05 0)
(4.11605e-06 2.7772e-06 0)
(4.52917e-06 3.23549e-06 0)
(4.94963e-06 3.70826e-06 0)
(5.37132e-06 4.19318e-06 0)
(5.79606e-06 4.6868e-06 0)
(6.22162e-06 5.18682e-06 0)
(6.64814e-06 5.69092e-06 0)
(7.07469e-06 6.19731e-06 0)
(7.5011e-06 6.7044e-06 0)
(7.92698e-06 7.21087e-06 0)
(8.35223e-06 7.71558e-06 0)
(8.77675e-06 8.21756e-06 0)
(9.20055e-06 8.71597e-06 0)
(9.62374e-06 9.21002e-06 0)
(1.00464e-05 9.69894e-06 0)
(1.04688e-05 1.01819e-05 0)
(1.08911e-05 1.06581e-05 0)
(1.13135e-05 1.11265e-05 0)
(1.17361e-05 1.15853e-05 0)
(1.21591e-05 1.20336e-05 0)
(3.87941e-06 2.60611e-06 0)
(4.27188e-06 3.05701e-06 0)
(4.67227e-06 3.524e-06 0)
(5.07515e-06 4.00435e-06 0)
(5.48222e-06 4.49454e-06 0)
(5.8915e-06 4.99209e-06 0)
(6.30309e-06 5.49452e-06 0)
(6.71614e-06 5.9999e-06 0)
(7.13045e-06 6.50647e-06 0)
(7.54561e-06 7.01276e-06 0)
(7.96146e-06 7.51752e-06 0)
(8.37783e-06 8.01965e-06 0)
(8.79467e-06 8.5182e-06 0)
(9.21196e-06 9.01231e-06 0)
(9.62974e-06 9.50115e-06 0)
(1.00481e-05 9.98391e-06 0)
(1.04671e-05 1.04597e-05 0)
(1.08867e-05 1.09275e-05 0)
(1.13069e-05 1.13858e-05 0)
(1.17276e-05 1.18338e-05 0)
(3.64126e-06 2.44432e-06 0)
(4.01298e-06 2.88843e-06 0)
(4.39323e-06 3.34994e-06 0)
(4.77727e-06 3.82578e-06 0)
(5.16666e-06 4.31239e-06 0)
(5.55966e-06 4.80716e-06 0)
(5.95636e-06 5.3075e-06 0)
(6.35597e-06 5.81134e-06 0)
(6.75826e-06 6.31681e-06 0)
(7.16278e-06 6.82232e-06 0)
(7.56932e-06 7.32652e-06 0)
(7.97763e-06 7.8282e-06 0)
(8.38758e-06 8.32634e-06 0)
(8.79906e-06 8.82e-06 0)
(9.212e-06 9.30834e-06 0)
(9.62635e-06 9.79054e-06 0)
(1.0042e-05 1.02657e-05 0)
(1.04589e-05 1.07331e-05 0)
(1.08768e-05 1.11913e-05 0)
(1.12952e-05 1.16397e-05 0)
(3.39739e-06 2.29139e-06 0)
(3.74816e-06 2.72931e-06 0)
(4.10815e-06 3.1856e-06 0)
(4.47337e-06 3.65701e-06 0)
(4.84516e-06 4.13992e-06 0)
(5.22206e-06 4.63163e-06 0)
(5.6041e-06 5.12948e-06 0)
(5.99054e-06 5.63131e-06 0)
(6.38109e-06 6.13513e-06 0)
(6.7753e-06 6.6393e-06 0)
(7.17286e-06 7.14235e-06 0)
(7.57345e-06 7.64303e-06 0)
(7.97682e-06 8.14023e-06 0)
(8.38277e-06 8.63299e-06 0)
(8.7911e-06 9.12042e-06 0)
(9.20165e-06 9.60176e-06 0)
(9.61423e-06 1.00762e-05 0)
(1.00286e-05 1.05431e-05 0)
(1.04443e-05 1.10015e-05 0)
(1.08605e-05 1.14509e-05 0)
(3.14346e-06 2.1478e-06 0)
(3.47296e-06 2.57995e-06 0)
(3.81258e-06 3.03118e-06 0)
(4.15902e-06 3.4981e-06 0)
(4.51344e-06 3.97708e-06 0)
(4.87456e-06 4.46538e-06 0)
(5.24236e-06 4.96027e-06 0)
(5.61612e-06 5.45954e-06 0)
(5.99551e-06 5.96115e-06 0)
(6.37998e-06 6.46339e-06 0)
(6.76915e-06 6.96472e-06 0)
(7.1626e-06 7.46385e-06 0)
(7.55997e-06 7.95961e-06 0)
(7.9609e-06 8.451e-06 0)
(8.36509e-06 8.93716e-06 0)
(8.77224e-06 9.41734e-06 0)
(9.18203e-06 9.89087e-06 0)
(9.59405e-06 1.03572e-05 0)
(1.00078e-05 1.08159e-05 0)
(1.04223e-05 1.12667e-05 0)
(2.87443e-06 2.0128e-06 0)
(3.1823e-06 2.43954e-06 0)
(3.50144e-06 2.88577e-06 0)
(3.82928e-06 3.34812e-06 0)
(4.16669e-06 3.82294e-06 0)
(4.51259e-06 4.30747e-06 0)
(4.86683e-06 4.79898e-06 0)
(5.22871e-06 5.2952e-06 0)
(5.59777e-06 5.79407e-06 0)
(5.97341e-06 6.29384e-06 0)
(6.35511e-06 6.79294e-06 0)
(6.74233e-06 7.29003e-06 0)
(7.13456e-06 7.78391e-06 0)
(7.53131e-06 8.27357e-06 0)
(7.93213e-06 8.75813e-06 0)
(8.33654e-06 9.23688e-06 0)
(8.7441e-06 9.70927e-06 0)
(9.15426e-06 1.0175e-05 0)
(9.56643e-06 1.06339e-05 0)
(9.97949e-06 1.10863e-05 0)
(2.58532e-06 1.88848e-06 0)
(2.87116e-06 2.30968e-06 0)
(3.16981e-06 2.75058e-06 0)
(3.47936e-06 3.20789e-06 0)
(3.80034e-06 3.67797e-06 0)
(4.13181e-06 4.1581e-06 0)
(4.47345e-06 4.64553e-06 0)
(4.82451e-06 5.13801e-06 0)
(5.1844e-06 5.63347e-06 0)
(5.55242e-06 6.13011e-06 0)
(5.92788e-06 6.62637e-06 0)
(6.31011e-06 7.12087e-06 0)
(6.69843e-06 7.61241e-06 0)
(7.09217e-06 8.09994e-06 0)
(7.49069e-06 8.58261e-06 0)
(7.89335e-06 9.05971e-06 0)
(8.29951e-06 9.53079e-06 0)
(8.7085e-06 9.99569e-06 0)
(9.1196e-06 1.04546e-05 0)
(9.53173e-06 1.09085e-05 0)
(2.26884e-06 1.77188e-06 0)
(2.53237e-06 2.18745e-06 0)
(2.81076e-06 2.62276e-06 0)
(3.10266e-06 3.07468e-06 0)
(3.40818e-06 3.53962e-06 0)
(3.72641e-06 4.01487e-06 0)
(4.05684e-06 4.49774e-06 0)
(4.3986e-06 4.98598e-06 0)
(4.75094e-06 5.47752e-06 0)
(5.113e-06 5.97058e-06 0)
(5.48393e-06 6.46357e-06 0)
(5.86288e-06 6.9551e-06 0)
(6.24899e-06 7.44398e-06 0)
(6.64139e-06 7.92914e-06 0)
(7.03924e-06 8.40973e-06 0)
(7.44166e-06 8.88506e-06 0)
(7.84779e-06 9.35471e-06 0)
(8.25671e-06 9.81865e-06 0)
(8.66758e-06 1.02774e-05 0)
(9.07932e-06 1.07322e-05 0)
(1.92086e-06 1.66977e-06 0)
(2.16196e-06 2.07838e-06 0)
(2.42059e-06 2.50674e-06 0)
(2.69569e-06 2.95191e-06 0)
(2.98698e-06 3.41039e-06 0)
(3.29344e-06 3.87953e-06 0)
(3.61431e-06 4.35666e-06 0)
(3.94856e-06 4.83956e-06 0)
(4.29522e-06 5.32618e-06 0)
(4.65324e-06 5.81474e-06 0)
(5.02159e-06 6.30366e-06 0)
(5.39923e-06 6.79156e-06 0)
(5.7851e-06 7.27722e-06 0)
(6.17814e-06 7.75961e-06 0)
(6.57726e-06 8.23787e-06 0)
(6.98133e-06 8.71132e-06 0)
(7.38921e-06 9.17958e-06 0)
(7.79965e-06 9.6426e-06 0)
(8.21155e-06 1.0101e-05 0)
(8.62356e-06 1.05561e-05 0)
(2.77158e-07 3.07085e-08 0)
(8.36833e-07 1.86151e-07 0)
(1.43122e-06 4.74627e-07 0)
(2.06823e-06 8.77063e-07 0)
(2.76025e-06 1.38273e-06 0)
(3.51131e-06 1.97372e-06 0)
(4.3245e-06 2.63089e-06 0)
(5.19847e-06 3.33418e-06 0)
(6.13063e-06 4.0633e-06 0)
(7.11611e-06 4.80158e-06 0)
(2.61074e-07 2.76698e-08 0)
(7.88887e-07 1.67754e-07 0)
(1.34805e-06 4.29956e-07 0)
(1.94467e-06 7.98833e-07 0)
(2.59001e-06 1.26634e-06 0)
(3.28779e-06 1.81747e-06 0)
(4.04117e-06 2.43565e-06 0)
(4.84893e-06 3.1032e-06 0)
(5.70815e-06 3.80066e-06 0)
(6.6137e-06 4.51484e-06 0)
(2.46615e-07 2.40251e-08 0)
(7.45856e-07 1.49044e-07 0)
(1.27384e-06 3.86686e-07 0)
(1.83463e-06 7.24276e-07 0)
(2.43828e-06 1.1558e-06 0)
(3.08792e-06 1.66858e-06 0)
(3.78693e-06 2.2482e-06 0)
(4.53486e-06 2.87949e-06 0)
(5.33067e-06 3.54477e-06 0)
(6.16884e-06 4.23468e-06 0)
(2.33384e-07 1.97619e-08 0)
(7.06647e-07 1.30197e-07 0)
(1.20702e-06 3.45657e-07 0)
(1.73675e-06 6.55446e-07 0)
(2.30478e-06 1.05504e-06 0)
(2.91341e-06 1.53352e-06 0)
(3.56581e-06 2.07806e-06 0)
(4.26114e-06 2.67509e-06 0)
(4.99964e-06 3.3079e-06 0)
(5.77459e-06 3.96839e-06 0)
(2.21013e-07 1.48387e-08 0)
(6.7004e-07 1.10559e-07 0)
(1.14506e-06 3.0498e-07 0)
(1.64663e-06 5.8888e-07 0)
(2.18277e-06 9.58827e-07 0)
(2.75499e-06 1.40533e-06 0)
(3.36644e-06 1.91691e-06 0)
(4.01589e-06 2.48156e-06 0)
(4.70489e-06 3.084e-06 0)
(5.42458e-06 3.71601e-06 0)
(2.094e-07 9.34615e-09 0)
(6.35727e-07 9.02735e-08 0)
(1.08738e-06 2.64879e-07 0)
(1.56344e-06 5.25025e-07 0)
(2.07107e-06 8.68058e-07 0)
(2.61099e-06 1.2855e-06 0)
(3.18617e-06 1.76688e-06 0)
(3.79483e-06 2.30117e-06 0)
(4.43972e-06 2.87447e-06 0)
(5.11054e-06 3.478e-06 0)
(1.9831e-07 3.25934e-09 0)
(6.02981e-07 6.90541e-08 0)
(1.03262e-06 2.24511e-07 0)
(1.48495e-06 4.62305e-07 0)
(1.9665e-06 7.80352e-07 0)
(2.47722e-06 1.17096e-06 0)
(3.02003e-06 1.62455e-06 0)
(3.59256e-06 2.1308e-06 0)
(4.19839e-06 2.67718e-06 0)
(4.82622e-06 3.25393e-06 0)
(1.87648e-07 -3.33601e-09 0)
(5.71529e-07 4.69964e-08 0)
(9.80234e-07 1.83909e-07 0)
(1.4103e-06 4.00674e-07 0)
(1.86766e-06 6.95605e-07 0)
(2.35162e-06 1.06155e-06 0)
(2.86498e-06 1.4896e-06 0)
(3.40496e-06 1.96992e-06 0)
(3.97566e-06 2.4912e-06 0)
(4.56547e-06 3.04293e-06 0)
(1.77284e-07 -1.0444e-08 0)
(5.40955e-07 2.39915e-08 0)
(9.29473e-07 1.42699e-07 0)
(1.33828e-06 3.39413e-07 0)
(1.77283e-06 6.12719e-07 0)
(2.23187e-06 9.55844e-07 0)
(2.7181e-06 1.36044e-06 0)
(3.22846e-06 1.81698e-06 0)
(3.76727e-06 2.3152e-06 0)
(4.32308e-06 2.84398e-06 0)
(1.67148e-07 -1.80234e-08 0)
(5.11029e-07 7.80433e-11 0)
(8.79895e-07 1.00846e-07 0)
(1.26815e-06 2.78375e-07 0)
(1.68086e-06 5.31406e-07 0)
(2.11629e-06 8.53396e-07 0)
(2.57704e-06 1.23641e-06 0)
(3.05995e-06 1.67113e-06 0)
(3.56935e-06 2.14816e-06 0)
(4.09433e-06 2.65602e-06 0)
(1.57149e-07 -2.60658e-08 0)
(4.81503e-07 -2.47943e-08 0)
(8.31053e-07 5.81672e-08 0)
(1.1992e-06 2.17218e-07 0)
(1.59064e-06 4.51141e-07 0)
(2.0033e-06 7.5351e-07 0)
(2.43968e-06 1.11667e-06 0)
(2.89669e-06 1.53145e-06 0)
(3.3785e-06 1.98911e-06 0)
(3.87503e-06 2.47805e-06 0)
(1.47237e-07 -3.45599e-08 0)
(4.52237e-07 -5.06327e-08 0)
(7.82637e-07 1.46165e-08 0)
(1.13086e-06 1.55844e-07 0)
(1.50127e-06 3.71746e-07 0)
(1.89155e-06 6.55903e-07 0)
(2.30415e-06 1.00081e-06 0)
(2.73618e-06 1.39738e-06 0)
(3.1916e-06 1.8374e-06 0)
(3.6613e-06 2.30929e-06 0)
(1.37375e-07 -4.35246e-08 0)
(4.2317e-07 -7.75206e-08 0)
(7.34447e-07 -2.99499e-08 0)
(1.0627e-06 9.40723e-08 0)
(1.41194e-06 2.92989e-07 0)
(1.7798e-06 5.60269e-07 0)
(2.16868e-06 8.88424e-07 0)
(2.57606e-06 1.26844e-06 0)
(3.00565e-06 1.69244e-06 0)
(3.44944e-06 2.14905e-06 0)
(1.2756e-07 -5.30323e-08 0)
(3.94325e-07 -1.05543e-07 0)
(6.86396e-07 -7.5569e-08 0)
(9.94389e-07 3.19628e-08 0)
(1.32196e-06 2.1499e-07 0)
(1.66687e-06 4.66734e-07 0)
(2.03157e-06 7.79597e-07 0)
(2.41404e-06 1.1446e-06 0)
(2.81776e-06 1.55413e-06 0)
(3.23587e-06 1.99709e-06 0)
(1.17875e-07 -6.32225e-08 0)
(3.66041e-07 -1.34944e-07 0)
(6.38724e-07 -1.22462e-07 0)
(9.25832e-07 -3.0621e-08 0)
(1.23074e-06 1.37677e-07 0)
(1.5516e-06 3.75231e-07 0)
(1.89105e-06 6.74226e-07 0)
(2.2477e-06 1.02569e-06 0)
(2.62484e-06 1.42219e-06 0)
(3.0168e-06 1.853e-06 0)
(1.08502e-07 -7.45531e-08 0)
(3.38874e-07 -1.66058e-07 0)
(5.91846e-07 -1.70537e-07 0)
(8.57002e-07 -9.31178e-08 0)
(1.1377e-06 6.19168e-08 0)
(1.43279e-06 2.86779e-07 0)
(1.74529e-06 5.7334e-07 0)
(2.07454e-06 9.12648e-07 0)
(2.42372e-06 1.29745e-06 0)
(2.7884e-06 1.71743e-06 0)
(1.00117e-07 -8.75931e-08 0)
(3.14567e-07 -1.99584e-07 0)
(5.47189e-07 -2.20248e-07 0)
(7.88495e-07 -1.55825e-07 0)
(1.04242e-06 -1.24567e-08 0)
(1.30907e-06 2.01202e-07 0)
(1.59203e-06 4.76716e-07 0)
(1.89149e-06 8.05157e-07 0)
(2.21057e-06 1.17946e-06 0)
(2.54606e-06 1.58975e-06 0)
(9.41621e-08 -1.04695e-07 0)
(2.95147e-07 -2.36553e-07 0)
(5.06129e-07 -2.70571e-07 0)
(7.20598e-07 -2.16261e-07 0)
(9.44212e-07 -8.22752e-08 0)
(1.1788e-06 1.21934e-07 0)
(1.42883e-06 3.87726e-07 0)
(1.69537e-06 7.06388e-07 0)
(1.98151e-06 1.0711e-06 0)
(2.2852e-06 1.47252e-06 0)
(9.76471e-08 -1.27688e-07 0)
(2.88152e-07 -2.78311e-07 0)
(4.73453e-07 -3.22442e-07 0)
(6.54963e-07 -2.75804e-07 0)
(8.42325e-07 -1.49233e-07 0)
(1.03947e-06 4.69228e-08 0)
(1.25181e-06 3.04073e-07 0)
(1.48114e-06 6.13802e-07 0)
(1.73056e-06 9.69621e-07 0)
(1.99896e-06 1.3628e-06 0)
(1.25431e-07 -1.69043e-07 0)
(2.98287e-07 -3.25699e-07 0)
(4.51366e-07 -3.69243e-07 0)
(5.913e-07 -3.24276e-07 0)
(7.35572e-07 -2.0251e-07 0)
(8.89172e-07 -1.31184e-08 0)
(1.05859e-06 2.3591e-07 0)
(1.24592e-06 5.36908e-07 0)
(1.45436e-06 8.83807e-07 0)
(1.68338e-06 1.26853e-06 0)
)
;

boundaryField
{
    left
    {
        type            fixedDisplacement;
        value           uniform (0 0 0);
    }
    right
    {
        type            solidTraction;
        tractionSeries  
{
        file            "$FOAM_CASE/constant/timeVsTraction";
        outOfBounds     clamp;
}
        pressure        uniform 0;
        secondOrder     false;
        setEffectiveTraction false;
        relaxationFactor 1;
        value           nonuniform List<vector> 
30
(
(2.2935e-05 1.68462e-05 -8.40789e-21)
(2.24001e-05 1.66538e-05 -8.45755e-21)
(2.18604e-05 1.64627e-05 -8.55069e-21)
(2.13144e-05 1.62695e-05 -8.68264e-21)
(2.07622e-05 1.60717e-05 -8.85345e-21)
(2.02051e-05 1.58675e-05 -9.06328e-21)
(1.96449e-05 1.56556e-05 -9.31272e-21)
(1.90841e-05 1.54353e-05 -9.60222e-21)
(1.85251e-05 1.52067e-05 -9.93219e-21)
(1.79702e-05 1.49704e-05 -1.0303e-20)
(1.74454e-05 1.47378e-05 -1.0501e-20)
(1.69478e-05 1.45091e-05 -1.04766e-20)
(1.64572e-05 1.4277e-05 -1.04609e-20)
(1.59747e-05 1.40426e-05 -1.04536e-20)
(1.55007e-05 1.38076e-05 -1.0456e-20)
(1.50341e-05 1.35735e-05 -1.04675e-20)
(1.45757e-05 1.33412e-05 -1.04867e-20)
(1.41246e-05 1.31124e-05 -1.05132e-20)
(1.36798e-05 1.2888e-05 -1.05458e-20)
(1.32402e-05 1.2669e-05 -1.0583e-20)
(1.28043e-05 1.24561e-05 -1.06233e-20)
(1.23707e-05 1.22497e-05 -1.06649e-20)
(1.19379e-05 1.20499e-05 -1.0706e-20)
(1.15043e-05 1.18566e-05 -1.07448e-20)
(1.10686e-05 1.16693e-05 -1.07793e-20)
(1.06294e-05 1.14871e-05 -1.08081e-20)
(1.0186e-05 1.13091e-05 -1.08291e-20)