/*--------------------------------*- C++ -*----------------------------------*\
  =========                 |
  \\      /  F ield         | OpenFOAM: The Open Source CFD Toolbox
   \\    /   O peration     | Website:  https://openfoam.org
    \\  /    A nd           | Version:  9
     \\/     M anipulation  |
\*---------------------------------------------------------------------------*/
FoamFile
{
    format      ascii;
    class       volSymmTensorField;
    location    "15";
    object      epsilon;
}
// * * * * * * * * * * * * * * * * * * * * * * * * * * * * * * * * * * * * * //

dimensions      [0 0 0 0 0 0 0];

internalField   nonuniform List<symmTensor> 
1000
(
(6.29209e-06 -8.18418e-06 7.15431e-19 1.28369e-06 7.87644e-19 2.14566e-33)
(8.68204e-06 -6.31337e-06 -1.30667e-20 -1.5577e-06 7.33464e-21 0)
(9.86067e-06 -4.84542e-06 1.52514e-20 -2.90671e-06 -2.9461e-21 0)
(1.05323e-05 -3.73697e-06 3.93419e-21 -3.86865e-06 -2.8037e-21 0)
(1.0858e-05 -2.83958e-06 -1.65908e-20 -4.39924e-06 1.23134e-21 0)
(1.09714e-05 -2.13781e-06 -1.8092e-21 -4.74047e-06 1.96877e-21 0)
(1.09637e-05 -1.56548e-06 -1.503e-20 -4.92504e-06 -8.06981e-21 0)
(1.08672e-05 -1.11008e-06 1.03246e-20 -5.0192e-06 4.82242e-21 0)
(1.07401e-05 -7.31092e-07 -5.29814e-21 -5.05353e-06 -6.06083e-21 0)
(1.0553e-05 -4.15436e-07 0 -5.05819e-06 0 0)
(8.48049e-06 -9.09872e-06 6.6833e-19 3.95621e-07 8.64002e-19 1.17046e-34)
(1.03676e-05 -6.53057e-06 0 -2.17813e-06 0 0)
(1.11738e-05 -4.6674e-06 1.21722e-20 -3.27935e-06 5.81318e-21 0)
(1.15586e-05 -3.33307e-06 -2.09059e-20 -4.0843e-06 -1.11643e-20 0)
(1.16612e-05 -2.30439e-06 -8.88731e-21 -4.48795e-06 -5.36699e-21 0)
(1.1596e-05 -1.53662e-06 6.16716e-21 -4.73937e-06 6.31913e-21 0)
(1.14435e-05 -9.34419e-07 6.92923e-21 -4.8528e-06 4.64971e-21 0)
(1.12333e-05 -4.7672e-07 1.6309e-20 -4.90329e-06 9.51982e-21 0)
(1.09957e-05 -1.05305e-07 0 -4.88674e-06 0 0)
(1.07433e-05 1.91865e-07 0 -4.89415e-06 0 0)
(1.09091e-05 -9.67261e-06 6.03127e-19 -7.68735e-07 9.02641e-19 0)
(1.21207e-05 -6.52856e-06 0 -2.86863e-06 0 0)
(1.24407e-05 -4.34739e-06 1.16064e-20 -3.61895e-06 6.02346e-21 0)
(1.24692e-05 -2.83598e-06 -3.52233e-21 -4.18954e-06 1.23874e-21 0)
(1.2306e-05 -1.71473e-06 -1.72654e-22 -4.42548e-06 7.63953e-23 0)
(1.20365e-05 -9.0907e-07 -5.74848e-21 -4.55939e-06 -5.98183e-21 0)
(1.1725e-05 -3.01024e-07 7.89844e-21 -4.58626e-06 3.64904e-21 0)
(1.13911e-05 1.42862e-07 -5.84913e-21 -4.58095e-06 -4.32697e-21 0)
(1.10516e-05 4.88237e-07 -4.83749e-22 -4.51675e-06 8.17534e-22 0)
(1.07233e-05 7.68724e-07 -1.24004e-21 -4.50973e-06 -5.31495e-22 0)
(1.35405e-05 -9.82854e-06 5.15227e-19 -2.18355e-06 9.32043e-19 -5.96032e-35)
(1.38785e-05 -6.29827e-06 6.7071e-21 -3.57607e-06 -7.11531e-22 0)
(1.36378e-05 -3.89732e-06 -5.30405e-21 -3.90726e-06 -3.01424e-21 0)
(1.32494e-05 -2.27233e-06 -3.40759e-21 -4.1798e-06 6.62263e-22 0)
(1.27885e-05 -1.10698e-06 6.0015e-21 -4.21847e-06 5.84403e-21 0)
(1.22968e-05 -2.97646e-07 -7.2566e-21 -4.21751e-06 -4.8083e-21 0)
(1.18194e-05 2.89839e-07 -6.2672e-21 -4.15314e-06 -4.4699e-21 0)
(1.13632e-05 7.0298e-07 -1.39665e-20 -4.09141e-06 -1.02384e-20 0)
(1.09284e-05 1.00773e-06 -1.99165e-21 -3.9886e-06 -2.45235e-21 0)
(1.05345e-05 1.25541e-06 3.41487e-21 -3.9632e-06 3.03225e-21 0)
(1.62176e-05 -9.53463e-06 4.63391e-19 -3.84881e-06 1.01173e-18 -1.18266e-33)
(1.55994e-05 -5.78658e-06 3.52401e-25 -4.29655e-06 1.37071e-26 0)
(1.47371e-05 -3.31927e-06 -1.72081e-20 -4.15197e-06 -8.48443e-21 0)
(1.38911e-05 -1.65305e-06 1.58549e-21 -4.06412e-06 -6.56429e-23 0)
(1.31047e-05 -5.1051e-07 -2.21984e-21 -3.87828e-06 2.34076e-22 0)
(1.23812e-05 2.59216e-07 5.20522e-21 -3.72876e-06 4.84658e-21 0)
(1.17381e-05 7.92373e-07 -5.93102e-22 -3.5725e-06 1.75185e-22 0)
(1.11656e-05 1.15219e-06 5.51521e-21 -3.45745e-06 3.69192e-21 0)
(1.06484e-05 1.39956e-06 -1.1734e-21 -3.32771e-06 -2.56925e-21 0)
(1.01983e-05 1.6008e-06 -2.17771e-21 -3.28823e-06 -1.7651e-21 0)
(1.89193e-05 -8.73615e-06 3.25436e-19 -5.44469e-06 9.1242e-19 -1.19216e-33)
(1.72787e-05 -5.00878e-06 3.2463e-25 -5.01733e-06 6.35231e-26 0)
(1.57162e-05 -2.58806e-06 -1.75338e-25 -4.28672e-06 -2.62217e-26 0)
(1.43868e-05 -9.90105e-07 1.40384e-21 -3.83116e-06 1.60937e-22 0)
(1.32574e-05 5.20733e-08 -7.44674e-21 -3.4036e-06 -4.55285e-21 0)
(1.23047e-05 7.26115e-07 8.58775e-23 -3.11242e-06 -1.36244e-24 0)
(1.15054e-05 1.1684e-06 5.53793e-21 -2.87414e-06 3.76619e-21 0)
(1.08301e-05 1.45137e-06 1.17669e-20 -2.71787e-06 8.6468e-21 0)
(1.02463e-05 1.6278e-06 2.13136e-21 -2.57559e-06 1.57017e-21 0)
(9.75219e-06 1.77171e-06 -3.71888e-21 -2.52928e-06 -2.94483e-21 0)
(2.14414e-05 -7.25072e-06 2.12592e-19 -6.91446e-06 6.92089e-19 -2.18806e-33)
(1.88414e-05 -3.89086e-06 5.14254e-21 -5.66313e-06 1.95231e-21 0)
(1.64999e-05 -1.66996e-06 5.27121e-21 -4.2716e-06 2.4175e-21 0)
(1.46735e-05 -2.98437e-07 -1.15554e-21 -3.44355e-06 -3.27918e-22 0)
(1.32183e-05 5.48487e-07 5.35976e-21 -2.79405e-06 3.63815e-21 0)
(1.20642e-05 1.06175e-06 -4.9388e-21 -2.38978e-06 -3.44344e-21 0)
(1.11393e-05 1.37668e-06 1.42092e-21 -2.09805e-06 6.51086e-23 0)
(1.03875e-05 1.56235e-06 -4.41532e-21 -1.9232e-06 -2.90944e-21 0)
(9.76048e-06 1.66042e-06 -3.08015e-22 -1.78795e-06 4.78315e-23 0)
(9.23808e-06 1.7421e-06 -2.23738e-21 -1.74529e-06 -1.46228e-21 0)
(2.38908e-05 -5.36787e-06 1.14319e-19 -8.18933e-06 4.44714e-19 -7.06232e-35)
(2.01269e-05 -2.38352e-06 -1.33521e-20 -5.97975e-06 -4.81198e-21 0)
(1.70165e-05 -5.62251e-07 1.04717e-22 -3.97203e-06 5.58994e-23 0)
(1.4725e-05 3.77658e-07 1.69209e-21 -2.83699e-06 8.1038e-22 0)
(1.30044e-05 9.19742e-07 1.22816e-20 -2.04795e-06 6.16948e-21 0)
(1.17064e-05 1.21448e-06 -7.33631e-22 -1.59741e-06 -2.08973e-22 0)
(1.07038e-05 1.37949e-06 1.82209e-26 -1.30365e-06 3.10082e-27 0)
(9.91199e-06 1.46298e-06 -4.3195e-21 -1.14435e-06 -2.28328e-21 0)
(9.26853e-06 1.48966e-06 1.05412e-22 -1.03869e-06 -5.15253e-25 0)
(8.73499e-06 1.51585e-06 3.23537e-22 -1.01104e-06 1.55384e-22 0)
(2.61122e-05 -2.34796e-06 5.90378e-21 -9.49947e-06 -5.91301e-20 -1.40977e-34)
(2.07277e-05 -4.1099e-07 -1.47641e-20 -5.61919e-06 -6.02481e-21 0)
(1.69473e-05 5.36051e-07 1.5384e-21 -3.15732e-06 1.29802e-21 0)
(1.43473e-05 8.383e-07 1.46944e-21 -1.91557e-06 1.0813e-21 0)
(1.25397e-05 1.00435e-06 -6.08472e-22 -1.17804e-06 -3.49956e-22 0)
(1.12224e-05 1.06473e-06 4.7805e-21 -8.019e-07 1.75998e-21 0)
(1.02286e-05 1.09447e-06 2.64188e-22 -5.82078e-07 6.79085e-23 0)
(9.44923e-06 1.09864e-06 7.71671e-21 -4.79059e-07 2.96575e-21 0)
(8.82033e-06 1.08195e-06 1.70365e-21 -4.22052e-07 6.62345e-22 0)
(8.29188e-06 1.07445e-06 9.53659e-22 -4.16351e-07 3.97508e-22 0)
(2.78204e-05 2.26919e-06 -7.11151e-21 -9.17235e-06 -4.00876e-19 -1.74663e-33)
(2.01965e-05 2.40931e-06 -1.17697e-21 -3.69507e-06 -1.88408e-21 0)
(1.62666e-05 1.54921e-06 5.09825e-21 -1.63414e-06 2.14019e-21 0)
(1.37669e-05 1.02339e-06 2.67474e-22 -7.53657e-07 3.5157e-22 0)
(1.20997e-05 8.05173e-07 9.11772e-27 -3.60592e-07 8.14565e-27 0)
(1.08751e-05 6.99709e-07 4.85771e-21 -1.86829e-07 8.69773e-22 0)
(9.94525e-06 6.61591e-07 7.66441e-23 -1.04669e-07 1.7716e-23 0)
(9.20068e-06 6.43579e-07 3.72189e-21 -7.53432e-08 7.06167e-22 0)
(8.59197e-06 6.27301e-07 -4.17232e-23 -6.47753e-08 4.07614e-25 0)
(8.06607e-06 6.17234e-07 -6.27024e-23 -7.07171e-08 -1.16826e-23 0)
(-2.51312e-08 1.78068e-08 2.6953e-20 -6.5299e-09 2.85201e-20 1.64444e-34)
(3.24747e-08 -7.0025e-08 -2.78528e-22 -9.8615e-09 2.37891e-20 1.42476e-36)
(3.19164e-07 -2.17905e-07 -3.5629e-21 -1.48801e-07 1.26636e-20 1.77924e-35)
(7.71569e-07 -3.36774e-07 -1.97429e-24 -3.55843e-07 1.63691e-20 0)
(1.29256e-06 -4.10513e-07 -4.74158e-22 -5.85751e-07 1.04967e-20 -1.41634e-36)
(1.83714e-06 -4.52831e-07 -4.88692e-21 -8.22039e-07 1.54314e-20 2.93911e-35)
(2.36902e-06 -4.69841e-07 1.0948e-21 -1.05013e-06 2.10309e-20 1.39271e-36)
(2.87617e-06 -4.71639e-07 -3.24667e-21 -1.26566e-06 1.7447e-20 2.62433e-35)
(3.34134e-06 -4.59564e-07 2.62127e-21 -1.46394e-06 1.7399e-20 -1.05853e-35)
(3.77219e-06 -4.49242e-07 5.02301e-21 -1.64285e-06 8.31113e-21 -1.53527e-35)
(5.65487e-08 -7.48803e-08 2.77578e-20 -2.68718e-08 7.57957e-21 4.62603e-35)
(3.40332e-07 -4.0019e-07 3.94215e-21 -4.23051e-09 4.32531e-21 0)
(8.59329e-07 -7.60872e-07 -3.68911e-21 -2.20619e-07 -3.70681e-21 0)
(1.43662e-06 -1.03715e-06 3.65483e-23 -5.12642e-07 -3.06941e-21 0)
(2.01525e-06 -1.20757e-06 0 -8.03452e-07 0 0)
(2.56381e-06 -1.30343e-06 -5.59938e-21 -1.07721e-06 -8.30149e-22 0)
(3.06923e-06 -1.33846e-06 9.38197e-22 -1.32344e-06 4.81993e-21 0)
(3.53362e-06 -1.33649e-06 7.00793e-23 -1.54363e-06 2.59309e-22 0)
(3.9428e-06 -1.29966e-06 -3.00149e-21 -1.73723e-06 -8.76491e-21 0)
(4.32293e-06 -1.27012e-06 2.21227e-21 -1.90192e-06 3.42344e-22 0)
(8.77459e-08 -3.628e-07 3.27959e-20 1.03074e-07 6.40867e-21 -2.0393e-36)
(6.32106e-07 -9.97655e-07 4.03002e-21 3.33735e-08 4.27272e-21 0)
(1.36491e-06 -1.44439e-06 4.21559e-21 -3.0311e-07 8.83347e-22 0)
(2.0843e-06 -1.74449e-06 2.17651e-22 -7.20805e-07 -2.96022e-21 0)
(2.74598e-06 -1.91056e-06 0 -1.1057e-06 0 0)
(3.32811e-06 -1.98901e-06 -6.26323e-21 -1.44341e-06 -1.63525e-21 0)
(3.83378e-06 -1.99905e-06 -8.54334e-21 -1.72712e-06 -2.39263e-21 0)
(4.27845e-06 -1.96761e-06 5.64926e-21 -1.96602e-06 3.45673e-21 0)
(4.64808e-06 -1.89827e-06 3.41181e-23 -2.16106e-06 1.1042e-22 0)
(4.99298e-06 -1.83981e-06 -5.08008e-21 -2.31968e-06 -3.21439e-21 0)
(1.34086e-07 -8.13872e-07 6.07126e-20 4.1352e-07 1.29248e-20 -4.55712e-35)
(1.03148e-06 -1.71369e-06 9.93106e-22 7.23523e-08 -3.58827e-21 0)
(1.96231e-06 -2.18357e-06 4.63056e-21 -4.14387e-07 9.06198e-22 0)
(2.81051e-06 -2.44818e-06 0 -9.55322e-07 0 0)
(3.54527e-06 -2.55832e-06 -7.89636e-21 -1.42659e-06 2.94315e-21 0)
(4.16015e-06 -2.5794e-06 8.75996e-23 -1.82561e-06 7.28502e-21 0)
(4.66873e-06 -2.53615e-06 -3.8767e-22 -2.14788e-06 -3.9137e-21 0)
(5.09833e-06 -2.45529e-06 -1.12158e-21 -2.40922e-06 -6.04113e-21 0)
(5.43326e-06 -2.34251e-06 2.57843e-21 -2.61111e-06 8.37109e-22 0)
(5.74877e-06 -2.24708e-06 4.81274e-21 -2.76984e-06 1.80617e-21 0)
(2.55043e-07 -1.45133e-06 6.87875e-20 8.45628e-07 3.44911e-20 1.60537e-34)
(1.5932e-06 -2.49289e-06 -8.12587e-21 6.28892e-08 5.4507e-21 0)
(2.72216e-06 -2.91595e-06 -4.92826e-21 -6.27118e-07 -1.45191e-21 0)
(3.68023e-06 -3.09285e-06 -1.33327e-21 -1.30231e-06 5.33965e-21 0)
(4.46396e-06 -3.10549e-06 -5.24604e-23 -1.85217e-06 3.29398e-22 0)
(5.09086e-06 -3.03777e-06 7.60511e-21 -2.30033e-06 -2.04315e-21 0)
(5.58689e-06 -2.91847e-06 3.31139e-21 -2.64898e-06 8.69943e-22 0)
(5.99017e-06 -2.772e-06 0 -2.92222e-06 0 0)
(6.28373e-06 -2.60718e-06 -3.52934e-21 -3.12296e-06 -4.65784e-21 0)
(6.56472e-06 -2.46691e-06 1.41084e-21 -3.27571e-06 3.4247e-22 0)
(5.19818e-07 -2.28957e-06 1.35468e-19 1.33222e-06 5.69061e-20 -3.07953e-34)
(2.33538e-06 -3.28231e-06 3.31528e-21 3.16899e-09 -6.46827e-21 0)
(3.65198e-06 -3.57454e-06 -4.06714e-21 -9.18166e-07 -4.39589e-21 0)
(4.6927e-06 -3.61833e-06 8.96375e-22 -1.72513e-06 -2.48632e-21 0)
(5.49463e-06 -3.50774e-06 8.60761e-21 -2.33737e-06 2.88438e-21 0)
(6.10687e-06 -3.33572e-06 -8.3098e-21 -2.817e-06 9.27701e-22 0)
(6.56968e-06 -3.13093e-06 -9.81195e-24 -3.17675e-06 2.20837e-22 0)
(6.93e-06 -2.91318e-06 -6.46684e-21 -3.44913e-06 -4.46272e-21 0)
(7.1717e-06 -2.69477e-06 1.34143e-23 -3.64052e-06 8.66788e-23 0)
(7.40817e-06 -2.50736e-06 -7.06606e-21 -3.77991e-06 -3.23342e-21 0)
(1.00567e-06 -3.31985e-06 2.54925e-19 1.76962e-06 1.35965e-19 -3.80736e-34)
(3.26448e-06 -4.05073e-06 1.83492e-22 -1.26933e-07 -2.78231e-22 0)
(4.73406e-06 -4.11886e-06 -1.34571e-25 -1.2803e-06 2.29831e-25 0)
(5.82058e-06 -3.98602e-06 -8.78598e-21 -2.20643e-06 -6.17097e-21 0)
(6.60661e-06 -3.73211e-06 -1.49846e-21 -2.86255e-06 3.99924e-21 0)
(7.17554e-06 -3.44738e-06 -8.05627e-21 -3.35551e-06 -3.28325e-21 0)
(7.58247e-06 -3.15483e-06 1.44839e-20 -3.70988e-06 6.46555e-21 0)
(7.88107e-06 -2.86693e-06 -2.23346e-24 -3.96784e-06 1.73453e-22 0)
(8.05958e-06 -2.59853e-06 2.85554e-21 -4.14006e-06 -1.34797e-23 0)
(8.23895e-06 -2.36548e-06 -3.86478e-21 -4.25829e-06 -1.84201e-21 0)
(1.784e-06 -4.50429e-06 4.04306e-19 2.06133e-06 2.52392e-19 -8.40504e-34)
(4.37705e-06 -4.76785e-06 4.72538e-21 -3.36157e-07 -5.65287e-21 0)
(5.93379e-06 -4.52431e-06 -1.82594e-21 -1.681e-06 2.43434e-21 0)
(7.01582e-06 -4.17569e-06 1.11768e-21 -2.69646e-06 -1.74099e-21 0)
(7.74924e-06 -3.7646e-06 9.987e-26 -3.37234e-06 -1.95573e-25 0)
(8.24606e-06 -3.36585e-06 9.35611e-21 -3.85933e-06 7.88699e-22 0)
(8.57632e-06 -2.98995e-06 7.11682e-22 -4.19383e-06 -3.05147e-21 0)
(8.79609e-06 -2.63967e-06 -2.43309e-22 -4.4249e-06 2.5112e-21 0)
(8.90347e-06 -2.32987e-06 2.78811e-23 -4.57345e-06 1.25409e-21 0)
(9.01287e-06 -2.05709e-06 2.94839e-21 -4.66214e-06 2.76368e-21 0)
(2.91127e-06 -5.7723e-06 5.27427e-19 2.11559e-06 4.16547e-19 1.20674e-33)
(5.66329e-06 -5.40229e-06 -1.53284e-21 -6.40515e-07 1.03672e-20 0)
(7.21338e-06 -4.7799e-06 -1.7654e-25 -2.09913e-06 1.85215e-25 0)
(8.22955e-06 -4.18639e-06 1.20913e-20 -3.15881e-06 2.83992e-21 0)
(8.87022e-06 -3.61042e-06 9.23257e-21 -3.82367e-06 4.61638e-21 0)
(9.26623e-06 -3.10175e-06 8.33273e-21 -4.28438e-06 4.1662e-21 0)
(9.50009e-06 -2.65056e-06 -9.23276e-22 -4.58319e-06 2.62288e-21 0)
(9.62533e-06 -2.25067e-06 -1.00378e-20 -4.77894e-06 -5.615e-21 0)
(9.65585e-06 -1.90974e-06 6.17503e-21 -4.89646e-06 1.45878e-21 0)
(9.68694e-06 -1.60461e-06 2.76507e-21 -4.96346e-06 1.64481e-21 0)
(4.41538e-06 -7.03521e-06 6.33077e-19 1.87107e-06 5.86563e-19 1.82552e-34)
(7.10494e-06 -5.9268e-06 -3.06391e-21 -1.04379e-06 2.26705e-21 0)
(8.53238e-06 -4.88531e-06 -5.92927e-21 -2.51086e-06 -2.77034e-21 0)
(9.41247e-06 -4.03237e-06 2.57267e-20 -3.55574e-06 6.02241e-21 0)
(9.91671e-06 -3.29171e-06 1.5852e-22 -4.17351e-06 -1.79548e-22 0)
(1.01829e-05 -2.68044e-06 -8.19362e-21 -4.58481e-06 -4.65746e-21 0)
(1.03017e-05 -2.16494e-06 -8.80207e-21 -4.83435e-06 -1.37995e-21 0)
(1.03184e-05 -1.72958e-06 -3.30981e-21 -4.98039e-06 -1.98133e-21 0)
(1.02754e-05 -1.37611e-06 3.86491e-22 -5.07472e-06 -2.74703e-21 0)
(1.02023e-05 -1.06921e-06 1.64018e-21 -5.08303e-06 3.47217e-21 0)
(4.16028e-06 -4.16451e-07 3.89368e-21 -1.80937e-06 4.8647e-21 -1.09274e-37)
(4.49859e-06 -3.71443e-07 2.83213e-21 -1.94814e-06 -4.99178e-21 8.33475e-36)
(4.8095e-06 -3.32218e-07 -2.95395e-21 -2.07697e-06 -1.7183e-20 9.46846e-36)
(5.08918e-06 -2.96578e-07 -2.02183e-21 -2.19357e-06 -1.84917e-20 5.97854e-37)
(5.34157e-06 -2.63519e-07 -5.1773e-21 -2.2985e-06 -2.2449e-20 -4.53052e-35)
(5.5678e-06 -2.33891e-07 -8.25551e-22 -2.3931e-06 -2.50022e-20 0)
(5.77065e-06 -2.06713e-07 -8.92145e-22 -2.47778e-06 -2.86308e-20 0)
(5.95149e-06 -1.82188e-07 7.24551e-22 -2.55354e-06 -2.98237e-20 -8.97629e-37)
(6.11244e-06 -1.59702e-07 5.256e-22 -2.62099e-06 -3.42012e-20 2.56077e-35)
(6.2547e-06 -1.39105e-07 2.53397e-21 -2.68076e-06 -3.31642e-20 -1.78465e-36)
(6.37969e-06 -1.19957e-07 3.54439e-21 -2.73335e-06 -3.78433e-20 8.83846e-35)
(6.48827e-06 -1.01987e-07 -2.39445e-21 -2.77917e-06 -4.20558e-20 -3.10835e-35)
(6.5812e-06 -8.48507e-08 3.69452e-21 -2.81852e-06 -4.1423e-20 9.75349e-35)
(6.65897e-06 -6.83003e-08 -6.34204e-21 -2.8516e-06 -5.09844e-20 2.02295e-36)
(6.72178e-06 -5.21285e-08 -3.73989e-22 -2.87852e-06 -4.40949e-20 -3.53834e-35)
(6.77e-06 -3.63175e-08 -6.24796e-22 -2.89938e-06 -4.65497e-20 8.53907e-45)
(6.80345e-06 -2.109e-08 -2.42862e-21 -2.91412e-06 -4.93705e-20 3.90422e-37)
(6.82343e-06 -7.3041e-09 1.46102e-21 -2.92298e-06 -4.52874e-20 -2.82381e-37)
(6.82982e-06 3.24502e-09 6.08292e-22 -2.92565e-06 -5.04042e-20 1.11608e-34)
(6.82759e-06 5.73919e-09 -1.07251e-19 -2.92164e-06 -5.57809e-20 2.5192e-34)
(4.63552e-06 -1.18277e-06 5.39694e-21 -2.05037e-06 6.64968e-21 0)
(4.88615e-06 -1.06477e-06 3.50783e-21 -2.15621e-06 9.58639e-22 0)
(5.12587e-06 -9.60682e-07 2.68499e-22 -2.25366e-06 -1.52067e-21 0)
(5.3409e-06 -8.63507e-07 7.9505e-21 -2.34308e-06 7.17731e-21 0)
(5.53895e-06 -7.72393e-07 -1.53136e-21 -2.42288e-06 -3.60104e-22 0)
(5.71776e-06 -6.89992e-07 -6.47875e-21 -2.49613e-06 -6.58007e-21 0)
(5.88063e-06 -6.13682e-07 3.31173e-21 -2.56187e-06 1.22207e-21 0)
(6.02728e-06 -5.44335e-07 0 -2.62163e-06 0 0)
(6.15966e-06 -4.80328e-07 1.57806e-21 -2.67538e-06 5.57095e-22 0)
(6.2781e-06 -4.21414e-07 3.24397e-21 -2.72382e-06 1.24665e-21 0)
(6.3838e-06 -3.66482e-07 9.72377e-21 -2.76717e-06 5.01734e-21 0)
(6.47723e-06 -3.14907e-07 4.37695e-23 -2.80578e-06 5.02083e-23 0)
(6.5591e-06 -2.65849e-07 1.26857e-21 -2.8398e-06 -9.8524e-22 0)
(6.62982e-06 -2.18732e-07 1.8511e-21 -2.86933e-06 2.12477e-21 0)
(6.68968e-06 -1.731e-07 1.89903e-21 -2.89429e-06 2.18543e-21 0)
(6.73904e-06 -1.28943e-07 -1.8812e-21 -2.91442e-06 -2.17591e-21 0)
(6.77758e-06 -8.6785e-08 -1.89183e-21 -2.92903e-06 -2.20052e-21 0)
(6.80578e-06 -4.84594e-08 -3.79921e-21 -2.93691e-06 -4.44497e-21 0)
(6.82139e-06 -1.67042e-08 -2.87548e-23 -2.93526e-06 -3.15668e-23 0)
(6.82519e-06 2.20462e-10 -9.92003e-20 -2.91959e-06 1.89849e-21 -2.17774e-34)
(5.23364e-06 -1.70921e-06 1.47612e-21 -2.44194e-06 2.02504e-21 0)
(5.39112e-06 -1.54871e-06 2.01848e-21 -2.50467e-06 7.19689e-22 0)
(5.55429e-06 -1.40458e-06 -4.67821e-21 -2.5572e-06 -5.9093e-21 0)
(5.69722e-06 -1.27072e-06 -4.24262e-22 -2.60697e-06 1.07972e-21 0)
(5.83425e-06 -1.14314e-06 8.5432e-21 -2.6494e-06 7.12326e-21 0)
(5.95842e-06 -1.02725e-06 -6.78295e-21 -2.68999e-06 -6.48951e-21 0)
(6.07481e-06 -9.18773e-07 -1.80424e-21 -2.72655e-06 -2.09614e-21 0)
(6.18097e-06 -8.19606e-07 3.4483e-21 -2.76106e-06 3.93437e-21 0)
(6.27911e-06 -7.275e-07 2.52377e-23 -2.79302e-06 -2.55664e-21 0)
(6.36852e-06 -6.42425e-07 -3.64851e-21 -2.82306e-06 -4.11569e-21 0)
(6.45023e-06 -5.62999e-07 3.49605e-21 -2.85115e-06 3.92958e-21 0)
(6.52422e-06 -4.88548e-07 5.40208e-21 -2.87745e-06 6.0755e-21 0)
(6.59099e-06 -4.1806e-07 4.13366e-23 -2.90192e-06 4.57024e-23 0)
(6.6507e-06 -3.50839e-07 -1.8496e-21 -2.9244e-06 -2.09227e-21 0)
(6.7034e-06 -2.86264e-07 1.83093e-21 -2.94445e-06 2.08371e-21 0)
(6.74915e-06 -2.2411e-07 2.69925e-28 -2.96124e-06 3.01558e-28 0)
(6.78693e-06 -1.64526e-07 -1.8863e-21 -2.97311e-06 -2.17381e-21 0)
(6.81629e-06 -1.08452e-07 2.50846e-22 -2.97739e-06 1.57205e-21 0)
(6.83238e-06 -5.75922e-08 -6.2253e-21 -2.96851e-06 -7.90616e-22 0)
(6.83491e-06 -1.41836e-08 -9.81446e-20 -2.94025e-06 -1.39421e-21 -1.62035e-37)
(5.91872e-06 -2.08011e-06 0 -2.86832e-06 0 0)
(5.97974e-06 -1.89648e-06 2.1576e-21 -2.89143e-06 7.85945e-22 0)
(6.06541e-06 -1.72699e-06 1.68539e-21 -2.90148e-06 1.93191e-21 0)
(6.13313e-06 -1.57233e-06 1.84937e-21 -2.91421e-06 2.14787e-21 0)
(6.2061e-06 -1.42175e-06 0 -2.92014e-06 0 0)
(6.27152e-06 -1.28496e-06 2.54634e-22 -2.92828e-06 -1.08485e-21 0)
(6.33741e-06 -1.15534e-06 -5.54365e-21 -2.93509e-06 -3.40623e-21 0)
(6.39875e-06 -1.03627e-06 -3.53168e-21 -2.94327e-06 -3.84955e-21 0)
(6.45845e-06 -9.24927e-07 -1.99001e-21 -2.95201e-06 -9.17868e-22 0)
(6.51462e-06 -8.21688e-07 -2.08681e-23 -2.9619e-06 2.46395e-21 0)
(6.56826e-06 -7.25054e-07 -1.75563e-21 -2.97276e-06 5.43331e-22 0)
(6.61873e-06 -6.34419e-07 3.66212e-21 -2.98459e-06 1.56856e-21 0)
(6.66627e-06 -5.48715e-07 3.48159e-21 -2.99713e-06 1.68353e-22 0)
(6.71065e-06 -4.67159e-07 7.96947e-23 -3.00999e-06 1.31762e-21 0)
(6.75154e-06 -3.88968e-07 1.44916e-22 -3.02241e-06 1.39682e-21 0)
(6.78858e-06 -3.13558e-07 -1.86528e-21 -3.03316e-06 -2.10571e-21 0)
(6.82009e-06 -2.40542e-07 -3.98377e-28 -3.04002e-06 -4.49964e-28 0)
(6.84522e-06 -1.69447e-07 3.9726e-21 -3.03984e-06 5.85566e-21 0)
(6.85778e-06 -1.00879e-07 -1.97422e-22 -3.02638e-06 -1.54142e-21 0)
(6.85809e-06 -2.98364e-08 -1.06888e-19 -2.99327e-06 -9.73054e-21 3.12466e-34)
(6.66103e-06 -2.27156e-06 1.58519e-22 -3.34387e-06 2.69916e-21 0)
(6.62209e-06 -2.08735e-06 -2.34377e-21 -3.32652e-06 -1.02478e-21 0)
(6.62993e-06 -1.90751e-06 -5.88818e-21 -3.29061e-06 -4.80835e-21 0)
(6.62051e-06 -1.74911e-06 3.87805e-21 -3.26483e-06 2.64365e-21 0)
(6.6284e-06 -1.58993e-06 1.00928e-20 -3.23207e-06 6.63779e-21 0)
(6.6329e-06 -1.44597e-06 -1.85149e-21 -3.20531e-06 -1.94125e-21 0)
(6.64616e-06 -1.30747e-06 0 -3.17982e-06 0 0)
(6.66003e-06 -1.17956e-06 1.80292e-21 -3.1588e-06 1.88203e-21 0)
(6.67849e-06 -1.05896e-06 -5.81592e-21 -3.14146e-06 -2.48325e-21 0)
(6.69844e-06 -9.46531e-07 -3.76831e-21 -3.12832e-06 -2.78113e-21 0)
(6.72087e-06 -8.40856e-07 2.2006e-22 -3.11918e-06 -2.14963e-21 0)
(6.74457e-06 -7.41474e-07 -1.89174e-21 -3.11389e-06 -3.21808e-21 0)
(6.76951e-06 -6.47369e-07 -2.07213e-22 -3.11207e-06 3.38248e-21 0)
(6.79507e-06 -5.57687e-07 3.70197e-21 -3.11314e-06 5.24336e-21 0)
(6.82059e-06 -4.71479e-07 1.80955e-21 -3.11614e-06 7.70222e-22 0)
(6.84537e-06 -3.87684e-07 -6.32062e-23 -3.11965e-06 -1.30864e-21 0)
(6.86737e-06 -3.05347e-07 3.50769e-21 -3.12127e-06 1.43986e-21 0)
(6.88555e-06 -2.22429e-07 1.72523e-21 -3.11785e-06 6.90877e-22 0)
(6.8936e-06 -1.38871e-07 7.07026e-21 -3.1035e-06 5.59061e-21 0)
(6.89226e-06 -4.36277e-08 -9.37325e-20 -3.07242e-06 3.78345e-21 -3.07073e-34)
(7.4284e-06 -2.29361e-06 1.37809e-21 -3.81513e-06 1.90138e-21 0)
(7.28866e-06 -2.13255e-06 3.30963e-23 -3.7634e-06 7.30182e-23 0)
(7.22115e-06 -1.95678e-06 -4.25812e-21 -3.68429e-06 -2.95649e-21 0)
(7.13477e-06 -1.81022e-06 -1.02242e-20 -3.62311e-06 -7.66686e-21 0)
(7.07886e-06 -1.65541e-06 3.99524e-21 -3.55464e-06 2.72621e-21 0)
(7.02255e-06 -1.51594e-06 3.75612e-21 -3.49478e-06 3.74035e-21 0)
(6.9831e-06 -1.37928e-06 -1.84024e-21 -3.43862e-06 -1.83526e-21 0)
(6.94888e-06 -1.25203e-06 -2.99865e-22 -3.3892e-06 8.23439e-22 0)
(6.92497e-06 -1.13093e-06 8.08621e-21 -3.34608e-06 4.81986e-21 0)
(6.90719e-06 -1.01713e-06 -5.39554e-21 -3.30959e-06 -5.5219e-21 0)
(6.89647e-06 -9.09531e-07 -1.91911e-21 -3.27969e-06 -1.9887e-21 0)
(6.89118e-06 -8.07793e-07 5.20713e-21 -3.25616e-06 7.75459e-21 0)
(6.89105e-06 -7.11063e-07 -7.64503e-21 -3.23865e-06 -2.27043e-21 0)
(6.89515e-06 -6.18459e-07 -5.43115e-21 -3.22659e-06 -5.82089e-21 0)
(6.90265e-06 -5.2894e-07 1.82674e-23 -3.21904e-06 -1.17697e-21 0)
(6.91261e-06 -4.41042e-07 -7.32761e-21 -3.21467e-06 -5.61367e-21 0)
(6.92304e-06 -3.53363e-07 -5.33034e-23 -3.21135e-06 -5.02277e-23 0)
(6.9328e-06 -2.62523e-07 7.19647e-21 -3.20638e-06 6.89466e-21 0)
(6.93668e-06 -1.68099e-07 1.08203e-22 -3.19505e-06 1.42495e-21 0)
(6.935e-06 -5.44045e-08 -9.39047e-20 -3.17243e-06 -1.14676e-21 2.20164e-36)
(8.18363e-06 -2.14636e-06 -1.44386e-21 -4.2578e-06 -1.86042e-21 0)
(7.94762e-06 -2.03412e-06 1.99785e-21 -4.18127e-06 1.82916e-21 0)
(7.81211e-06 -1.87741e-06 2.46979e-21 -4.06636e-06 1.29138e-21 0)
(7.65251e-06 -1.75749e-06 -1.94908e-21 -3.97413e-06 -1.83315e-21 0)
(7.53661e-06 -1.62085e-06 -4.62534e-21 -3.87502e-06 -2.31159e-21 0)
(7.42204e-06 -1.49701e-06 2.25816e-21 -3.78421e-06 1.12341e-21 0)
(7.33115e-06 -1.37267e-06 6.38754e-21 -3.69912e-06 4.11472e-21 0)
(7.2498e-06 -1.25468e-06 -1.02757e-20 -3.62198e-06 -6.90781e-21 0)
(7.18362e-06 -1.14086e-06 -6.33875e-21 -3.5534e-06 -4.17981e-21 0)
(7.12796e-06 -1.03247e-06 9.9482e-21 -3.49358e-06 6.74395e-21 0)
(7.08347e-06 -9.29094e-07 -4.06081e-21 -3.44274e-06 -1.9412e-21 0)
(7.04829e-06 -8.30569e-07 5.36762e-21 -3.40068e-06 5.51452e-21 0)
(7.02189e-06 -7.36335e-07 5.78913e-21 -3.36715e-06 3.77429e-21 0)
(7.00317e-06 -6.45554e-07 -3.36801e-21 -3.34163e-06 -4.71128e-21 0)
(6.9912e-06 -5.57178e-07 -2.21626e-21 -3.32339e-06 1.14847e-21 0)
(6.98493e-06 -4.6945e-07 1.04362e-22 -3.31134e-06 9.64849e-23 0)
(6.98275e-06 -3.80671e-07 -8.92681e-21 -3.3039e-06 -7.44032e-21 0)
(6.98343e-06 -2.86474e-07 1.77048e-21 -3.29909e-06 1.9953e-21 0)
(6.98365e-06 -1.8628e-07 3.5147e-21 -3.29383e-06 2.75298e-21 0)
(6.98266e-06 -6.13732e-08 -9.51268e-20 -3.2844e-06 -1.85666e-21 8.92068e-37)
(8.8874e-06 -1.84069e-06 1.71304e-23 -4.63314e-06 5.92926e-23 0)
(8.5664e-06 -1.80229e-06 -2.06532e-21 -4.54421e-06 -1.82208e-21 0)
(8.37446e-06 -1.68087e-06 4.46938e-22 -4.40872e-06 -4.83452e-22 0)
(8.14969e-06 -1.59751e-06 0 -4.29101e-06 0 0)
(7.97991e-06 -1.49138e-06 0 -4.17083e-06 0 0)
(7.81385e-06 -1.39182e-06 -6.18855e-21 -4.05616e-06 -4.85557e-21 0)
(7.67556e-06 -1.28938e-06 5.50249e-21 -3.94851e-06 5.14568e-21 0)
(7.55077e-06 -1.18901e-06 1.16042e-20 -3.84844e-06 1.01446e-20 0)
(7.44429e-06 -1.09033e-06 -8.77426e-21 -3.75755e-06 -8.45097e-21 0)
(7.352e-06 -9.94321e-07 -7.69001e-21 -3.67628e-06 -6.56245e-21 0)
(7.27412e-06 -9.01305e-07 3.5441e-21 -3.60528e-06 3.53485e-21 0)
(7.20895e-06 -8.11389e-07 -3.51405e-22 -3.54475e-06 7.0132e-22 0)
(7.15579e-06 -7.24403e-07 6.07879e-21 -3.49477e-06 3.00276e-21 0)
(7.11351e-06 -6.39725e-07 9.46029e-21 -3.45518e-06 6.54968e-21 0)
(7.08124e-06 -5.56445e-07 1.29002e-22 -3.42566e-06 1.18137e-22 0)
(7.05793e-06 -4.72743e-07 4.32282e-21 -3.40562e-06 -1.18442e-21 0)
(7.04262e-06 -3.86827e-07 0 -3.39428e-06 0 0)
(7.03394e-06 -2.9379e-07 -3.62773e-21 -3.39057e-06 -1.59973e-21 0)
(7.03114e-06 -1.93045e-07 1.74543e-21 -3.39333e-06 7.37266e-22 0)
(7.03174e-06 -6.43479e-08 -9.12641e-20 -3.40028e-06 -4.09853e-22 2.34161e-36)
(9.50988e-06 -1.40612e-06 -1.33491e-23 -4.91396e-06 -5.18619e-23 0)
(9.11596e-06 -1.45502e-06 2.56676e-21 -4.82146e-06 1.53552e-21 0)
(8.88469e-06 -1.39393e-06 -2.55304e-21 -4.69673e-06 -1.55658e-21 0)
(8.60964e-06 -1.35424e-06 -2.51303e-21 -4.56352e-06 -1.51609e-21 0)
(8.3913e-06 -1.29132e-06 6.89729e-21 -4.43003e-06 4.71227e-21 0)
(8.18138e-06 -1.22199e-06 4.91597e-21 -4.29589e-06 2.93748e-21 0)
(7.9998e-06 -1.14642e-06 -6.52742e-21 -4.16847e-06 -4.37466e-21 0)
(7.83619e-06 -1.06744e-06 8.74939e-22 -4.04858e-06 -9.21211e-22 0)
(7.693e-06 -9.87247e-07 1.48016e-21 -3.93839e-06 1.37653e-21 0)
(7.56722e-06 -9.07039e-07 -8.12629e-22 -3.83876e-06 1.08602e-21 0)
(7.45838e-06 -8.27851e-07 -6.63205e-21 -3.75048e-06 -3.63714e-21 0)
(7.365e-06 -7.50123e-07 5.92355e-23 -3.67402e-06 5.73001e-23 0)
(7.28626e-06 -6.73995e-07 -3.02231e-21 -3.60972e-06 -4.13289e-21 0)
(7.22113e-06 -5.99067e-07 -1.02317e-22 -3.55778e-06 -9.38127e-23 0)
(7.16892e-06 -5.24593e-07 3.87506e-21 -3.51834e-06 1.88557e-21 0)
(7.12865e-06 -4.48832e-07 -7.71619e-23 -3.49139e-06 -6.75691e-23 0)
(7.10024e-06 -3.70024e-07 4.70717e-21 -3.4771e-06 6.34062e-21 0)
(7.0822e-06 -2.83153e-07 -1.78431e-21 -3.47543e-06 -7.97288e-22 0)
(7.07665e-06 -1.87622e-07 -8.34119e-21 -3.48732e-06 -8.27553e-21 0)
(7.07911e-06 -6.30835e-08 -1.00906e-19 -3.51215e-06 -6.90009e-21 1.74892e-34)
(1.00059e-05 -8.48812e-07 -3.27547e-22 -5.09644e-06 -1.65039e-22 0)
(9.59745e-06 -9.55789e-07 -2.75257e-21 -4.98281e-06 -1.62331e-21 0)
(9.33313e-06 -9.80903e-07 2.23229e-21 -4.89693e-06 1.75665e-21 0)
(9.03883e-06 -9.9103e-07 -5.83879e-21 -4.77577e-06 -5.33409e-21 0)
(8.78108e-06 -9.86197e-07 -6.01056e-21 -4.64962e-06 -5.00972e-21 0)
(8.53729e-06 -9.63891e-07 3.55246e-21 -4.51441e-06 3.6831e-21 0)
(8.31675e-06 -9.29425e-07 3.08548e-21 -4.37816e-06 3.69673e-21 0)
(8.11651e-06 -8.8477e-07 5.38682e-21 -4.24504e-06 4.86898e-21 0)
(7.93762e-06 -8.33053e-07 -6.32595e-21 -4.11853e-06 -4.73104e-21 0)
(7.77863e-06 -7.76588e-07 1.49359e-23 -4.0013e-06 1.29967e-22 0)
(7.63896e-06 -7.17251e-07 -7.50115e-23 -3.89513e-06 -3.87451e-22 0)
(7.51737e-06 -6.56376e-07 -4.94187e-21 -3.80138e-06 -4.84507e-21 0)
(7.41303e-06 -5.94769e-07 0 -3.72105e-06 0 0)
(7.32491e-06 -5.32617e-07 -4.49254e-21 -3.65493e-06 -1.45641e-21 0)
(7.25254e-06 -4.69618e-07 -2.05997e-23 -3.60377e-06 -8.94983e-23 0)
(7.195e-06 -4.04421e-07 -5.79542e-21 -3.5683e-06 -2.81939e-21 0)
(7.15309e-06 -3.35535e-07 1.58322e-21 -3.54972e-06 1.67546e-21 0)
(7.12528e-06 -2.58319e-07 3.65548e-21 -3.54914e-06 1.67066e-21 0)
(7.11678e-06 -1.72254e-07 4.55555e-23 -3.56975e-06 -3.76454e-24 0)
(7.12132e-06 -5.82141e-08 -9.88042e-20 -3.61275e-06 -3.0638e-21 7.33329e-37)
(1.02491e-05 -3.89012e-07 2.82619e-21 -5.11135e-06 2.4937e-21 0)
(9.877e-06 -4.45686e-07 -2.61938e-21 -5.01587e-06 -1.64732e-21 0)
(9.5909e-06 -5.51454e-07 -1.51558e-21 -4.95582e-06 -1.26113e-21 0)
(9.29874e-06 -6.01519e-07 2.51736e-21 -4.85762e-06 1.53948e-21 0)
(9.02799e-06 -6.36933e-07 -4.98079e-21 -4.7424e-06 -2.26079e-21 0)
(8.77095e-06 -6.52969e-07 -3.35867e-21 -4.61589e-06 -1.58511e-21 0)
(8.53377e-06 -6.53753e-07 -4.18102e-21 -4.48337e-06 -3.03861e-21 0)
(8.31496e-06 -6.4192e-07 5.07943e-22 -4.35048e-06 -3.51812e-22 0)
(8.11637e-06 -6.19873e-07 8.45652e-21 -4.22121e-06 5.39452e-21 0)
(7.93721e-06 -5.90129e-07 -2.90163e-22 -4.09897e-06 -3.13172e-22 0)
(7.77754e-06 -5.54645e-07 4.52186e-21 -3.98629e-06 2.56138e-21 0)
(7.63656e-06 -5.15069e-07 -2.22435e-22 -3.88519e-06 -2.5299e-22 0)
(7.51386e-06 -4.72529e-07 1.64855e-35 -3.79729e-06 1.67946e-35 0)
(7.40868e-06 -4.27614e-07 -1.98871e-21 -3.72399e-06 -9.90282e-22 0)
(7.32099e-06 -3.80414e-07 1.94419e-21 -3.66673e-06 9.45989e-22 0)
(7.25007e-06 -3.3011e-07 -8.68809e-23 -3.62693e-06 -1.26159e-22 0)
(7.1976e-06 -2.75651e-07 3.13962e-22 -3.60682e-06 -8.21347e-22 0)
(7.16201e-06 -2.13434e-07 1.73735e-23 -3.60846e-06 5.85746e-23 0)
(7.15091e-06 -1.43115e-07 -1.81262e-23 -3.63697e-06 2.33636e-23 0)
(7.15652e-06 -4.84406e-08 -9.52455e-20 -3.6953e-06 -5.16444e-22 -8.47706e-37)
(1.00464e-05 6.31196e-08 2.62664e-21 -4.9243e-06 2.08074e-21 0)
(9.79823e-06 -2.40107e-09 0 -4.95208e-06 0 0)
(9.53911e-06 -1.31652e-07 -2.04784e-21 -4.90598e-06 -1.80937e-21 0)
(9.28009e-06 -2.16408e-07 2.67854e-35 -4.83162e-06 2.17292e-35 0)
(9.0329e-06 -2.83285e-07 6.14273e-36 -4.73311e-06 4.46129e-36 0)
(8.79415e-06 -3.30795e-07 2.913e-35 -4.62054e-06 2.16929e-35 0)
(8.56998e-06 -3.61636e-07 4.46664e-35 -4.49918e-06 3.61633e-35 0)
(8.35957e-06 -3.78516e-07 -1.79462e-21 -4.3748e-06 -1.68694e-21 0)
(8.16551e-06 -3.83586e-07 0 -4.25166e-06 0 0)
(7.98771e-06 -3.79234e-07 1.71479e-21 -4.13348e-06 1.66684e-21 0)
(7.82697e-06 -3.67349e-07 -2.44508e-36 -4.02316e-06 -4.13868e-36 0)
(7.68311e-06 -3.49614e-07 -1.6494e-21 -3.92312e-06 -1.66018e-21 0)
(7.55633e-06 -3.27252e-07 1.62218e-21 -3.83541e-06 1.6611e-21 0)
(7.44638e-06 -3.01082e-07 2.33372e-35 -3.76187e-06 1.70166e-35 0)
(7.35374e-06 -2.71419e-07 -1.57869e-21 -3.70442e-06 -1.67051e-21 0)
(7.27817e-06 -2.38006e-07 -1.40063e-35 -3.66503e-06 -1.298e-35 0)
(7.22204e-06 -2.00112e-07 1.55041e-21 -3.64658e-06 1.6903e-21 0)
(7.18402e-06 -1.55483e-07 1.54225e-21 -3.65184e-06 1.70506e-21 0)
(7.17357e-06 -1.04235e-07 -1.66694e-35 -3.68738e-06 -1.45638e-35 0)