/*--------------------------------*- C++ -*----------------------------------*\
  =========                 |
  \\      /  F ield         | OpenFOAM: The Open Source CFD Toolbox
   \\    /   O peration     | Website:  https://openfoam.org
    \\  /    A nd           | Version:  9
     \\/     M anipulation  |
\*---------------------------------------------------------------------------*/
FoamFile
{
    format      ascii;
    class       volScalarField;
    location    "15";
    object      epsilonEq;
}
// * * * * * * * * * * * * * * * * * * * * * * * * * * * * * * * * * * * * * //

dimensions      [0 0 0 0 0 0 0];

internalField   nonuniform List<scalar> 
1000
(
1.02003e-05
9.68169e-06
9.54005e-06
9.62719e-06
9.64264e-06
9.62782e-06
9.56399e-06
9.46407e-06
9.35156e-06
9.20983e-06
1.18712e-05
1.08066e-05
1.02763e-05
1.01285e-05
9.98644e-06
9.86512e-06
9.7218e-06
9.56826e-06
9.39393e-06
9.23907e-06
1.3477e-05
1.18842e-05
1.09461e-05
1.05283e-05
1.02047e-05
9.956e-06
9.71953e-06
9.49819e-06
9.26575e-06
9.0789e-06
1.50182e-05
1.28933e-05
1.15491e-05
1.08297e-05
1.03057e-05
9.91355e-06
9.57511e-06
9.28168e-06
8.99318e-06
8.77271e-06
1.65055e-05
1.38127e-05
1.2086e-05
1.10379e-05
1.0293e-05
9.74259e-06
9.29429e-06
8.92466e-06
8.58354e-06
8.3277e-06
1.7883e-05
1.46922e-05
1.25227e-05
1.11499e-05
1.01647e-05
9.45097e-06
8.88941e-06
8.44412e-06
8.05423e-06
7.76274e-06
1.90148e-05
1.54803e-05
1.28121e-05
1.11148e-05
9.89648e-06
9.03005e-06
8.36772e-06
7.85705e-06
7.42925e-06
7.10605e-06
2.02202e-05
1.60312e-05
1.28906e-05
1.0895e-05
9.48631e-06
8.504e-06
7.77272e-06
7.22098e-06
6.77476e-06
6.43073e-06
2.1465e-05
1.60304e-05
1.24998e-05
1.03087e-05
8.85513e-06
7.85949e-06
7.13395e-06
6.58838e-06
6.15398e-06
5.80591e-06
2.23977e-05
1.51084e-05
1.15673e-05
9.51287e-06
8.24191e-06
7.35763e-06
6.70897e-06
6.20372e-06
5.79514e-06
5.44793e-06
2.54852e-08
8.48072e-08
3.7354e-07
7.70786e-07
1.20674e-06
1.6568e-06
2.09391e-06
2.51059e-06
2.89312e-06
3.24763e-06
9.94665e-08
5.15424e-07
1.09818e-06
1.67202e-06
2.18079e-06
2.63246e-06
3.02641e-06
3.37853e-06
3.68061e-06
3.96465e-06
4.23819e-07
1.22302e-06
1.95816e-06
2.62433e-06
3.17979e-06
3.64125e-06
4.01613e-06
4.33058e-06
4.57675e-06
4.8096e-06
9.7084e-07
2.0875e-06
2.91657e-06
3.61954e-06
4.17914e-06
4.62815e-06
4.97704e-06
5.25635e-06
5.45638e-06
5.64867e-06
1.7491e-06
3.06127e-06
3.94511e-06
4.65379e-06
5.18792e-06
5.60172e-06
5.90978e-06
6.14557e-06
6.2983e-06
6.44935e-06
2.7551e-06
4.097e-06
4.98286e-06
5.67137e-06
6.16117e-06
6.52562e-06
6.78334e-06
6.96926e-06
7.0736e-06
7.18119e-06
3.96807e-06
5.17741e-06
6.00025e-06
6.64179e-06
7.0723e-06
7.378e-06
7.57909e-06
7.71099e-06
7.76663e-06
7.82826e-06
5.35912e-06
6.2872e-06
6.97355e-06
7.53421e-06
7.89016e-06
8.12959e-06
8.27119e-06
8.34735e-06
8.35843e-06
8.37142e-06
6.888e-06
7.41364e-06
7.89158e-06
8.33405e-06
8.59776e-06
8.76309e-06
8.84118e-06
8.86142e-06
8.83004e-06
8.80095e-06
8.51711e-06
8.54704e-06
8.74651e-06
9.03047e-06
9.18097e-06
9.26051e-06
9.27022e-06
9.2289e-06
9.16909e-06
9.07287e-06
3.5671e-06
3.8419e-06
4.0969e-06
4.32763e-06
4.53634e-06
4.72421e-06
4.89291e-06
5.04371e-06
5.1781e-06
5.29709e-06
5.40176e-06
5.49281e-06
5.57084e-06
5.63624e-06
5.68918e-06
5.72992e-06
5.75834e-06
5.77535e-06
5.78072e-06
5.77734e-06
4.18428e-06
4.34411e-06
4.50551e-06
4.65553e-06
4.79631e-06
4.92721e-06
5.04822e-06
5.1593e-06
5.26078e-06
5.35275e-06
5.43561e-06
5.50951e-06
5.57474e-06
5.63143e-06
5.67961e-06
5.71932e-06
5.74994e-06
5.77116e-06
5.78006e-06
5.77481e-06
4.93957e-06
4.99048e-06
5.05575e-06
5.11865e-06
5.18268e-06
5.24649e-06
5.30966e-06
5.37108e-06
5.43051e-06
5.48714e-06
5.5408e-06
5.59104e-06
5.6377e-06
5.68047e-06
5.71894e-06
5.75254e-06
5.7797e-06
5.79873e-06
5.80365e-06
5.7911e-06
5.70442e-06
5.66461e-06
5.64718e-06
5.63315e-06
5.62651e-06
5.62632e-06
5.63256e-06
5.64355e-06
5.65912e-06
5.67781e-06
5.69921e-06
5.72235e-06
5.74669e-06
5.77145e-06
5.79571e-06
5.81838e-06
5.83713e-06
5.84968e-06
5.84894e-06
5.83186e-06
6.43962e-06
6.32517e-06
6.23668e-06
6.1566e-06
6.08784e-06
6.02965e-06
5.98312e-06
5.9459e-06
5.91854e-06
5.89908e-06
5.88724e-06
5.88167e-06
5.88164e-06
5.88601e-06
5.89356e-06
5.90282e-06
5.91111e-06
5.91602e-06
5.91065e-06
5.89254e-06
7.11363e-06
6.93978e-06
6.7925e-06
6.65708e-06
6.53638e-06
6.42793e-06
6.33534e-06
6.25486e-06
6.18816e-06
6.13284e-06
6.08889e-06
6.05483e-06
6.02992e-06
6.01292e-06
6.00252e-06
5.99717e-06
5.99437e-06
5.99187e-06
5.98418e-06
5.96912e-06
7.71047e-06
7.49197e-06
7.30008e-06
7.11908e-06
6.95708e-06
6.80577e-06
6.67335e-06
6.55438e-06
6.45194e-06
6.36354e-06
6.28947e-06
6.22831e-06
6.17936e-06
6.14142e-06
6.11329e-06
6.09352e-06
6.08019e-06
6.07133e-06
6.06366e-06
6.05494e-06
8.21362e-06
7.96396e-06
7.74496e-06
7.52645e-06
7.33425e-06
7.14965e-06
6.98568e-06
6.83535e-06
6.70242e-06
6.58487e-06
6.48325e-06
6.39664e-06
6.32458e-06
6.26619e-06
6.22061e-06
6.18672e-06
6.16344e-06
6.14927e-06
6.14355e-06
6.14382e-06
8.62161e-06
8.34401e-06
8.12554e-06
7.88089e-06
7.66566e-06
7.45403e-06
7.26216e-06
7.0849e-06
6.92548e-06
6.78285e-06
6.65739e-06
6.54858e-06
6.45614e-06
6.37949e-06
6.31824e-06
6.27166e-06
6.23975e-06
6.22148e-06
6.21913e-06
6.22982e-06
8.92556e-06
8.62818e-06
8.42424e-06
8.18188e-06
7.95746e-06
7.73429e-06
7.52301e-06
7.32428e-06
7.14116e-06
6.9746e-06
6.82556e-06
6.69428e-06
6.58094e-06
6.4854e-06
6.4078e-06
6.3479e-06
6.30683e-06
6.28419e-06
6.28528e-06
6.30706e-06
9.04339e-06
8.76487e-06
8.5632e-06
8.33516e-06
8.11107e-06
7.88813e-06
7.67298e-06
7.46772e-06
7.27577e-06
7.09867e-06
6.93805e-06
6.79468e-06
6.66932e-06
6.56235e-06
6.47457e-06
6.40627e-06
6.3597e-06
6.33494e-06
6.33972e-06
6.37089e-06
8.81069e-06
8.66795e-06
8.48303e-06
8.285e-06
8.08263e-06
7.8782e-06
7.67789e-06
7.48399e-06
7.30025e-06
7.12858e-06
6.97109e-06
6.82901e-06
6.70361e-06
6.59577e-06
6.50684e-06
6.4377e-06
6.39136e-06
6.36844e-06
6.37848e-06
6.41786e-06
8.62298e-06
8.51481e-06
8.37327e-06
8.20367e-06
8.02752e-06
7.84284e-06
7.65884e-06
7.47739e-06
7.30315e-06
7.13828e-06
6.98539e-06
6.84614e-06
6.72225e-06
6.61503e-06
6.52629e-06
6.45744e-06
6.41213e-06
6.39111e-06
6.40498e-06
6.44996e-06
8.39941e-06
8.3346e-06
8.22856e-06
8.08667e-06
7.93558e-06
7.77104e-06
7.60441e-06
7.43716e-06
7.27464e-06
7.11913e-06
6.97363e-06
6.84007e-06
6.72047e-06
6.6165e-06
6.53021e-06
6.46355e-06
6.41999e-06
6.40146e-06
6.41927e-06
6.46734e-06
8.14471e-06
8.11415e-06
8.04159e-06
7.9288e-06
7.80444e-06
7.66253e-06
7.51575e-06
7.36529e-06
7.21708e-06
7.07353e-06
6.93799e-06
6.81261e-06
6.69965e-06
6.60109e-06
6.51892e-06
6.45595e-06
6.414e-06
6.40043e-06
6.40948e-06
6.46886e-06
7.87362e-06
7.87359e-06
7.83116e-06
7.74572e-06
7.64655e-06
7.52704e-06
7.40036e-06
7.26762e-06
7.13503e-06
7.00511e-06
6.88141e-06
6.7662e-06
6.66196e-06
6.57066e-06
6.49475e-06
6.43621e-06
6.39917e-06
6.38566e-06
6.40439e-06
6.45097e-06
7.59103e-06
7.61613e-06
7.60001e-06
7.54012e-06
7.46487e-06
7.36757e-06
7.26129e-06
7.14706e-06
7.03121e-06
6.9163e-06
6.80597e-06
6.70258e-06
6.60867e-06
6.52622e-06
6.45769e-06
6.40488e-06
6.37179e-06
6.35916e-06
6.37657e-06
6.42043e-06
7.30267e-06
7.34859e-06
7.35536e-06
7.31856e-06
7.26532e-06
7.18924e-06
7.10288e-06
7.00731e-06
6.90873e-06
6.80971e-06
6.71389e-06
6.62359e-06
6.54134e-06
6.46904e-06
6.409e-06
6.36279e-06
6.33387e-06
6.3231e-06
6.33844e-06
6.37646e-06
7.01111e-06
7.07351e-06
7.09972e-06
7.08352e-06
7.05046e-06
6.99456e-06
6.92761e-06
6.85071e-06
6.76978e-06
6.68735e-06
6.60693e-06
6.53078e-06
6.46132e-06
6.4003e-06
6.34978e-06
6.31103e-06
6.28689e-06
6.27772e-06
6.29025e-06
6.32126e-06
6.71764e-06
6.79294e-06
6.83554e-06
6.83761e-06
6.82297e-06
6.78615e-06
6.73799e-06
6.67961e-06
6.61655e-06
6.5512e-06
6.48689e-06
6.42576e-06
6.37003e-06
6.32127e-06
6.2812e-06
6.25076e-06
6.23199e-06
6.22492e-06
6.23426e-06
6.25708e-06
6.42178e-06
6.50695e-06
6.56334e-06
6.5817e-06
6.5841e-06
6.56547e-06
6.53568e-06
6.49578e-06
6.45083e-06
6.40305e-06
6.35551e-06
6.31015e-06
6.26898e-06
6.23335e-06
6.20459e-06
6.18331e-06
6.17066e-06
6.16618e-06
6.17243e-06
6.18676e-06
6.12212e-06
6.21495e-06
6.28316e-06
6.3164e-06
6.33489e-06
6.33394e-06
6.32237e-06
6.30107e-06
6.2746e-06
6.24492e-06
6.21476e-06
6.18587e-06
6.15999e-06
6.13823e-06
6.12156e-06
6.11023e-06
6.10453e-06
6.10345e-06
6.10722e-06
6.11333e-06
5.81576e-06
5.91492e-06
5.99384e-06
6.04133e-06
6.07565e-06
6.09246e-06
6.09942e-06
6.09727e-06
6.08991e-06
6.07902e-06
6.06698e-06
6.05525e-06
6.04531e-06
6.03805e-06
6.03411e-06
6.03344e-06
6.03553e-06
6.03881e-06
6.04118e-06
6.04004e-06
5.49987e-06
5.60513e-06
5.69459e-06
5.75658e-06
5.80726e-06
5.84255e-06
5.86894e-06
5.88685e-06
5.89955e-06
5.90835e-06
5.91521e-06
5.92132e-06
5.92787e-06
5.93558e-06
5.94481e-06
5.95528e-06
5.96587e-06
5.97452e-06
5.97695e-06
5.97019e-06
5.16954e-06
5.28212e-06
5.38333e-06
5.46137e-06
5.53008e-06
5.58556e-06
5.63304e-06
5.67262e-06
5.7068e-06
5.73652e-06
5.76327e-06
5.78796e-06
5.81151e-06
5.83446e-06
5.85701e-06
5.87877e-06
5.89826e-06
5.9131e-06
5.9173e-06
5.90716e-06
4.82295e-06
4.94565e-06
5.06112e-06
5.15796e-06
5.2473e-06
5.32546e-06
5.39628e-06
5.45948e-06
5.51682e-06
5.56878e-06
5.6164e-06
5.66029e-06
5.7011e-06
5.73925e-06
5.77485e-06
5.80756e-06
5.83582e-06
5.8572e-06
5.8648e-06
5.85391e-06
4.45345e-06
4.59164e-06
4.72625e-06
4.84667e-06
4.96094e-06
5.0656e-06
5.16306e-06
5.25265e-06
5.33535e-06
5.41126e-06
5.48095e-06
5.54474e-06
5.60304e-06
5.65613e-06
5.7041e-06
5.74673e-06
5.78279e-06
5.81013e-06
5.82223e-06
5.81347e-06
4.06847e-06
4.22931e-06
4.38915e-06
4.53859e-06
4.68243e-06
4.81735e-06
4.94442e-06
5.06262e-06
5.17228e-06
5.27315e-06
5.36543e-06
5.44918e-06
5.52459e-06
5.59183e-06
5.65095e-06
5.70187e-06
5.74387e-06
5.77548e-06
5.79177e-06
5.78713e-06
3.66073e-06
3.85615e-06
4.05115e-06
4.23789e-06
4.41793e-06
4.58824e-06
4.74883e-06
4.89847e-06
5.03707e-06
5.16419e-06
5.2798e-06
5.38381e-06
5.4762e-06
5.55695e-06
5.62593e-06
5.68305e-06
5.72778e-06
5.75982e-06
5.77686e-06
5.77656e-06
3.27837e-06
3.51805e-06
3.7548e-06
3.98253e-06
4.20101e-06
4.40725e-06
4.60095e-06
4.78077e-06
4.94659e-06
5.09795e-06
5.23484e-06
5.35712e-06
5.46467e-06
5.55726e-06
5.63445e-06
5.69585e-06
5.74058e-06
5.769e-06
5.78032e-06
5.77862e-06
5.1547e-06
5.49932e-06
6.09285e-06
6.74837e-06
7.40103e-06
7.97517e-06
8.43949e-06
8.77218e-06
8.97837e-06
9.02088e-06
4.88279e-06
5.20466e-06
5.75196e-06
6.37062e-06
7.00829e-06
7.59354e-06
8.09441e-06
8.47878e-06
8.74578e-06
8.85042e-06
4.63907e-06
4.94658e-06
5.45551e-06
6.03424e-06
6.64099e-06
7.2103e-06
7.71537e-06
8.12908e-06
8.4524e-06
8.65151e-06
4.41596e-06
4.71396e-06
5.19132e-06
5.73486e-06
6.31296e-06
6.86515e-06
7.36533e-06
7.7877e-06
8.12654e-06
8.38319e-06
4.20644e-06
4.49805e-06
4.94868e-06
5.45923e-06
6.00699e-06
6.53802e-06
7.02864e-06
7.45834e-06
7.80776e-06
8.09731e-06
4.00954e-06
4.29723e-06
4.72597e-06
5.20742e-06
5.72597e-06
6.23327e-06
6.70664e-06
7.13244e-06
7.48176e-06
7.79257e-06
3.82161e-06
4.10673e-06
4.51702e-06
4.97262e-06
5.46386e-06
5.94792e-06
6.40301e-06
6.82134e-06
7.16533e-06
7.48291e-06
3.64202e-06
3.92515e-06
4.31958e-06
4.75199e-06
5.21737e-06
5.6777e-06
6.1123e-06
6.51873e-06
6.85482e-06
7.17252e-06
3.46948e-06
3.75061e-06
4.1309e-06
4.54229e-06
4.98356e-06
5.42085e-06
5.83482e-06
6.22665e-06
6.55254e-06
6.86456e-06
3.30401e-06
3.58239e-06
3.94922e-06
4.34071e-06
4.75881e-06
5.17311e-06
5.56613e-06
5.94145e-06
6.25615e-06
6.5595e-06
3.14602e-06
3.42014e-06
3.7732e-06
4.14499e-06
4.54035e-06
4.93162e-06
5.30357e-06
5.66097e-06
5.96346e-06
6.25614e-06
2.99667e-06
3.26419e-06
3.60193e-06
3.95298e-06
4.32495e-06
4.69252e-06
5.04298e-06
5.38145e-06
5.6711e-06
5.95214e-06
2.85838e-06
3.11564e-06
3.43461e-06
3.76216e-06
4.10883e-06
4.45137e-06
4.77957e-06
5.09829e-06
5.3746e-06
5.64362e-06
2.7349e-06
2.97625e-06
3.27083e-06
3.57042e-06
3.88851e-06
4.20389e-06
4.50865e-06
4.80688e-06
5.06959e-06
5.3267e-06
2.63331e-06
2.84877e-06
3.10837e-06
3.37207e-06
3.65635e-06
3.94178e-06
4.22189e-06
4.49939e-06
4.74891e-06
4.99508e-06
2.56201e-06
2.73454e-06
2.94499e-06
3.16364e-06
3.40796e-06
3.66025e-06
3.91451e-06
4.17142e-06
4.40875e-06
4.64557e-06
2.53961e-06
2.63618e-06
2.76844e-06
2.9262e-06
3.12319e-06
3.34033e-06
3.56971e-06
3.80853e-06
4.03718e-06
4.2687e-06
2.56972e-06
2.53634e-06
2.56557e-06
2.65368e-06
2.79984e-06
2.98201e-06
3.18924e-06
3.4141e-06
3.63911e-06
3.87046e-06
2.69823e-06
2.41096e-06
2.27593e-06
2.27904e-06
2.3804e-06
2.53886e-06
2.73685e-06
2.96077e-06
3.19465e-06
3.43754e-06
2.74725e-06
2.10738e-06
1.8803e-06
1.81785e-06
1.89759e-06
2.04965e-06
2.25544e-06
2.49464e-06
2.75195e-06
3.01955e-06
)
;

boundaryField
{
    left
    {
        type            calculated;
        value           nonuniform List<scalar> 
30
(
5.09647e-06
4.82734e-06
4.58631e-06
4.3656e-06
4.15878e-06
3.96486e-06
3.78054e-06
3.60531e-06
3.43812e-06
3.27918e-06
3.12934e-06
2.99005e-06
2.864e-06
2.75531e-06
2.67145e-06
2.62337e-06
2.63343e-06
2.72829e-06
3.00027e-06
3.42107e-06
2.37741e-05
1.48144e-05
1.11995e-05
9.28141e-06
8.10384e-06
7.26659e-06
6.64062e-06
6.14426e-06
5.73934e-06
5.39012e-06
)
;
    }
    right
    {
        type            calculated;
        value           nonuniform List<scalar> 
30
(
5.77637e-06
5.77481e-06
5.79054e-06
5.83097e-06
5.89144e-06
5.96805e-06
6.05408e-06
6.14339e-06
6.22986e-06
6.30782e-06
6.37192e-06
6.41966e-06
6.45201e-06
6.46955e-06
6.46944e-06
6.45289e-06
6.42249e-06
6.3782e-06
6.32263e-06
6.25801e-06
6.18725e-06
6.11341e-06
6.03979e-06
5.96972e-06
5.90659e-06
5.8534e-06
5.81318e-06
5.7871e-06
5.77678e-06
5.77751e-06
)
;
    }
    down
    {
        type            calculated;
        value           nonuniform List<scalar> 
30
(
2.16857e-08
2.72391e-08
2.69699e-07
6.52423e-07
1.09317e-06
1.55388e-06
2.00384e-06
2.43289e-06
2.82646e-06
3.19132e-06
3.51997e-06
3.80646e-06
4.06975e-06
4.3066e-06
4.52033e-06
4.71191e-06
4.8837e-06
5.03684e-06
5.17314e-06
5.29361e-06
5.39946e-06
5.49141e-06
5.5701e-06
5.63596e-06
5.68916e-06
5.72999e-06
5.75832e-06
5.77523e-06
5.78064e-06
5.77876e-06
)
;
    }
    up
    {
        type            calculated;
        value           nonuniform List<scalar> 
30
(
2.70504e-06
2.08155e-06
1.86702e-06
1.80363e-06
1.88152e-06
2.03152e-06
2.23607e-06
2.47501e-06
2.73212e-06
3.00078e-06
3.26034e-06
3.50186e-06
3.74084e-06
3.97039e-06
4.19079e-06
4.39868e-06
4.59395e-06
4.77515e-06
4.94221e-06
5.09466e-06
5.2325e-06
5.35558e-06
5.4638e-06
5.55692e-06
5.63447e-06
5.69606e-06
5.74079e-06
5.76909e-06
5.78022e-06
5.77949e-06
)
;
    }
    hole
    {
        type            calculated;
        value           nonuniform List<scalar> 
20
(
1.02668e-05
1.20089e-05
1.36936e-05
1.5322e-05
1.69875e-05
1.8439e-05
1.95405e-05
2.0853e-05
2.25507e-05
2.4132e-05
9.07084e-09
9.31427e-09
2.02763e-07
6.91008e-07
1.45156e-06
2.47722e-06
3.73384e-06
5.18673e-06
6.78959e-06
8.50103e-06
)
;
    }
    frontAndBack
    {
        type            empty;
    }
}


// ************************************************************************* //
