/*--------------------------------*- C++ -*----------------------------------*\
  =========                 |
  \\      /  F ield         | OpenFOAM: The Open Source CFD Toolbox
   \\    /   O peration     | Website:  https://openfoam.org
    \\  /    A nd           | Version:  9
     \\/     M anipulation  |
\*---------------------------------------------------------------------------*/
FoamFile
{
    format      ascii;
    class       pointVectorField;
    location    "15";
    object      pointD;
}
// * * * * * * * * * * * * * * * * * * * * * * * * * * * * * * * * * * * * * //

dimensions      [0 1 0 0 0 0 0];

internalField   nonuniform List<vector> 
2142
(
(1.11446e-05 3.27342e-06 -9.80849e-20)
(1.03314e-05 3.78881e-06 0)
(9.76156e-06 4.15726e-06 0)
(9.34598e-06 4.45688e-06 0)
(9.0463e-06 4.70226e-06 0)
(8.83327e-06 4.91357e-06 0)
(8.68586e-06 5.09936e-06 0)
(8.58927e-06 5.2673e-06 0)
(8.53199e-06 5.42195e-06 0)
(8.50563e-06 5.56642e-06 0)
(8.5096e-06 5.7233e-06 0)
(1.01879e-05 3.00291e-06 -1.10474e-19)
(9.32582e-06 3.41029e-06 0)
(8.72692e-06 3.6969e-06 0)
(8.2925e-06 3.93256e-06 0)
(7.97996e-06 4.12484e-06 0)
(7.7575e-06 4.2912e-06 0)
(7.60221e-06 4.43754e-06 0)
(7.49837e-06 4.57037e-06 0)
(7.43345e-06 4.69274e-06 0)
(7.39876e-06 4.80837e-06 0)
(7.25004e-06 4.81423e-06 0)
(9.19597e-06 2.7327e-06 -1.11454e-19)
(8.30548e-06 3.0232e-06 0)
(7.69303e-06 3.22206e-06 0)
(7.25114e-06 3.39083e-06 0)
(6.93445e-06 3.52924e-06 0)
(6.70932e-06 3.651e-06 0)
(6.55147e-06 3.75898e-06 0)
(6.44444e-06 3.85799e-06 0)
(6.37525e-06 3.94943e-06 0)
(6.33453e-06 4.03685e-06 0)
(6.20123e-06 4.02801e-06 0)
(8.16961e-06 2.46714e-06 -1.09647e-19)
(7.27618e-06 2.63391e-06 0)
(6.66705e-06 2.74307e-06 0)
(6.23022e-06 2.84431e-06 0)
(5.91901e-06 2.93004e-06 0)
(5.69872e-06 3.00921e-06 0)
(5.54428e-06 3.08151e-06 0)
(5.43886e-06 3.14965e-06 0)
(5.36946e-06 3.21333e-06 0)
(5.32653e-06 3.27523e-06 0)
(5.21142e-06 3.2565e-06 0)
(7.11e-06 2.21413e-06 -1.11233e-19)
(6.24272e-06 2.25038e-06 0)
(5.65429e-06 2.27153e-06 0)
(5.23575e-06 2.30662e-06 0)
(4.94044e-06 2.34277e-06 0)
(4.73299e-06 2.38292e-06 0)
(4.58828e-06 2.42349e-06 0)
(4.48944e-06 2.46471e-06 0)
(4.42388e-06 2.50461e-06 0)
(4.38216e-06 2.54464e-06 0)
(4.28614e-06 2.5205e-06 0)
(6.02248e-06 1.97102e-06 -1.06429e-19)
(5.20901e-06 1.87907e-06 0)
(4.65793e-06 1.81659e-06 0)
(4.27158e-06 1.79076e-06 0)
(4.00328e-06 1.78289e-06 0)
(3.81708e-06 1.78976e-06 0)
(3.68846e-06 1.80417e-06 0)
(3.60098e-06 1.82375e-06 0)
(3.54289e-06 1.84485e-06 0)
(3.50526e-06 1.86755e-06 0)
(3.42827e-06 1.84231e-06 0)
(4.90582e-06 1.73033e-06 -8.58744e-20)
(4.17304e-06 1.52452e-06 0)
(3.67758e-06 1.38546e-06 0)
(3.33929e-06 1.30866e-06 0)
(3.10972e-06 1.26565e-06 0)
(2.95334e-06 1.24756e-06 0)
(2.84684e-06 1.24309e-06 0)
(2.775e-06 1.24746e-06 0)
(2.7274e-06 1.25552e-06 0)
(2.6961e-06 1.26609e-06 0)
(2.63736e-06 1.24376e-06 0)
(3.77921e-06 1.48604e-06 -5.88506e-20)
(3.13502e-06 1.18417e-06 0)
(2.71406e-06 9.84148e-07 0)
(2.4415e-06 8.72011e-07 0)
(2.26214e-06 8.07297e-07 0)
(2.1432e-06 7.75264e-07 0)
(2.06358e-06 7.60768e-07 0)
(2.01041e-06 7.57114e-07 0)
(1.97525e-06 7.58222e-07 0)
(1.95173e-06 7.62018e-07 0)
(1.90988e-06 7.45781e-07 0)
(2.62404e-06 1.23483e-06 -1.95586e-20)
(2.08763e-06 8.46083e-07 0)
(1.76888e-06 6.14598e-07 0)
(1.57975e-06 4.92199e-07 0)
(1.46048e-06 4.25132e-07 0)
(1.38429e-06 3.92611e-07 0)
(1.33416e-06 3.77585e-07 0)
(1.30097e-06 3.72748e-07 0)
(1.27889e-06 3.72196e-07 0)
(1.26368e-06 3.73707e-07 0)
(1.23702e-06 3.65106e-07 0)
(1.51505e-06 9.34968e-07 2.35262e-20)
(1.03884e-06 4.96251e-07 0)
(8.57617e-07 2.91702e-07 0)
(7.65092e-07 1.96174e-07 0)
(7.09819e-07 1.50114e-07 0)
(6.75593e-07 1.29952e-07 0)
(6.53136e-07 1.21806e-07 0)
(6.38185e-07 1.19976e-07 0)
(6.28002e-07 1.20496e-07 0)
(6.20635e-07 1.21908e-07 0)
(6.07491e-07 1.19649e-07 0)
(5.01287e-07 3.81216e-07 2.04692e-20)
(0 0 0)
(0 0 0)
(0 0 0)
(0 0 0)
(0 0 0)
(0 0 0)
(0 0 0)
(0 0 0)
(0 0 0)
(0 0 0)
(1.11446e-05 3.27342e-06 -9.80849e-20)
(1.03314e-05 3.78881e-06 0)
(9.76156e-06 4.15726e-06 0)
(9.34598e-06 4.45688e-06 0)
(9.0463e-06 4.70226e-06 0)
(8.83327e-06 4.91357e-06 0)
(8.68586e-06 5.09936e-06 0)
(8.58927e-06 5.2673e-06 0)
(8.53199e-06 5.42195e-06 0)
(8.50563e-06 5.56642e-06 0)
(8.5096e-06 5.7233e-06 0)
(1.01879e-05 3.00291e-06 -1.10474e-19)
(9.32582e-06 3.41029e-06 0)
(8.72692e-06 3.6969e-06 0)
(8.2925e-06 3.93256e-06 0)
(7.97996e-06 4.12484e-06 0)
(7.7575e-06 4.2912e-06 0)
(7.60221e-06 4.43754e-06 0)
(7.49837e-06 4.57037e-06 0)
(7.43345e-06 4.69274e-06 0)
(7.39876e-06 4.80837e-06 0)
(7.25004e-06 4.81423e-06 0)
(9.19597e-06 2.7327e-06 -1.11454e-19)
(8.30548e-06 3.0232e-06 0)
(7.69303e-06 3.22206e-06 0)
(7.25114e-06 3.39083e-06 0)
(6.93445e-06 3.52924e-06 0)
(6.70932e-06 3.651e-06 0)
(6.55147e-06 3.75898e-06 0)
(6.44444e-06 3.85799e-06 0)
(6.37525e-06 3.94943e-06 0)
(6.33453e-06 4.03685e-06 0)
(6.20123e-06 4.02801e-06 0)
(8.16961e-06 2.46714e-06 -1.09647e-19)
(7.27618e-06 2.63391e-06 0)
(6.66705e-06 2.74307e-06 0)
(6.23022e-06 2.84431e-06 0)
(5.91901e-06 2.93004e-06 0)
(5.69872e-06 3.00921e-06 0)
(5.54428e-06 3.08151e-06 0)
(5.43886e-06 3.14965e-06 0)
(5.36946e-06 3.21333e-06 0)
(5.32653e-06 3.27523e-06 0)
(5.21142e-06 3.2565e-06 0)
(7.11e-06 2.21413e-06 -1.11233e-19)
(6.24272e-06 2.25038e-06 0)
(5.65429e-06 2.27153e-06 0)
(5.23575e-06 2.30662e-06 0)
(4.94044e-06 2.34277e-06 0)
(4.73299e-06 2.38292e-06 0)
(4.58828e-06 2.42349e-06 0)
(4.48944e-06 2.46471e-06 0)
(4.42388e-06 2.50461e-06 0)
(4.38216e-06 2.54464e-06 0)
(4.28614e-06 2.5205e-06 0)
(6.02248e-06 1.97102e-06 -1.06429e-19)
(5.20901e-06 1.87907e-06 0)
(4.65793e-06 1.81659e-06 0)
(4.27158e-06 1.79076e-06 0)
(4.00328e-06 1.78289e-06 0)
(3.81708e-06 1.78976e-06 0)
(3.68846e-06 1.80417e-06 0)
(3.60098e-06 1.82375e-06 0)
(3.54289e-06 1.84485e-06 0)
(3.50526e-06 1.86755e-06 0)
(3.42827e-06 1.84231e-06 0)
(4.90582e-06 1.73033e-06 -8.58744e-20)
(4.17304e-06 1.52452e-06 0)
(3.67758e-06 1.38546e-06 0)
(3.33929e-06 1.30866e-06 0)
(3.10972e-06 1.26565e-06 0)
(2.95334e-06 1.24756e-06 0)
(2.84684e-06 1.24309e-06 0)
(2.775e-06 1.24746e-06 0)
(2.7274e-06 1.25552e-06 0)
(2.6961e-06 1.26609e-06 0)
(2.63736e-06 1.24376e-06 0)
(3.77921e-06 1.48604e-06 -5.88506e-20)
(3.13502e-06 1.18417e-06 0)
(2.71406e-06 9.84148e-07 0)
(2.4415e-06 8.72011e-07 0)
(2.26214e-06 8.07297e-07 0)
(2.1432e-06 7.75264e-07 0)
(2.06358e-06 7.60768e-07 0)
(2.01041e-06 7.57114e-07 0)
(1.97525e-06 7.58222e-07 0)
(1.95173e-06 7.62018e-07 0)
(1.90988e-06 7.45781e-07 0)
(2.62404e-06 1.23483e-06 -1.95586e-20)
(2.08763e-06 8.46083e-07 0)
(1.76888e-06 6.14598e-07 0)
(1.57975e-06 4.92199e-07 0)
(1.46048e-06 4.25132e-07 0)
(1.38429e-06 3.92611e-07 0)
(1.33416e-06 3.77585e-07 0)
(1.30097e-06 3.72748e-07 0)
(1.27889e-06 3.72196e-07 0)
(1.26368e-06 3.73707e-07 0)
(1.23702e-06 3.65106e-07 0)
(1.51505e-06 9.34968e-07 2.35262e-20)
(1.03884e-06 4.96251e-07 0)
(8.57617e-07 2.91702e-07 0)
(7.65092e-07 1.96174e-07 0)
(7.09819e-07 1.50114e-07 0)
(6.75593e-07 1.29952e-07 0)
(6.53136e-07 1.21806e-07 0)
(6.38185e-07 1.19976e-07 0)
(6.28002e-07 1.20496e-07 0)
(6.20635e-07 1.21908e-07 0)
(6.07491e-07 1.19649e-07 0)
(5.01287e-07 3.81216e-07 2.04692e-20)
(0 0 0)
(0 0 0)
(0 0 0)
(0 0 0)
(0 0 0)
(0 0 0)
(0 0 0)
(0 0 0)
(0 0 0)
(0 0 0)
(1.80815e-05 5.37137e-06 -2.53778e-21)
(1.82108e-05 5.89095e-06 -1.40962e-21)
(1.81951e-05 6.55913e-06 -1.54155e-21)
(1.81844e-05 7.17912e-06 -1.66971e-21)
(1.81951e-05 7.74978e-06 -1.79089e-21)
(1.82333e-05 8.27687e-06 -1.90591e-21)
(1.83012e-05 8.76722e-06 -2.01589e-21)
(1.83984e-05 9.22775e-06 -2.12195e-21)
(1.85239e-05 9.66426e-06 -2.15436e-21)
(1.86748e-05 1.00822e-05 -1.60792e-21)
(1.88496e-05 1.04839e-05 -5.53837e-22)
(1.76788e-05 5.17007e-06 -3.79615e-21)
(1.76236e-05 5.86757e-06 0)
(1.75774e-05 6.53151e-06 0)
(1.75528e-05 7.14237e-06 0)
(1.75557e-05 7.70027e-06 0)
(1.75882e-05 8.21203e-06 0)
(1.76502e-05 8.68518e-06 0)
(1.77401e-05 9.12727e-06 0)
(1.7856e-05 9.54448e-06 0)
(1.79955e-05 9.94271e-06 0)
(1.8167e-05 1.03268e-05 0)
(1.71307e-05 5.08479e-06 -3.89213e-21)
(1.70157e-05 5.79758e-06 0)
(1.69222e-05 6.45539e-06 0)
(1.68622e-05 7.05344e-06 0)
(1.6838e-05 7.59502e-06 0)
(1.6849e-05 8.08861e-06 0)
(1.68923e-05 8.54242e-06 0)
(1.69651e-05 8.96446e-06 0)
(1.70643e-05 9.36114e-06 0)
(1.71864e-05 9.73872e-06 0)
(1.73534e-05 1.0106e-05 0)
(1.65501e-05 4.94671e-06 -4.53365e-21)
(1.63628e-05 5.68284e-06 0)
(1.62128e-05 6.33219e-06 0)
(1.6108e-05 6.9127e-06 0)
(1.60479e-05 7.43269e-06 0)
(1.60292e-05 7.90343e-06 0)
(1.60472e-05 8.33404e-06 0)
(1.6097e-05 8.73292e-06 0)
(1.61749e-05 9.10664e-06 0)
(1.6276e-05 9.46158e-06 0)
(1.64381e-05 9.81258e-06 0)
(1.59267e-05 4.76855e-06 -7.09765e-21)
(1.56548e-05 5.52502e-06 0)
(1.54422e-05 6.16217e-06 0)
(1.52875e-05 6.72081e-06 0)
(1.51871e-05 7.21463e-06 0)
(1.51348e-05 7.65819e-06 0)
(1.51239e-05 8.06171e-06 0)
(1.51479e-05 8.43404e-06 0)
(1.5202e-05 8.7819e-06 0)
(1.52804e-05 9.11167e-06 0)
(1.54381e-05 9.44635e-06 0)
(1.52547e-05 4.55888e-06 -1.297e-20)
(1.48885e-05 5.32486e-06 0)
(1.46095e-05 5.94336e-06 0)
(1.4403e-05 6.47486e-06 0)
(1.42613e-05 6.9378e-06 0)
(1.41748e-05 7.35e-06 0)
(1.41343e-05 7.72275e-06 0)
(1.41321e-05 8.06533e-06 0)
(1.41621e-05 8.38457e-06 0)
(1.42176e-05 8.68673e-06 0)
(1.43722e-05 9.00528e-06 0)
(1.45318e-05 4.3255e-06 -2.3101e-20)
(1.40657e-05 5.08423e-06 0)
(1.37189e-05 5.67522e-06 0)
(1.34614e-05 6.17365e-06 0)
(1.32796e-05 6.60121e-06 0)
(1.316e-05 6.97846e-06 0)
(1.30913e-05 7.31738e-06 0)
(1.3064e-05 7.62756e-06 0)
(1.30711e-05 7.91586e-06 0)
(1.31048e-05 8.18828e-06 0)
(1.3258e-05 8.49104e-06 0)
(1.37577e-05 4.07478e-06 -3.77055e-20)
(1.31913e-05 4.80573e-06 0)
(1.27784e-05 5.35846e-06 0)
(1.24724e-05 5.81716e-06 0)
(1.22535e-05 6.20495e-06 0)
(1.21037e-05 6.54407e-06 0)
(1.20094e-05 6.84669e-06 0)
(1.19594e-05 7.12243e-06 0)
(1.19457e-05 7.37803e-06 0)
(1.19598e-05 7.61907e-06 0)
(1.21132e-05 7.90661e-06 0)
(1.29336e-05 3.8125e-06 -5.6143e-20)
(1.22721e-05 4.49337e-06 0)
(1.17979e-05 4.99612e-06 0)
(1.14482e-05 5.40821e-06 0)
(1.11964e-05 5.75207e-06 0)
(1.10205e-05 6.05042e-06 0)
(1.0904e-05 6.31492e-06 0)
(1.08345e-05 6.5549e-06 0)
(1.08029e-05 6.77671e-06 0)
(1.08002e-05 6.98531e-06 0)
(1.09554e-05 7.25796e-06 0)
(1.20615e-05 3.54376e-06 -7.69742e-20)
(1.1316e-05 4.15221e-06 0)
(1.07886e-05 4.59327e-06 0)
(1.04018e-05 4.9521e-06 0)
(1.01227e-05 5.24827e-06 0)
(9.92533e-06 5.50378e-06 0)
(9.79093e-06 5.72908e-06 0)
(9.70572e-06 5.93277e-06 0)
(9.65945e-06 6.1205e-06 0)
(9.64322e-06 6.29594e-06 0)
(9.80103e-06 6.5536e-06 0)
(1.80815e-05 5.37137e-06 -2.53778e-21)
(1.82108e-05 5.89095e-06 -1.40962e-21)
(1.81951e-05 6.55913e-06 -1.54155e-21)
(1.81844e-05 7.17912e-06 -1.66971e-21)
(1.81951e-05 7.74978e-06 -1.79089e-21)
(1.82333e-05 8.27687e-06 -1.90591e-21)
(1.83012e-05 8.76722e-06 -2.01589e-21)
(1.83984e-05 9.22775e-06 -2.12195e-21)
(1.85239e-05 9.66426e-06 -2.15436e-21)
(1.86748e-05 1.00822e-05 -1.60792e-21)
(1.88496e-05 1.04839e-05 -5.53837e-22)
(1.76788e-05 5.17007e-06 -3.79615e-21)
(1.76236e-05 5.86757e-06 0)
(1.75774e-05 6.53151e-06 0)
(1.75528e-05 7.14237e-06 0)
(1.75557e-05 7.70027e-06 0)
(1.75882e-05 8.21203e-06 0)
(1.76502e-05 8.68518e-06 0)
(1.77401e-05 9.12727e-06 0)
(1.7856e-05 9.54448e-06 0)
(1.79955e-05 9.94271e-06 0)
(1.8167e-05 1.03268e-05 0)
(1.71307e-05 5.08479e-06 -3.89213e-21)
(1.70157e-05 5.79758e-06 0)
(1.69222e-05 6.45539e-06 0)
(1.68622e-05 7.05344e-06 0)
(1.6838e-05 7.59502e-06 0)
(1.6849e-05 8.08861e-06 0)
(1.68923e-05 8.54242e-06 0)
(1.69651e-05 8.96446e-06 0)
(1.70643e-05 9.36114e-06 0)
(1.71864e-05 9.73872e-06 0)
(1.73534e-05 1.0106e-05 0)
(1.65501e-05 4.94671e-06 -4.53365e-21)
(1.63628e-05 5.68284e-06 0)
(1.62128e-05 6.33219e-06 0)
(1.6108e-05 6.9127e-06 0)
(1.60479e-05 7.43269e-06 0)
(1.60292e-05 7.90343e-06 0)
(1.60472e-05 8.33404e-06 0)
(1.6097e-05 8.73292e-06 0)
(1.61749e-05 9.10664e-06 0)
(1.6276e-05 9.46158e-06 0)
(1.64381e-05 9.81258e-06 0)
(1.59267e-05 4.76855e-06 -7.09765e-21)
(1.56548e-05 5.52502e-06 0)
(1.54422e-05 6.16217e-06 0)
(1.52875e-05 6.72081e-06 0)
(1.51871e-05 7.21463e-06 0)
(1.51348e-05 7.65819e-06 0)
(1.51239e-05 8.06171e-06 0)
(1.51479e-05 8.43404e-06 0)
(1.5202e-05 8.7819e-06 0)
(1.52804e-05 9.11167e-06 0)
(1.54381e-05 9.44635e-06 0)
(1.52547e-05 4.55888e-06 -1.297e-20)
(1.48885e-05 5.32486e-06 0)
(1.46095e-05 5.94336e-06 0)
(1.4403e-05 6.47486e-06 0)
(1.42613e-05 6.9378e-06 0)
(1.41748e-05 7.35e-06 0)
(1.41343e-05 7.72275e-06 0)
(1.41321e-05 8.06533e-06 0)
(1.41621e-05 8.38457e-06 0)
(1.42176e-05 8.68673e-06 0)
(1.43722e-05 9.00528e-06 0)
(1.45318e-05 4.3255e-06 -2.3101e-20)
(1.40657e-05 5.08423e-06 0)
(1.37189e-05 5.67522e-06 0)
(1.34614e-05 6.17365e-06 0)
(1.32796e-05 6.60121e-06 0)
(1.316e-05 6.97846e-06 0)
(1.30913e-05 7.31738e-06 0)
(1.3064e-05 7.62756e-06 0)
(1.30711e-05 7.91586e-06 0)
(1.31048e-05 8.18828e-06 0)
(1.3258e-05 8.49104e-06 0)
(1.37577e-05 4.07478e-06 -3.77055e-20)
(1.31913e-05 4.80573e-06 0)
(1.27784e-05 5.35846e-06 0)
(1.24724e-05 5.81716e-06 0)
(1.22535e-05 6.20495e-06 0)
(1.21037e-05 6.54407e-06 0)
(1.20094e-05 6.84669e-06 0)
(1.19594e-05 7.12243e-06 0)
(1.19457e-05 7.37803e-06 0)
(1.19598e-05 7.61907e-06 0)
(1.21132e-05 7.90661e-06 0)
(1.29336e-05 3.8125e-06 -5.6143e-20)
(1.22721e-05 4.49337e-06 0)
(1.17979e-05 4.99612e-06 0)
(1.14482e-05 5.40821e-06 0)
(1.11964e-05 5.75207e-06 0)
(1.10205e-05 6.05042e-06 0)
(1.0904e-05 6.31492e-06 0)
(1.08345e-05 6.5549e-06 0)
(1.08029e-05 6.77671e-06 0)
(1.08002e-05 6.98531e-06 0)
(1.09554e-05 7.25796e-06 0)
(1.20615e-05 3.54376e-06 -7.69742e-20)
(1.1316e-05 4.15221e-06 0)
(1.07886e-05 4.59327e-06 0)
(1.04018e-05 4.9521e-06 0)
(1.01227e-05 5.24827e-06 0)
(9.92533e-06 5.50378e-06 0)
(9.79093e-06 5.72908e-06 0)
(9.70572e-06 5.93277e-06 0)
(9.65945e-06 6.1205e-06 0)
(9.64322e-06 6.29594e-06 0)
(9.80103e-06 6.5536e-06 0)
(1.90484e-05 1.08741e-05 4.43044e-22)
(1.92677e-05 1.12582e-05 1.33974e-21)
(1.95041e-05 1.16366e-05 2.14734e-21)
(1.97559e-05 1.2011e-05 2.86721e-21)
(2.00216e-05 1.23829e-05 3.50731e-21)
(2.02996e-05 1.27537e-05 4.0739e-21)
(2.05886e-05 1.31244e-05 4.57357e-21)
(2.08873e-05 1.34958e-05 5.01203e-21)
(2.11946e-05 1.38687e-05 5.39444e-21)
(2.15096e-05 1.42438e-05 5.72487e-21)
(2.18312e-05 1.46216e-05 6.00706e-21)
(2.21586e-05 1.50025e-05 6.24378e-21)
(2.24909e-05 1.53868e-05 6.4373e-21)
(2.28273e-05 1.5775e-05 6.58917e-21)
(2.31669e-05 1.61671e-05 6.70066e-21)
(2.35088e-05 1.65632e-05 6.77263e-21)
(2.38522e-05 1.6963e-05 6.80692e-21)
(2.41961e-05 1.73662e-05 6.80602e-21)
(2.45392e-05 1.77717e-05 6.77411e-21)
(2.46524e-05 1.80244e-05 -1.52745e-21)
(1.83792e-05 1.07053e-05 0)
(1.86173e-05 1.10813e-05 0)
(1.88693e-05 1.14523e-05 0)
(1.91338e-05 1.18203e-05 0)
(1.94096e-05 1.21867e-05 0)
(1.96957e-05 1.25527e-05 0)
(1.9991e-05 1.29193e-05 0)
(2.02946e-05 1.32873e-05 0)
(2.06056e-05 1.36576e-05 0)
(2.09231e-05 1.40305e-05 0)
(2.12466e-05 1.44067e-05 0)
(2.15751e-05 1.47866e-05 0)
(2.19081e-05 1.51705e-05 0)
(2.22448e-05 1.55586e-05 0)
(2.25847e-05 1.59512e-05 0)
(2.2927e-05 1.63483e-05 0)
(2.32711e-05 1.67496e-05 0)
(2.36165e-05 1.71546e-05 0)
(2.39625e-05 1.75625e-05 0)
(2.4307e-05 1.79711e-05 -9.87618e-21)
(1.75861e-05 1.04769e-05 0)
(1.78532e-05 1.08503e-05 0)
(1.81304e-05 1.12189e-05 0)
(1.84165e-05 1.15848e-05 0)
(1.8711e-05 1.19497e-05 0)
(1.90131e-05 1.23146e-05 0)
(1.93223e-05 1.26805e-05 0)
(1.96378e-05 1.30484e-05 0)
(1.99591e-05 1.34188e-05 0)
(2.02857e-05 1.37924e-05 0)
(2.0617e-05 1.41697e-05 0)
(2.09525e-05 1.4551e-05 0)
(2.12919e-05 1.49368e-05 0)
(2.16345e-05 1.53272e-05 0)
(2.198e-05 1.57226e-05 0)
(2.23279e-05 1.61228e-05 0)
(2.26777e-05 1.65279e-05 0)
(2.3029e-05 1.69374e-05 0)
(2.33812e-05 1.73506e-05 0)
(2.37305e-05 1.77656e-05 -9.96007e-21)
(1.66965e-05 1.01804e-05 0)
(1.69997e-05 1.05573e-05 0)
(1.73089e-05 1.09293e-05 0)
(1.76233e-05 1.12986e-05 0)
(1.79429e-05 1.16667e-05 0)
(1.82671e-05 1.20348e-05 0)
(1.85958e-05 1.24041e-05 0)
(1.89287e-05 1.27754e-05 0)
(1.92655e-05 1.31495e-05 0)
(1.9606e-05 1.35268e-05 0)
(1.99499e-05 1.3908e-05 0)
(2.0297e-05 1.42936e-05 0)
(2.06469e-05 1.46838e-05 0)
(2.09994e-05 1.5079e-05 0)
(2.13544e-05 1.54794e-05 0)
(2.17114e-05 1.58852e-05 0)
(2.20703e-05 1.62964e-05 0)
(2.24305e-05 1.67129e-05 0)
(2.27914e-05 1.71345e-05 0)
(2.31481e-05 1.75596e-05 -1.00924e-20)
(1.57262e-05 9.81544e-06 0)
(1.60712e-05 1.02016e-05 0)
(1.64181e-05 1.05826e-05 0)
(1.67662e-05 1.09602e-05 0)
(1.7116e-05 1.13363e-05 0)
(1.74673e-05 1.1712e-05 0)
(1.78203e-05 1.20886e-05 0)
(1.81751e-05 1.2467e-05 0)
(1.85318e-05 1.2848e-05 0)
(1.88903e-05 1.32323e-05 0)
(1.92506e-05 1.36204e-05 0)
(1.96128e-05 1.40128e-05 0)
(1.99767e-05 1.44101e-05 0)
(2.03424e-05 1.48125e-05 0)
(2.07098e-05 1.52204e-05 0)
(2.10788e-05 1.5634e-05 0)
(2.14491e-05 1.60537e-05 0)
(2.18205e-05 1.64797e-05 0)
(2.21924e-05 1.69122e-05 0)
(2.25589e-05 1.73501e-05 -1.02705e-20)
(1.46933e-05 9.38004e-06 0)
(1.50844e-05 9.78161e-06 0)
(1.54732e-05 1.01773e-05 0)
(1.58589e-05 1.05684e-05 0)
(1.62429e-05 1.09573e-05 0)
(1.6625e-05 1.1345e-05 0)
(1.70061e-05 1.17331e-05 0)
(1.73863e-05 1.21223e-05 0)
(1.77661e-05 1.25138e-05 0)
(1.81457e-05 1.29082e-05 0)
(1.85255e-05 1.33063e-05 0)
(1.89055e-05 1.37085e-05 0)
(1.92861e-05 1.41154e-05 0)
(1.96674e-05 1.45275e-05 0)
(2.00495e-05 1.49452e-05 0)
(2.04324e-05 1.5369e-05 0)
(2.08162e-05 1.57994e-05 0)
(2.12006e-05 1.62369e-05 0)
(2.15853e-05 1.66822e-05 0)
(2.19638e-05 1.71347e-05 -1.04944e-20)
(1.36144e-05 8.87585e-06 0)
(1.40543e-05 9.29853e-06 0)
(1.44879e-05 9.71438e-06 0)
(1.49141e-05 1.01241e-05 0)
(1.53351e-05 1.05304e-05 0)
(1.57509e-05 1.09345e-05 0)
(1.61627e-05 1.1338e-05 0)
(1.65709e-05 1.17419e-05 0)
(1.69764e-05 1.21473e-05 0)
(1.73795e-05 1.25551e-05 0)
(1.77809e-05 1.2966e-05 0)
(1.8181e-05 1.33807e-05 0)
(1.85802e-05 1.37999e-05 0)
(1.89789e-05 1.42242e-05 0)
(1.93773e-05 1.4654e-05 0)
(1.97757e-05 1.509e-05 0)
(2.01743e-05 1.5533e-05 0)
(2.05731e-05 1.59839e-05 0)
(2.0972e-05 1.64434e-05 0)
(2.13644e-05 1.69117e-05 -1.07645e-20)
(1.2506e-05 8.30576e-06 0)
(1.29959e-05 8.75487e-06 0)
(1.34758e-05 9.19601e-06 0)
(1.39442e-05 9.6291e-06 0)
(1.44039e-05 1.00574e-05 0)
(1.48552e-05 1.0482e-05 0)
(1.52996e-05 1.09048e-05 0)
(1.57377e-05 1.13269e-05 0)
(1.61706e-05 1.17496e-05 0)
(1.6599e-05 1.21739e-05 0)
(1.70236e-05 1.26007e-05 0)
(1.74452e-05 1.30307e-05 0)
(1.78644e-05 1.34648e-05 0)
(1.82817e-05 1.39035e-05 0)
(1.86976e-05 1.43475e-05 0)
(1.91126e-05 1.47978e-05 0)
(1.9527e-05 1.5255e-05 0)
(1.99411e-05 1.57205e-05 0)
(2.0355e-05 1.61954e-05 0)
(2.0763e-05 1.66802e-05 -1.10814e-20)
(1.13843e-05 7.67515e-06 0)
(1.19237e-05 8.15548e-06 0)
(1.24501e-05 8.62627e-06 0)
(1.29611e-05 9.08706e-06 0)
(1.34603e-05 9.54113e-06 0)
(1.3948e-05 9.99001e-06 0)
(1.44259e-05 1.04356e-05 0)
(1.48949e-05 1.08793e-05 0)
(1.53563e-05 1.13225e-05 0)
(1.5811e-05 1.17663e-05 0)
(1.62599e-05 1.22118e-05 0)
(1.6704e-05 1.26597e-05 0)
(1.71441e-05 1.3111e-05 0)
(1.75808e-05 1.35665e-05 0)
(1.80149e-05 1.40269e-05 0)
(1.8447e-05 1.44931e-05 0)
(1.88778e-05 1.49661e-05 0)
(1.93077e-05 1.54474e-05 0)
(1.97374e-05 1.59382e-05 0)
(2.01622e-05 1.64397e-05 -1.14454e-20)
(1.0264e-05 6.99169e-06 0)
(1.08504e-05 7.50667e-06 0)
(1.14213e-05 8.01019e-06 0)
(1.19746e-05 8.50247e-06 0)
(1.25132e-05 8.98591e-06 0)
(1.30376e-05 9.4625e-06 0)
(1.35495e-05 9.93411e-06 0)
(1.40501e-05 1.04024e-05 0)
(1.45406e-05 1.08689e-05 0)
(1.50222e-05 1.1335e-05 0)
(1.5496e-05 1.18016e-05 0)
(1.59631e-05 1.22699e-05 0)
(1.64245e-05 1.27407e-05 0)
(1.6881e-05 1.3215e-05 0)
(1.73336e-05 1.36935e-05 0)
(1.77832e-05 1.41773e-05 0)
(1.82305e-05 1.46674e-05 0)
(1.86765e-05 1.51653e-05 0)
(1.91219e-05 1.56724e-05 0)
(1.95646e-05 1.61906e-05 -1.1857e-20)
(9.26941e-06 6.36998e-06 0)
(9.8907e-06 6.91475e-06 0)
(1.0495e-05 7.44496e-06 0)
(1.10811e-05 7.96387e-06 0)
(1.16506e-05 8.47284e-06 0)
(1.22045e-05 8.97394e-06 0)
(1.2744e-05 9.46892e-06 0)
(1.32704e-05 9.95948e-06 0)
(1.37848e-05 1.04472e-05 0)
(1.42886e-05 1.09333e-05 0)
(1.47828e-05 1.14191e-05 0)
(1.52688e-05 1.19055e-05 0)
(1.57475e-05 1.23937e-05 0)
(1.62202e-05 1.28843e-05 0)
(1.66877e-05 1.33784e-05 0)
(1.71511e-05 1.38767e-05 0)
(1.76116e-05 1.43805e-05 0)
(1.807e-05 1.48911e-05 0)
(1.85279e-05 1.54098e-05 0)
(1.89852e-05 1.59393e-05 -1.21913e-20)
(1.90484e-05 1.08741e-05 4.43044e-22)
(1.92677e-05 1.12582e-05 1.33974e-21)
(1.95041e-05 1.16366e-05 2.14734e-21)
(1.97559e-05 1.2011e-05 2.86721e-21)
(2.00216e-05 1.23829e-05 3.50731e-21)
(2.02996e-05 1.27537e-05 4.0739e-21)
(2.05886e-05 1.31244e-05 4.57357e-21)
(2.08873e-05 1.34958e-05 5.01203e-21)
(2.11946e-05 1.38687e-05 5.39444e-21)
(2.15096e-05 1.42438e-05 5.72487e-21)
(2.18312e-05 1.46216e-05 6.00706e-21)
(2.21586e-05 1.50025e-05 6.24378e-21)
(2.24909e-05 1.53868e-05 6.4373e-21)
(2.28273e-05 1.5775e-05 6.58917e-21)
(2.31669e-05 1.61671e-05 6.70066e-21)
(2.35088e-05 1.65632e-05 6.77263e-21)
(2.38522e-05 1.6963e-05 6.80692e-21)
(2.41961e-05 1.73662e-05 6.80602e-21)
(2.45392e-05 1.77717e-05 6.77411e-21)
(2.46524e-05 1.80244e-05 -1.52745e-21)
(1.83792e-05 1.07053e-05 0)
(1.86173e-05 1.10813e-05 0)
(1.88693e-05 1.14523e-05 0)
(1.91338e-05 1.18203e-05 0)
(1.94096e-05 1.21867e-05 0)
(1.96957e-05 1.25527e-05 0)
(1.9991e-05 1.29193e-05 0)
(2.02946e-05 1.32873e-05 0)
(2.06056e-05 1.36576e-05 0)
(2.09231e-05 1.40305e-05 0)
(2.12466e-05 1.44067e-05 0)
(2.15751e-05 1.47866e-05 0)
(2.19081e-05 1.51705e-05 0)
(2.22448e-05 1.55586e-05 0)
(2.25847e-05 1.59512e-05 0)
(2.2927e-05 1.63483e-05 0)
(2.32711e-05 1.67496e-05 0)
(2.36165e-05 1.71546e-05 0)
(2.39625e-05 1.75625e-05 0)
(2.4307e-05 1.79711e-05 -9.87618e-21)
(1.75861e-05 1.04769e-05 0)
(1.78532e-05 1.08503e-05 0)
(1.81304e-05 1.12189e-05 0)
(1.84165e-05 1.15848e-05 0)
(1.8711e-05 1.19497e-05 0)
(1.90131e-05 1.23146e-05 0)
(1.93223e-05 1.26805e-05 0)
(1.96378e-05 1.30484e-05 0)
(1.99591e-05 1.34188e-05 0)
(2.02857e-05 1.37924e-05 0)
(2.0617e-05 1.41697e-05 0)
(2.09525e-05 1.4551e-05 0)
(2.12919e-05 1.49368e-05 0)
(2.16345e-05 1.53272e-05 0)
(2.198e-05 1.57226e-05 0)
(2.23279e-05 1.61228e-05 0)
(2.26777e-05 1.65279e-05 0)
(2.3029e-05 1.69374e-05 0)
(2.33812e-05 1.73506e-05 0)
(2.37305e-05 1.77656e-05 -9.96007e-21)
(1.66965e-05 1.01804e-05 0)
(1.69997e-05 1.05573e-05 0)
(1.73089e-05 1.09293e-05 0)
(1.76233e-05 1.12986e-05 0)
(1.79429e-05 1.16667e-05 0)
(1.82671e-05 1.20348e-05 0)
(1.85958e-05 1.24041e-05 0)
(1.89287e-05 1.27754e-05 0)
(1.92655e-05 1.31495e-05 0)
(1.9606e-05 1.35268e-05 0)
(1.99499e-05 1.3908e-05 0)
(2.0297e-05 1.42936e-05 0)
(2.06469e-05 1.46838e-05 0)
(2.09994e-05 1.5079e-05 0)
(2.13544e-05 1.54794e-05 0)
(2.17114e-05 1.58852e-05 0)
(2.20703e-05 1.62964e-05 0)
(2.24305e-05 1.67129e-05 0)
(2.27914e-05 1.71345e-05 0)
(2.31481e-05 1.75596e-05 -1.00924e-20)
(1.57262e-05 9.81544e-06 0)
(1.60712e-05 1.02016e-05 0)
(1.64181e-05 1.05826e-05 0)
(1.67662e-05 1.09602e-05 0)
(1.7116e-05 1.13363e-05 0)
(1.74673e-05 1.1712e-05 0)
(1.78203e-05 1.20886e-05 0)
(1.81751e-05 1.2467e-05 0)
(1.85318e-05 1.2848e-05 0)
(1.88903e-05 1.32323e-05 0)
(1.92506e-05 1.36204e-05 0)
(1.96128e-05 1.40128e-05 0)
(1.99767e-05 1.44101e-05 0)
(2.03424e-05 1.48125e-05 0)
(2.07098e-05 1.52204e-05 0)
(2.10788e-05 1.5634e-05 0)
(2.14491e-05 1.60537e-05 0)
(2.18205e-05 1.64797e-05 0)
(2.21924e-05 1.69122e-05 0)
(2.25589e-05 1.73501e-05 -1.02705e-20)
(1.46933e-05 9.38004e-06 0)
(1.50844e-05 9.78161e-06 0)
(1.54732e-05 1.01773e-05 0)
(1.58589e-05 1.05684e-05 0)
(1.62429e-05 1.09573e-05 0)
(1.6625e-05 1.1345e-05 0)
(1.70061e-05 1.17331e-05 0)
(1.73863e-05 1.21223e-05 0)
(1.77661e-05 1.25138e-05 0)
(1.81457e-05 1.29082e-05 0)
(1.85255e-05 1.33063e-05 0)
(1.89055e-05 1.37085e-05 0)
(1.92861e-05 1.41154e-05 0)
(1.96674e-05 1.45275e-05 0)
(2.00495e-05 1.49452e-05 0)
(2.04324e-05 1.5369e-05 0)
(2.08162e-05 1.57994e-05 0)
(2.12006e-05 1.62369e-05 0)
(2.15853e-05 1.66822e-05 0)
(2.19638e-05 1.71347e-05 -1.04944e-20)
(1.36144e-05 8.87585e-06 0)
(1.40543e-05 9.29853e-06 0)
(1.44879e-05 9.71438e-06 0)
(1.49141e-05 1.01241e-05 0)
(1.53351e-05 1.05304e-05 0)
(1.57509e-05 1.09345e-05 0)
(1.61627e-05 1.1338e-05 0)
(1.65709e-05 1.17419e-05 0)
(1.69764e-05 1.21473e-05 0)
(1.73795e-05 1.25551e-05 0)
(1.77809e-05 1.2966e-05 0)
(1.8181e-05 1.33807e-05 0)
(1.85802e-05 1.37999e-05 0)
(1.89789e-05 1.42242e-05 0)
(1.93773e-05 1.4654e-05 0)
(1.97757e-05 1.509e-05 0)
(2.01743e-05 1.5533e-05 0)
(2.05731e-05 1.59839e-05 0)
(2.0972e-05 1.64434e-05 0)
(2.13644e-05 1.69117e-05 -1.07645e-20)
(1.2506e-05 8.30576e-06 0)
(1.29959e-05 8.75487e-06 0)
(1.34758e-05 9.19601e-06 0)
(1.39442e-05 9.6291e-06 0)
(1.44039e-05 1.00574e-05 0)
(1.48552e-05 1.0482e-05 0)
(1.52996e-05 1.09048e-05 0)
(1.57377e-05 1.13269e-05 0)
(1.61706e-05 1.17496e-05 0)
(1.6599e-05 1.21739e-05 0)
(1.70236e-05 1.26007e-05 0)
(1.74452e-05 1.30307e-05 0)
(1.78644e-05 1.34648e-05 0)
(1.82817e-05 1.39035e-05 0)
(1.86976e-05 1.43475e-05 0)
(1.91126e-05 1.47978e-05 0)
(1.9527e-05 1.5255e-05 0)
(1.99411e-05 1.57205e-05 0)
(2.0355e-05 1.61954e-05 0)
(2.0763e-05 1.66802e-05 -1.10814e-20)
(1.13843e-05 7.67515e-06 0)
(1.19237e-05 8.15548e-06 0)
(1.24501e-05 8.62627e-06 0)
(1.29611e-05 9.08706e-06 0)
(1.34603e-05 9.54113e-06 0)
(1.3948e-05 9.99001e-06 0)
(1.44259e-05 1.04356e-05 0)
(1.48949e-05 1.08793e-05 0)
(1.53563e-05 1.13225e-05 0)
(1.5811e-05 1.17663e-05 0)
(1.62599e-05 1.22118e-05 0)
(1.6704e-05 1.26597e-05 0)
(1.71441e-05 1.3111e-05 0)
(1.75808e-05 1.35665e-05 0)
(1.80149e-05 1.40269e-05 0)
(1.8447e-05 1.44931e-05 0)
(1.88778e-05 1.49661e-05 0)
(1.93077e-05 1.54474e-05 0)
(1.97374e-05 1.59382e-05 0)
(2.01622e-05 1.64397e-05 -1.14454e-20)
(1.0264e-05 6.99169e-06 0)
(1.08504e-05 7.50667e-06 0)
(1.14213e-05 8.01019e-06 0)
(1.19746e-05 8.50247e-06 0)
(1.25132e-05 8.98591e-06 0)
(1.30376e-05 9.4625e-06 0)
(1.35495e-05 9.93411e-06 0)
(1.40501e-05 1.04024e-05 0)
(1.45406e-05 1.08689e-05 0)
(1.50222e-05 1.1335e-05 0)
(1.5496e-05 1.18016e-05 0)
(1.59631e-05 1.22699e-05 0)
(1.64245e-05 1.27407e-05 0)
(1.6881e-05 1.3215e-05 0)
(1.73336e-05 1.36935e-05 0)
(1.77832e-05 1.41773e-05 0)
(1.82305e-05 1.46674e-05 0)
(1.86765e-05 1.51653e-05 0)
(1.91219e-05 1.56724e-05 0)
(1.95646e-05 1.61906e-05 -1.1857e-20)
(9.26941e-06 6.36998e-06 0)
(9.8907e-06 6.91475e-06 0)
(1.0495e-05 7.44496e-06 0)
(1.10811e-05 7.96387e-06 0)
(1.16506e-05 8.47284e-06 0)
(1.22045e-05 8.97394e-06 0)
(1.2744e-05 9.46892e-06 0)
(1.32704e-05 9.95948e-06 0)
(1.37848e-05 1.04472e-05 0)
(1.42886e-05 1.09333e-05 0)
(1.47828e-05 1.14191e-05 0)
(1.52688e-05 1.19055e-05 0)
(1.57475e-05 1.23937e-05 0)
(1.62202e-05 1.28843e-05 0)
(1.66877e-05 1.33784e-05 0)
(1.71511e-05 1.38767e-05 0)
(1.76116e-05 1.43805e-05 0)
(1.807e-05 1.48911e-05 0)
(1.85279e-05 1.54098e-05 0)
(1.89852e-05 1.59393e-05 -1.21913e-20)
(7.79648e-06 5.3318e-06 0)
(8.54484e-06 5.94367e-06 0)
(9.17817e-06 6.50101e-06 0)
(9.79429e-06 7.04325e-06 0)
(1.0393e-05 7.57516e-06 0)
(1.09752e-05 8.09762e-06 0)
(1.15417e-05 8.61236e-06 0)
(1.20935e-05 9.12089e-06 0)
(1.26317e-05 9.62464e-06 0)
(1.31573e-05 1.0125e-05 0)
(1.36715e-05 1.06231e-05 0)
(1.41754e-05 1.11201e-05 0)
(1.46703e-05 1.1617e-05 0)
(1.51571e-05 1.21145e-05 0)
(1.56371e-05 1.26137e-05 0)
(1.61113e-05 1.31151e-05 0)
(1.65807e-05 1.36198e-05 0)
(1.70467e-05 1.41285e-05 0)
(1.75104e-05 1.46425e-05 0)
(1.79733e-05 1.51629e-05 0)
(1.84368e-05 1.56923e-05 -1.22935e-20)
(7.26533e-06 5.01998e-06 0)
(7.98897e-06 5.62399e-06 0)
(8.61787e-06 6.18237e-06 0)
(9.23174e-06 6.72851e-06 0)
(9.82986e-06 7.266e-06 0)
(1.04129e-05 7.79529e-06 0)
(1.09811e-05 8.31759e-06 0)
(1.15353e-05 8.83406e-06 0)
(1.20762e-05 9.34581e-06 0)
(1.26048e-05 9.85395e-06 0)
(1.3122e-05 1.03595e-05 0)
(1.36289e-05 1.08633e-05 0)
(1.41265e-05 1.13662e-05 0)
(1.46158e-05 1.1869e-05 0)
(1.50979e-05 1.23723e-05 0)
(1.5574e-05 1.28769e-05 0)
(1.60451e-05 1.33834e-05 0)
(1.65125e-05 1.38926e-05 0)
(1.69774e-05 1.44053e-05 0)
(1.74417e-05 1.49223e-05 0)
(1.79065e-05 1.54454e-05 -1.22704e-20)
(6.79395e-06 4.7198e-06 0)
(7.49071e-06 5.31554e-06 0)
(8.10852e-06 5.8726e-06 0)
(8.71455e-06 6.42042e-06 0)
(9.30694e-06 6.96168e-06 0)
(9.88614e-06 7.49627e-06 0)
(1.04519e-05 8.0249e-06 0)
(1.10048e-05 8.54832e-06 0)
(1.15452e-05 9.06731e-06 0)
(1.20738e-05 9.58267e-06 0)
(1.25915e-05 1.00951e-05 0)
(1.30992e-05 1.06055e-05 0)
(1.35976e-05 1.11143e-05 0)
(1.40879e-05 1.16221e-05 0)
(1.4571e-05 1.21296e-05 0)
(1.50479e-05 1.26373e-05 0)
(1.55198e-05 1.31455e-05 0)
(1.5988e-05 1.36549e-05 0)
(1.64536e-05 1.41661e-05 0)
(1.69187e-05 1.46793e-05 0)
(1.73844e-05 1.51955e-05 -1.22571e-20)
(6.37367e-06 4.43367e-06 0)
(7.04191e-06 5.01918e-06 0)
(7.64475e-06 5.57279e-06 0)
(8.23879e-06 6.12048e-06 0)
(8.8215e-06 6.66393e-06 0)
(9.39309e-06 7.20244e-06 0)
(9.9529e-06 7.73623e-06 0)
(1.05012e-05 8.26562e-06 0)
(1.10382e-05 8.79101e-06 0)
(1.15643e-05 9.31292e-06 0)
(1.20802e-05 9.83182e-06 0)
(1.25866e-05 1.03482e-05 0)
(1.30842e-05 1.08625e-05 0)
(1.3574e-05 1.13752e-05 0)
(1.40568e-05 1.18867e-05 0)
(1.45336e-05 1.23972e-05 0)
(1.50055e-05 1.2907e-05 0)
(1.54736e-05 1.34165e-05 0)
(1.59395e-05 1.39258e-05 0)
(1.6405e-05 1.44349e-05 0)
(1.68711e-05 1.49441e-05 -1.2254e-20)
(5.99722e-06 4.16251e-06 0)
(6.6363e-06 4.73674e-06 0)
(7.22127e-06 5.28524e-06 0)
(7.8002e-06 5.83114e-06 0)
(8.37012e-06 6.37517e-06 0)
(8.93106e-06 6.91615e-06 0)
(9.48204e-06 7.4538e-06 0)
(1.00231e-05 7.98801e-06 0)
(1.05541e-05 8.51884e-06 0)
(1.10755e-05 9.04645e-06 0)
(1.15876e-05 9.57107e-06 0)
(1.20909e-05 1.0093e-05 0)
(1.25861e-05 1.06124e-05 0)
(1.3074e-05 1.11295e-05 0)
(1.35554e-05 1.16445e-05 0)
(1.40311e-05 1.21577e-05 0)
(1.45022e-05 1.26689e-05 0)
(1.49698e-05 1.31783e-05 0)
(1.54353e-05 1.36856e-05 0)
(1.59005e-05 1.41905e-05 0)
(1.63663e-05 1.46927e-05 -1.22617e-20)
(5.65707e-06 3.90633e-06 0)
(6.26718e-06 4.46843e-06 0)
(6.83246e-06 5.01053e-06 0)
(7.39411e-06 5.55327e-06 0)
(7.94897e-06 6.09654e-06 0)
(8.49692e-06 6.63869e-06 0)
(9.03674e-06 7.17901e-06 0)
(9.56831e-06 7.71695e-06 0)
(1.00913e-05 8.25222e-06 0)
(1.0606e-05 8.78467e-06 0)
(1.11124e-05 9.31425e-06 0)
(1.16111e-05 9.84096e-06 0)
(1.21026e-05 1.03648e-05 0)
(1.25874e-05 1.08859e-05 0)
(1.30663e-05 1.14042e-05 0)