/*--------------------------------*- C++ -*----------------------------------*\
  =========                 |
  \\      /  F ield         | OpenFOAM: The Open Source CFD Toolbox
   \\    /   O peration     | Website:  https://openfoam.org
    \\  /    A nd           | Version:  9
     \\/     M anipulation  |
\*---------------------------------------------------------------------------*/
FoamFile
{
    format      ascii;
    class       volSymmTensorField;
    location    "15";
    object      sigma;
}
// * * * * * * * * * * * * * * * * * * * * * * * * * * * * * * * * * * * * * //

dimensions      [1 -1 -2 0 0 0 0];

internalField   nonuniform List<symmTensor> 
1000
(
(1.8366e+06 -1.26077e+06 -6.0631e-10 1.06829e+06 -8.79683e-10 249671)
(2.15345e+06 -973181 -3.88394e-10 582046 -6.06648e-10 205840)
(2.31622e+06 -747491 -2.27724e-10 355847 -4.17577e-10 187479)
(2.3868e+06 -576967 -1.14537e-10 175148 -2.78037e-10 169732)
(2.4139e+06 -438891 -2.6746e-11 70153.9 -1.72362e-10 159270)
(2.40552e+06 -330863 3.74701e-11 -8468.94 -9.2598e-11 150079)
(2.38252e+06 -242741 8.76218e-11 -59042 -3.04664e-11 143552)
(2.34596e+06 -172592 1.24814e-10 -95568.2 1.70149e-11 137940)
(2.30801e+06 -114205 1.54734e-10 -119571 5.5159e-11 133732)
(2.25726e+06 -65537.6 1.7669e-10 -142485 8.56679e-11 128898)
(2.32318e+06 -1.40236e+06 -6.19174e-10 1.08263e+06 -9.33661e-10 273688)
(2.53601e+06 -1.00732e+06 -3.50393e-10 609752 -5.99964e-10 227932)
(2.62738e+06 -720724 -1.62512e-10 406776 -3.79364e-10 209908)
(2.63898e+06 -515354 -3.66174e-11 234974 -2.22817e-10 190883)
(2.62072e+06 -357006 5.69304e-11 138216 -1.08537e-10 179529)
(2.57464e+06 -238759 1.21761e-10 63063.1 -2.56154e-11 169065)
(2.52084e+06 -145987 1.70115e-10 14863.5 3.67043e-11 161387)
(2.45868e+06 -75436.4 2.03607e-10 -23034.9 8.24376e-11 154334)
(2.39683e+06 -18171 2.29184e-10 -46106 1.17706e-10 149048)
(2.32813e+06 27693.1 2.46501e-10 -77233.5 1.45786e-10 142214)
(2.84283e+06 -1.49157e+06 -5.95364e-10 1.05048e+06 -9.44854e-10 293994)
(2.92884e+06 -1.00775e+06 -2.90134e-10 626340 -5.68843e-10 249547)
(2.93e+06 -672105 -8.50069e-11 461132 -3.27823e-10 232663)
(2.87281e+06 -439387 4.76776e-11 310957 -1.61526e-10 213432)
(2.80239e+06 -266714 1.42364e-10 228469 -4.38455e-11 201557)
(2.71484e+06 -142568 2.04635e-10 161247 3.85437e-11 190156)
(2.62822e+06 -48841.2 2.48637e-10 117941 9.81461e-11 181504)
(2.53913e+06 19633.8 2.76728e-10 80767.1 1.4014e-10 173183)
(2.4553e+06 72933.4 2.96497e-10 58754.2 1.70801e-10 166892)
(2.36779e+06 116270 3.09278e-10 22793.8 1.96172e-10 158461)
(3.38846e+06 -1.5165e+06 -5.28544e-10 974391 -9.06287e-10 310737)
(3.32117e+06 -973064 -2.08271e-10 638785 -5.14072e-10 271080)
(3.21986e+06 -603460 3.04963e-12 521103 -2.64775e-10 255796)
(3.08486e+06 -353152 1.3528e-10 402665 -9.71084e-11 237098)
(2.95705e+06 -173606 2.25763e-10 338708 1.81117e-11 224895)
(2.8252e+06 -48822.4 2.81829e-10 282030 9.59499e-11 212686)
(2.70438e+06 41800.7 3.18763e-10 244082 1.49983e-10 202997)
(2.58883e+06 105595 3.39917e-10 207982 1.86514e-10 193442)
(2.48371e+06 152685 3.52566e-10 185374 2.11334e-10 185933)
(2.38062e+06 191006 3.59802e-10 146824 2.32366e-10 176323)
(3.91779e+06 -1.47215e+06 -4.22427e-10 836343 -8.16163e-10 319538)
(3.70227e+06 -895063 -1.01437e-10 643329 -4.30712e-10 291623)
(3.4885e+06 -515091 1.0008e-10 581418 -1.90528e-10 278195)
(3.27188e+06 -258326 2.24594e-10 506753 -3.0561e-11 261260)
(3.08226e+06 -82193.5 3.03898e-10 465455 7.45482e-11 248907)
(2.90509e+06 36571.2 3.49525e-10 421911 1.43049e-10 236085)
(2.75018e+06 118896 3.76193e-10 389547 1.88062e-10 225323)
(2.6094e+06 174533 3.88441e-10 354388 2.16953e-10 214528)
(2.48514e+06 212834 3.9267e-10 329570 2.34593e-10 205662)
(2.36846e+06 244039 3.93367e-10 288355 2.50077e-10 194932)
(4.438e+06 -1.34632e+06 -3.65886e-10 711838 -6.7645e-10 332826)
(4.07234e+06 -776105 2.89909e-11 642848 -3.20633e-10 311530)
(3.73761e+06 -403138 2.0901e-10 657232 -1.04134e-10 301976)
(3.43318e+06 -156748 3.14411e-10 625412 3.65881e-11 286143)
(3.17896e+06 4045.78 3.74768e-10 609411 1.23162e-10 273682)
(2.9563e+06 108167 4.0456e-10 577488 1.76786e-10 259923)
(2.76869e+06 176570 4.17664e-10 549184 2.09354e-10 247880)
(2.60488e+06 220430 4.19073e-10 513295 2.28592e-10 235686)
(2.46404e+06 247853 4.13943e-10 484229 2.38125e-10 225294)
(2.33626e+06 270263 4.07431e-10 439842 2.47218e-10 213480)
(4.8942e+06 -1.10978e+06 -3.76267e-10 590478 -4.71815e-10 347483)
(4.40544e+06 -602441 1.28395e-10 644323 -1.78916e-10 331840)
(3.95151e+06 -262386 3.30701e-10 750537 -3.70504e-12 326694)
(3.556e+06 -50694.1 4.01419e-10 761378 1.01437e-10 311442)
(3.23949e+06 80161.6 4.34078e-10 767443 1.60395e-10 298365)
(2.97548e+06 159622 4.42385e-10 742745 1.93377e-10 283161)
(2.76008e+06 208487 4.39121e-10 714396 2.10677e-10 269466)
(2.57772e+06 237417 4.28368e-10 674768 2.18903e-10 255660)
(2.42434e+06 252815 4.13742e-10 638920 2.20206e-10 243595)
(2.28844e+06 265671 3.9999e-10 590349 2.22777e-10 230700)
(5.36232e+06 -813547 -3.11823e-10 515239 -2.31335e-10 368849)
(4.70686e+06 -369605 2.7954e-10 703116 -7.00721e-12 358493)
(4.12653e+06 -92435.5 4.65345e-10 889088 1.07512e-10 355797)
(3.64078e+06 53008.1 4.81709e-10 928883 1.5787e-10 338943)
(3.26859e+06 137070 4.76968e-10 941990 1.8036e-10 323382)
(2.97094e+06 182981 4.5926e-10 913291 1.88773e-10 305527)
(2.7347e+06 208830 4.38393e-10 876682 1.90045e-10 289404)
(2.53966e+06 222074 4.15818e-10 828372 1.87825e-10 273619)
(2.37836e+06 226515 3.93013e-10 782784 1.82336e-10 259740)
(2.23767e+06 230847 3.7315e-10 728963 1.79472e-10 245805)
(5.68964e+06 -349959 1.1407e-11 457883 1.277e-10 385241)
(4.93046e+06 -69632.3 5.76642e-10 872621 1.92162e-10 394309)
(4.20322e+06 76191.7 5.85374e-10 1.09807e+06 2.01395e-10 389210)
(3.64611e+06 123687 5.29996e-10 1.13143e+06 1.81695e-10 366630)
(3.24416e+06 149980 4.84476e-10 1.12104e+06 1.66183e-10 345730)
(2.93249e+06 159887 4.41913e-10 1.07042e+06 1.52134e-10 323821)
(2.68992e+06 164956 4.06861e-10 1.01514e+06 1.41283e-10 304660)
(2.49165e+06 166016 3.75996e-10 953277 1.32298e-10 286778)
(2.3286e+06 163797 3.48592e-10 896391 1.23561e-10 271245)
(2.18671e+06 162955 3.25244e-10 837311 1.1778e-10 256492)
(6.21618e+06 355481 6.259e-10 744482 6.07194e-10 456566)
(5.01891e+06 362643 8.92036e-10 1.32582e+06 4.33679e-10 463295)
(4.19704e+06 231776 6.86784e-10 1.42627e+06 2.65885e-10 433904)
(3.6244e+06 151995 5.48636e-10 1.37515e+06 1.70471e-10 397769)
(3.22007e+06 119247 4.64796e-10 1.2891e+06 1.24451e-10 366057)
(2.9098e+06 103677 4.05875e-10 1.19514e+06 9.86734e-11 338208)
(2.66848e+06 98329.9 3.64028e-10 1.11048e+06 8.44316e-11 315128)
(2.47102e+06 95988.9 3.30897e-10 1.03293e+06 7.50764e-11 295191)
(2.30804e+06 93842 3.03363e-10 965952 6.75551e-11 278344)
(2.16549e+06 92608.6 2.7962e-10 904056 6.17843e-11 263185)
(-8546.37 3032.94 -3.37505e-11 -4811.79 -1.72536e-11 1206.88)
(6511.26 -10481 -4.09549e-11 942.264 -2.63824e-11 2983.03)
(67466.2 -33135 -5.43926e-11 -3345.11 -4.13316e-11 8373.27)
(165175 -51289.8 -6.39004e-11 -6916.56 -5.32019e-11 17424.9)
(278743 -62494.4 -6.83139e-11 -8788.89 -6.04174e-11 28206.2)
(397954 -68865.2 -6.93606e-11 -9689.05 -6.44033e-11 39651.7)
(514715 -71349.2 -6.78941e-11 -9865.75 -6.58069e-11 50948.7)
(626289 -71502.9 -6.50028e-11 -9521.27 -6.56716e-11 61802.4)
(728627 -69610.1 -5.77644e-11 -9313.99 -6.20252e-11 70525.8)
(824112 -68200.3 -4.22228e-11 -7705.12 -5.31803e-11 75484.1)
(11014.8 -11215 -4.15969e-11 -852.434 -2.68283e-11 3277.92)
(89830.5 -61316.8 -6.48284e-11 37875.2 -6.09645e-11 13409.4)
(204185 -116660 -9.65553e-11 39574.1 -9.78016e-11 24143.8)
(325520 -158959 -1.22095e-10 27649.9 -1.2562e-10 34642.1)
(447451 -184980 -1.37254e-10 16136.8 -1.42548e-10 45374.1)
(563326 -199547 -1.45148e-10 5698.89 -1.51841e-10 55701.8)
(670834 -204780 -1.46962e-10 -2345.77 -1.54949e-10 65481.3)
(770519 -204579 -1.34938e-10 -7969.43 -1.47847e-10 70914)
(858479 -199073 -1.18129e-10 -12786.2 -1.36192e-10 74717.2)
(941948 -194683 -1.0262e-10 -13207.6 -1.26162e-10 78856.5)
(34288.2 -55627.8 -6.27235e-11 37668.7 -5.72737e-11 8053.66)
(172303 -153286 -1.13611e-10 81693 -1.23226e-10 23907.8)
(330222 -221782 -1.53772e-10 75770.8 -1.68623e-10 38177.1)
(475203 -267643 -1.83809e-10 46490.1 -1.98433e-10 49626.3)
(608569 -292915 -2.00782e-10 19300.3 -2.14524e-10 60289.6)
(726156 -304872 -2.03811e-10 -4329.8 -2.18327e-10 67808.6)
(829656 -306593 -1.89333e-10 -22125.2 -2.08635e-10 70587)
(921933 -301916 -1.72521e-10 -34971.1 -1.96236e-10 73544.1)
(999087 -291386 -1.54347e-10 -44730.6 -1.81607e-10 76236.1)
(1.07378e+06 -282529 -1.3746e-10 -47590.5 -1.69087e-10 79684)
(82498.7 -125315 -9.09075e-11 126323 -1.05576e-10 18815)
(283827 -263511 -1.71073e-10 138263 -1.97897e-10 38027.3)
(477600 -335450 -2.15366e-10 114803 -2.45175e-10 54419.9)
(642983 -375755 -2.44367e-10 67259.6 -2.70859e-10 66518)
(786205 -392580 -2.48403e-10 25448.2 -2.74645e-10 73460.6)
(905787 -396014 -2.32853e-10 -10621.2 -2.62615e-10 74625.8)
(1.00565e+06 -389524 -2.14027e-10 -38415.8 -2.46651e-10 76031.8)
(1.0913e+06 -377226 -1.93652e-10 -59019.7 -2.28882e-10 77752.9)
(1.15834e+06 -359989 -1.72979e-10 -74619.4 -2.10004e-10 79273.7)
(1.22512e+06 -345428 -1.53834e-10 -80902.5 -1.9399e-10 81961.6)
(164806 -223803 -1.29614e-10 256185 -1.73899e-10 35744.8)
(433400 -383432 -2.32737e-10 200481 -2.79088e-10 56180.5)
(656953 -448002 -2.76827e-10 145268 -3.2074e-10 73128.4)
(836567 -474936 -2.90815e-10 74484.6 -3.30468e-10 81221.5)
(984218 -477106 -2.70559e-10 17478.7 -3.12808e-10 81060.4)
(1.10142e+06 -466867 -2.47118e-10 -30399.1 -2.9058e-10 80754.6)
(1.1949e+06 -448658 -2.22165e-10 -66732.5 -2.66426e-10 80891.2)
(1.27213e+06 -426248 -1.96929e-10 -93576.7 -2.41967e-10 81519.9)
(1.32818e+06 -400982 -1.73047e-10 -113649 -2.18197e-10 82023.4)
(1.38639e+06 -379506 -1.50976e-10 -122323 -1.98065e-10 84069.6)
(292029 -353246 -1.8158e-10 417202 -2.63465e-10 59113.7)
(625744 -504905 -2.93071e-10 269903 -3.61367e-10 79015.7)
(873076 -549181 -3.29405e-10 174192 -3.87944e-10 95024.5)
(1.06021e+06 -556184 -3.06802e-10 77991.5 -3.65611e-10 91634.5)
(1.20565e+06 -539382 -2.75399e-10 6324.87 -3.33909e-10 89710.9)
(1.31533e+06 -513076 -2.4334e-10 -51708.1 -3.00526e-10 87928.5)
(1.39864e+06 -481694 -2.11909e-10 -94874.3 -2.6774e-10 86850.9)
(1.46444e+06 -448294 -1.81703e-10 -126465 -2.36439e-10 86445.4)
(1.50763e+06 -414757 -1.54732e-10 -150021 -2.07891e-10 85971.3)
(1.55542e+06 -386009 -1.29781e-10 -160264 -1.83654e-10 87397)
(472932 -512215 -2.48791e-10 590473 -3.72924e-10 88356.2)
(860285 -623113 -3.49812e-10 341862 -4.41418e-10 106167)
(1.12252e+06 -633395 -3.42835e-10 201909 -4.25652e-10 109835)
(1.30835e+06 -613201 -3.04069e-10 79008.9 -3.82375e-10 103269)
(1.44452e+06 -574326 -2.60657e-10 -6298.86 -3.35293e-10 99410.8)
(1.54108e+06 -530651 -2.20006e-10 -72937.5 -2.90551e-10 96093.8)
(1.61001e+06 -485738 -1.82488e-10 -121134 -2.49459e-10 93834.1)
(1.66089e+06 -441518 -1.47925e-10 -155995 -2.11894e-10 92412.1)
(1.6893e+06 -400263 -1.18476e-10 -181710 -1.79249e-10 91030.6)
(1.72417e+06 -364469 -9.11574e-11 -192881 -1.51342e-10 91792.7)
(715557 -694796 -3.30215e-10 758313 -4.97949e-10 122968)
(1.13512e+06 -733422 -3.99027e-10 413631 -5.15111e-10 136725)
(1.39934e+06 -696299 -3.38809e-10 232723 -4.47308e-10 126700)
(1.57378e+06 -642873 -2.81645e-10 85298 -3.80201e-10 116827)
(1.69361e+06 -579780 -2.25942e-10 -11427.2 -3.17181e-10 111002)
(1.7715e+06 -518526 -1.77384e-10 -84815.3 -2.61623e-10 106122)
(1.82212e+06 -460755 -1.34771e-10 -136552 -2.13177e-10 102670)
(1.85491e+06 -406904 -9.70491e-11 -173312 -1.70561e-10 100237)
(1.86692e+06 -359250 -6.61856e-11 -200888 -1.34863e-10 97888.6)
(1.88638e+06 -317316 -3.74285e-11 -212216 -1.04186e-10 97951.4)
(1.0245e+06 -890053 -4.21806e-10 902587 -6.3085e-10 162123)
(1.44626e+06 -831644 -4.10971e-10 480257 -5.61332e-10 159478)
(1.69581e+06 -736192 -3.17433e-10 267940 -4.52593e-10 145431)
(1.84757e+06 -645039 -2.40728e-10 100987 -3.60221e-10 132405)
(1.94379e+06 -556532 -1.73041e-10 -3540.82 -2.81504e-10 124742)
(1.99763e+06 -478322 -1.17749e-10 -81545.3 -2.16245e-10 118302)
(2.02645e+06 -408929 -7.13068e-11 -134853 -1.61784e-10 113726)
(2.03788e+06 -347407 -3.2133e-11 -173051 -1.15743e-10 110153)
(2.03277e+06 -294931 -9.15092e-13 -201175 -7.82449e-11 106952)
(2.03365e+06 -247984 2.80411e-11 -215710 -4.54616e-11 105745)
(1.40024e+06 -1.0843e+06 -5.17082e-10 1.01002e+06 -7.62199e-10 204984)
(1.78794e+06 -913006 -4.07943e-10 538210 -5.92816e-10 182844)
(2.00378e+06 -753010 -2.79888e-10 309289 -4.42357e-10 165850)
(2.12076e+06 -621877 -1.83958e-10 130508 -3.25142e-10 150108)
(2.18578e+06 -507977 -1.0538e-10 22805 -2.31919e-10 140837)
(2.21043e+06 -413930 -4.47846e-11 -56950.8 -1.58466e-10 132941)
(2.21396e+06 -334596 3.93822e-12 -110341 -9.95693e-11 127239)
(2.20192e+06 -267575 4.29361e-11 -147724 -5.19777e-11 122686)
(2.17967e+06 -213137 7.27013e-11 -178096 -1.43772e-11 118369)
(2.15926e+06 -165883 9.86517e-11 -188900 1.63737e-11 116600)
(909519 -63314.2 -2.61023e-11 -7703.32 -4.27069e-11 79781.5)
(984726 -56531.5 -1.03393e-11 -6007.48 -3.20402e-11 83821.1)
(1.05369e+06 -50626.2 3.91407e-12 -4793.64 -2.24274e-11 87476.4)
(1.11564e+06 -45259.4 1.67538e-11 -3891.14 -1.37291e-11 90736.6)
(1.17159e+06 -40278.4 2.84321e-11 -3000.32 -5.79449e-12 93692.1)
(1.22167e+06 -35814.1 3.8888e-11 -2346.51 1.32895e-12 96319.4)
(1.26659e+06 -31716.9 4.83249e-11 -1722.12 7.77551e-12 98682.2)
(1.30661e+06 -28019 5.67592e-11 -1239.6 1.35583e-11 100778)
(1.34223e+06 -24626.3 6.43292e-11 -813.038 1.87724e-11 102644)
(1.37369e+06 -21516.7 7.10853e-11 -479.924 2.34581e-11 104289)
(1.40132e+06 -18622.5 7.71196e-11 -208.186 2.76836e-11 105733)
(1.42531e+06 -15902.7 8.24862e-11 -8.97579 3.14935e-11 106985)
(1.44583e+06 -13304.9 8.72442e-11 126.627 3.49355e-11 108054)
(1.46299e+06 -10790.8 9.14337e-11 196.394 3.80446e-11 108948)
(1.47682e+06 -8328.94 9.50798e-11 199.048 4.08451e-11 109667)
(1.48743e+06 -5916.38 9.81987e-11 144.998 4.33451e-11 110219)
(1.49475e+06 -3587.47 1.00763e-10 32.1193 4.55191e-11 110599)
(1.49913e+06 -1474.93 1.02741e-10 -52.5132 4.72963e-11 110833)
(1.50055e+06 145.16 1.03963e-10 -39.7706 4.84864e-11 110928)
(1.50042e+06 528.432 1.04195e-10 775.229 4.86346e-11 111033)
(1.00913e+06 -181368 -8.41427e-11 -17074.9 -1.11217e-10 81862.3)
(1.06457e+06 -163319 -6.44536e-11 -16683.9 -9.46286e-11 84907.8)
(1.11802e+06 -147408 -4.63764e-11 -15295.9 -7.97376e-11 87955.7)
(1.16573e+06 -132549 -2.98418e-11 -14588.2 -6.59496e-11 90616.3)
(1.20998e+06 -118617 -1.44024e-11 -13253 -5.3141e-11 93174.2)
(1.24979e+06 -106016 -4.76516e-13 -12370.5 -4.15366e-11 95434.8)
(1.28617e+06 -94346.2 1.2349e-11 -11305.7 -3.086e-11 97536.2)
(1.31886e+06 -83740.1 2.39464e-11 -10496.7 -2.11698e-11 99407.1)
(1.34839e+06 -73949.7 3.45536e-11 -9716.87 -1.22833e-11 101106)
(1.37477e+06 -64936.5 4.41931e-11 -9113.29 -4.1573e-12 102616)
(1.3983e+06 -56530.7 5.30178e-11 -8609.11 3.33713e-12 103963)
(1.41907e+06 -48636.2 6.11e-11 -8241.7 1.0275e-11 105149)
(1.43725e+06 -41123.9 6.85461e-11 -7973.67 1.67519e-11 106188)
(1.45294e+06 -33905.4 7.54278e-11 -7783.81 2.28328e-11 107089)
(1.46623e+06 -26910.7 8.18018e-11 -7618.15 2.85645e-11 107866)
(1.47725e+06 -20139 8.76909e-11 -7364.15 3.39461e-11 108538)
(1.48599e+06 -13671 9.30469e-11 -6874.19 3.89066e-11 109124)
(1.49272e+06 -7789.04 9.77423e-11 -5769.62 4.3238e-11 109682)
(1.49715e+06 -2914.34 1.01482e-10 -3559.61 4.65812e-11 110258)
(1.5e+06 -320.033 1.0361e-10 1050.05 4.80068e-11 111037)
(1.12463e+06 -262530 -1.17367e-10 -52739.7 -1.5096e-10 81806)
(1.15997e+06 -237907 -9.66723e-11 -51542.7 -1.31824e-10 84052.2)
(1.19802e+06 -215812 -7.70673e-11 -46959 -1.1452e-10 86839.7)
(1.23092e+06 -195284 -5.92512e-11 -43952.6 -9.85066e-11 89144.6)
(1.26307e+06 -175722 -4.21242e-11 -39655.6 -8.3344e-11 91567.8)
(1.29195e+06 -157951 -2.66258e-11 -36337.4 -6.95295e-11 93676.8)
(1.3192e+06 -141319 -1.20803e-11 -32827.5 -5.66284e-11 95714)
(1.34392e+06 -126113 1.18295e-12 -29936.7 -4.48134e-11 97525.4)
(1.36676e+06 -111989 1.34834e-11 -27281.3 -3.38459e-11 99198.3)
(1.38747e+06 -98943.3 2.47804e-11 -25109.5 -2.3716e-11 100687)
(1.40632e+06 -86762.2 3.52502e-11 -23294.5 -1.42741e-11 102026)
(1.42329e+06 -75342.3 4.4953e-11 -21886 -5.44803e-12 103208)
(1.43852e+06 -64528.9 5.40075e-11 -20811.5 2.86825e-12 104252)
(1.45208e+06 -54214.5 6.24905e-11 -20014.2 1.07441e-11 105170)
(1.46403e+06 -44304.2 7.04736e-11 -19369 1.82343e-11 105982)
(1.47447e+06 -34763.5 7.7999e-11 -18648.6 2.53439e-11 106725)
(1.48334e+06 -25615.4 8.50462e-11 -17526.5 3.20136e-11 107437)
(1.49081e+06 -17005.6 9.15659e-11 -15339.4 3.80867e-11 108211)
(1.49622e+06 -9195.71 9.73098e-11 -11155.7 4.3226e-11 109133)
(1.50021e+06 -2532.4 1.02192e-10 -3345.86 4.70691e-11 110443)
(1.25969e+06 -319803 -1.32784e-10 -87830.6 -1.7332e-10 83122.4)
(1.27362e+06 -291583 -1.13151e-10 -87128.9 -1.53565e-10 84293.4)
(1.29571e+06 -265558 -9.35135e-11 -80100.6 -1.35298e-10 86664)
(1.31263e+06 -241803 -7.61246e-11 -75839.9 -1.18651e-10 88386)
(1.33175e+06 -218680 -5.87458e-11 -69154 -1.02515e-10 90525)
(1.34857e+06 -197675 -4.30583e-11 -63916.9 -8.78074e-11 92331.5)
(1.36566e+06 -177772 -2.80048e-11 -58267.1 -7.38527e-11 94190.2)
(1.38136e+06 -159491 -1.41852e-11 -53496.9 -6.09864e-11 95842.6)
(1.39654e+06 -142395 -1.18485e-12 -49057.5 -4.89092e-11 97410.2)
(1.41063e+06 -126544 1.08644e-11 -45326.2 -3.76659e-11 98814)
(1.42392e+06 -111707 2.21525e-11 -42139.6 -2.70978e-11 100093)
(1.43624e+06 -97790 3.27095e-11 -39571 -1.71497e-11 101230)
(1.44769e+06 -84629.5 4.26544e-11 -37525.9 -7.71547e-12 102246)
(1.45823e+06 -72105.2 5.20603e-11 -35926.9 1.27384e-12 103150)
(1.46789e+06 -60096.8 6.10042e-11 -34607.2 9.87868e-12 103966)
(1.4767e+06 -48514.3 6.95547e-11 -33280.5 1.81294e-11 104735)
(1.48446e+06 -37298.6 7.77252e-11 -31549.8 2.60024e-11 105500)
(1.49132e+06 -26377.6 8.55951e-11 -28666.8 3.34709e-11 106367)
(1.49633e+06 -15843.9 9.298e-11 -23674.1 4.02834e-11 107412)
(1.50031e+06 -4930.93 1.00512e-10 -14840.1 4.68168e-11 108914)
(1.40463e+06 -349485 -1.29713e-10 -129619 -1.75832e-10 84434.6)
(1.39629e+06 -321133 -1.13425e-10 -129570 -1.57803e-10 84419.1)
(1.40272e+06 -293491 -9.51244e-11 -119198 -1.4018e-10 86473.2)
(1.4033e+06 -269131 -7.98401e-11 -113497 -1.24686e-10 87582.4)
(1.40936e+06 -244665 -6.35793e-11 -103945 -1.091e-10 89467.2)
(1.4138e+06 -222536 -4.90511e-11 -96375.9 -9.49675e-11 90980.6)
(1.42045e+06 -201250 -3.46943e-11 -88135 -8.12828e-11 92679.6)
(1.42673e+06 -181593 -2.14229e-11 -81015.4 -6.85765e-11 94191.6)
(1.43382e+06 -163061 -8.73241e-12 -74344.8 -5.64931e-11 95669.5)
(1.44082e+06 -145784 3.14853e-12 -68622.5 -4.51385e-11 97001.6)
(1.44802e+06 -129546 1.4402e-11 -63678.3 -3.43642e-11 98227.7)
(1.45511e+06 -114276 2.50237e-11 -59612.4 -2.41372e-11 99320.3)
(1.46212e+06 -99815.7 3.51178e-11 -56327.9 -1.43621e-11 100296)
(1.46897e+06 -86035.5 4.47519e-11 -53742 -4.97031e-12 101163)
(1.47558e+06 -72788.7 5.40096e-11 -51674.4 4.10841e-12 101943)
(1.48193e+06 -59912.5 6.29936e-11 -49825.5 1.29453e-11 102676)
(1.48774e+06 -47259.9 7.17618e-11 -47790 2.15682e-11 103405)
(1.49311e+06 -34517.5 8.05331e-11 -44845.9 3.01073e-11 104231)
(1.49702e+06 -21675.6 8.91734e-11 -40143.9 3.83854e-11 105216)
(1.50034e+06 -7037.86 9.88984e-11 -32057.7 4.74111e-11 106638)
(1.55697e+06 -353126 -1.09302e-10 -167497 -1.60951e-10 86983)
(1.52541e+06 -328292 -9.87963e-11 -169809 -1.46945e-10 85460.7)
(1.51652e+06 -301249 -8.31636e-11 -156533 -1.31353e-10 87126.9)
(1.50043e+06 -278681 -7.15321e-11 -150192 -1.1853e-10 87469.7)
(1.49342e+06 -254863 -5.7637e-11 -138415 -1.04738e-10 88988.6)
(1.48529e+06 -233404 -4.54167e-11 -128973 -9.23305e-11 90114.9)
(1.48127e+06 -212383 -3.28208e-11 -118587 -7.99735e-11 91562)
(1.47788e+06 -192811 -2.10476e-11 -109392 -6.83829e-11 92864.7)
(1.47653e+06 -174187 -9.55821e-12 -100693 -5.71891e-11 94190.5)
(1.47605e+06 -156688 1.34974e-12 -93062.2 -4.65412e-11 95405)
(1.47672e+06 -140144 1.18237e-11 -86373.3 -3.63193e-11 96539.6)
(1.47811e+06 -124502 2.18296e-11 -80760.9 -2.65086e-11 97556.9)
(1.48018e+06 -109630 3.14444e-11 -76164.7 -1.70319e-11 98464.9)
(1.48276e+06 -95393.5 4.07277e-11 -72531.9 -7.82022e-12 99263.7)
(1.48574e+06 -81631.3 4.97603e-11 -69715.5 1.20443e-12 99968.5)
(1.489e+06 -68118.4 5.86745e-11 -67465.1 1.01547e-11 100610)
(1.49227e+06 -54639.3 6.75635e-11 -65439.3 1.91088e-11 101223)
(1.49556e+06 -40674.2 7.67629e-11 -63050.5 2.83437e-11 101890)
(1.498e+06 -26157 8.61929e-11 -59642.3 3.7754e-11 102656)
(1.50026e+06 -8677.33 9.74751e-11 -53868 4.88355e-11 103764)
(1.70949e+06 -330731 -7.26216e-11 -199242 -1.29552e-10 90700.5)
(1.6548e+06 -313360 -7.03664e-11 -205936 -1.21937e-10 87357.3)
(1.6317e+06 -289225 -5.8681e-11 -190884 -1.09677e-10 88511.6)
(1.59944e+06 -270724 -5.20497e-11 -184628 -1.00903e-10 87986.3)
(1.57978e+06 -249681 -4.17878e-11 -171532 -9.01698e-11 89012.9)
(1.55951e+06 -230602 -3.28752e-11 -160494 -8.05501e-11 89713.5)
(1.54496e+06 -211459 -2.30234e-11 -148269 -7.05389e-11 90853.2)
(1.53206e+06 -193295 -1.3544e-11 -137068 -6.09172e-11 91927.4)
(1.52225e+06 -175778 -4.00088e-12 -126410 -5.1398e-11 93075.2)
(1.51426e+06 -159099 5.2809e-12 -116887 -4.21479e-11 94153)
(1.50824e+06 -143193 1.43654e-11 -108475 -3.31136e-11 95172.7)
(1.50371e+06 -128035 2.31913e-11 -101338 -2.43008e-11 96089.3)
(1.50056e+06 -113539 3.17965e-11 -95469.8 -1.56619e-11 96899.4)
(1.49854e+06 -99575.3 4.02225e-11 -90859.9 -7.1337e-12 97594.2)
(1.4975e+06 -85982 4.85471e-11 -87417.7 1.36697e-12 98179.7)
(1.49728e+06 -72489 5.69169e-11 -84977.2 9.98622e-12 98673.5)
(1.49763e+06 -58835 6.54608e-11 -83298.7 1.88482e-11 99098.3)
(1.49845e+06 -44348 7.45855e-11 -81998.1 2.83443e-11 99508.6)
(1.4992e+06 -28938.5 8.42731e-11 -80634.3 3.84375e-11 99936.6)
(1.50013e+06 -9728.66 9.63589e-11 -78312 5.0947e-11 100551)
(1.85607e+06 -283968 -2.1536e-11 -219004 -8.39296e-11 96024.6)
(1.77983e+06 -277910 -2.97093e-11 -232086 -8.48832e-11 90624)
(1.74386e+06 -259177 -2.33608e-11 -217982 -7.71762e-11 90942.9)
(1.69695e+06 -246273 -2.24564e-11 -212369 -7.32724e-11 89530.4)
(1.66517e+06 -229900 -1.69553e-11 -199805 -6.65921e-11 89823.1)
(1.63376e+06 -214537 -1.20437e-11 -188280 -6.04295e-11 89984.1)
(1.60902e+06 -198744 -5.81849e-12 -175451 -5.35669e-11 90652)
(1.58705e+06 -183275 6.21575e-13 -163093 -4.66294e-11 91390.8)
(1.56894e+06 -168072 7.48242e-12 -151090 -3.94991e-11 92271.1)
(1.55355e+06 -153284 1.44862e-11 -140027 -3.23044e-11 93157.5)
(1.54085e+06 -138961 2.15944e-11 -130051 -2.50631e-11 94028.7)
(1.53036e+06 -125118 2.87207e-11 -121414 -1.77973e-11 94828.3)
(1.52189e+06 -111728 3.58482e-11 -114216 -1.04943e-11 95533.1)
(1.51515e+06 -98694.5 4.29918e-11 -108547 -3.10455e-12 96119.2)
(1.50993e+06 -85877.9 5.02086e-11 -104415 4.44963e-12 96577.4)
(1.50604e+06 -72997.7 5.76392e-11 -101791 1.2331e-11 96904.8)
(1.5033e+06 -59777.8 6.54311e-11 -100573 2.06969e-11 97110.3)
(1.50147e+06 -45463.5 7.4018e-11 -100638 3.00114e-11 97208.7)
(1.50047e+06 -29963.8 8.3448e-11 -101764 4.03029e-11 97226.3)
(1.49994e+06 -10164.9 9.55985e-11 -103639 5.35617e-11 97228.2)
(1.99179e+06 -217369 4.04605e-11 -222926 -2.79423e-11 103153)
(1.89622e+06 -224697 2.0897e-11 -243358 -3.85369e-11 95650.3)
(1.84834e+06 -215217 1.95543e-11 -236601 -3.71091e-11 94292.6)
(1.78963e+06 -209007 1.44734e-11 -232583 -3.84471e-11 91995)
(1.74626e+06 -199258 1.4057e-11 -222003 -3.69002e-11 91363.2)
(1.70525e+06 -188527 1.46303e-11 -210288 -3.46361e-11 91009.7)
(1.6711e+06 -176850 1.68697e-11 -197122 -3.13305e-11 91198.9)
(1.64093e+06 -164656 2.00394e-11 -183909 -2.73519e-11 91598.4)
(1.61515e+06 -152284 2.39874e-11 -170946 -2.28545e-11 92184.8)
(1.59284e+06 -139915 2.84509e-11 -158810 -1.79695e-11 92835.2)
(1.57378e+06 -127708 3.32928e-11 -147758 -1.27905e-11 93502.8)
(1.55752e+06 -115730 3.8397e-11 -138094 -7.36564e-12 94124.7)
(1.5438e+06 -104001 4.37075e-11 -129996 -1.7093e-12 94664.3)
(1.53231e+06 -92459.7 4.92124e-11 -123642 4.21327e-12 95084.5)
(1.52287e+06 -80990 5.49521e-11 -119140 1.0475e-11 95362.6)
(1.51519e+06 -69324.4 6.10494e-11 -116609 1.72438e-11 95474)
(1.50925e+06 -57191.4 6.76644e-11 -116103 2.4702e-11 95413.2)
(1.50465e+06 -43818.7 7.5214e-11 -117783 3.33455e-11 95150.5)
(1.50186e+06 -29115.6 8.38243e-11 -121659 4.32746e-11 94708.9)
(1.49975e+06 -9949.56 9.52583e-11 -128094 5.6507e-11 94028.5)
(2.1049e+06 -131858 1.10922e-10 -215157 3.7282e-11 110949)
(2.00781e+06 -148121 8.56623e-11 -231575 2.01895e-11 103772)
(1.94645e+06 -151864 7.38024e-11 -238927 1.33583e-11 99721.2)
(1.8811e+06 -153300 6.28693e-11 -240306 7.0254e-12 96285.1)
(1.8262e+06 -152459 5.50499e-11 -236168 2.44866e-12 94118.4)
(1.77613e+06 -148942 4.97009e-11 -228021 -4.1206e-13 92750.9)
(1.73247e+06 -143568 4.65378e-11 -216935 -1.84126e-12 92110.3)
(1.69393e+06 -136639 4.51506e-11 -204366 -1.97833e-12 91938.2)
(1.66038e+06 -128632 4.52083e-11 -191121 -1.05801e-12 92116.8)
(1.63113e+06 -119904 4.63697e-11 -178073 7.27531e-13 92492.4)
(1.60581e+06 -110740 4.83894e-11 -165766 3.21912e-12 92971.9)
(1.58394e+06 -101345 5.1057e-11 -154707 6.29923e-12 93462)
(1.56515e+06 -91841.2 5.42376e-11 -145253 9.89868e-12 93897.5)
(1.5491e+06 -82257.4 5.78512e-11 -137736 1.40059e-11 94216.3)
(1.53557e+06 -72546.2 6.18892e-11 -132411 1.86635e-11 94375.2)
(1.52421e+06 -62498.8 6.64252e-11 -129577 2.40156e-11 94321.5)
(1.51512e+06 -51886 7.16083e-11 -129465 3.0247e-11 94032.1)
(1.50775e+06 -39992.2 7.77908e-11 -132551 3.78398e-11 93428.3)
(1.50314e+06 -26739.7 8.51759e-11 -139088 4.6963e-11 92529.3)
(1.49947e+06 -9181.68 9.52916e-11 -150133 5.95318e-11 91147.9)
(2.16917e+06 -61269.6 1.64937e-10 -191549 8.66735e-11 118188)
(2.07981e+06 -69807.6 1.45636e-10 -208685 7.54258e-11 111407)
(2.00951e+06 -85933.1 1.24565e-10 -225384 6.07287e-11 105522)
(1.94205e+06 -93503.7 1.094e-10 -232623 5.08369e-11 101132)
(1.88234e+06 -98840.5 9.69358e-11 -232868 4.22736e-11 98069.1)
(1.82766e+06 -101210 8.71633e-11 -228540 3.55707e-11 95893.4)
(1.77904e+06 -101247 7.9836e-11 -220338 3.0477e-11 94556.2)
(1.73544e+06 -99355.2 7.4512e-11 -209937 2.68304e-11 93780.9)
(1.69687e+06 -95902.1 7.09528e-11 -198192 2.44884e-11 93452.3)
(1.66274e+06 -91273.8 6.88072e-11 -186103 2.32594e-11 93404.3)
(1.63276e+06 -85770.4 6.78353e-11 -174337 2.29986e-11 93532)
(1.60649e+06 -79642.8 6.77999e-11 -163521 2.35739e-11 93727.6)
(1.58362e+06 -73064.6 6.85395e-11 -154139 2.49009e-11 93910.6)
(1.56378e+06 -66125.2 6.99341e-11 -146648 2.69423e-11 94002.1)
(1.54681e+06 -58838 7.19413e-11 -141440 2.97193e-11 93942)
(1.53233e+06 -51075.3 7.45764e-11 -138974 3.33389e-11 93654.3)
(1.52056e+06 -42676 7.79627e-11 -139654 3.7971e-11 93098.1)
(1.51082e+06 -33083.8 8.23291e-11 -144217 4.40117e-11 92152.3)
(1.50458e+06 -22248.4 8.7924e-11 -153153 5.16753e-11 90826.1)
(1.49941e+06 -7663.29 9.58952e-11 -168155 6.26078e-11 88812.4)
(2.13656e+06 8316.57 2.0353e-10 -165125 1.26861e-10 120983)
(2.06633e+06 -1602.15 1.85967e-10 -200971 1.1848e-10 112687)
(2.00167e+06 -21349.9 1.63505e-10 -218287 1.01938e-10 106952)
(1.94035e+06 -34265.9 1.45924e-10 -228073 8.93272e-11 102459)
(1.88504e+06 -44449.1 1.31099e-10 -230059 7.81335e-11 99320)
(1.83365e+06 -51664.3 1.188e-10 -227336 6.86914e-11 97030.8)
(1.78722e+06 -56328.2 1.08915e-10 -220603 6.08947e-11 95546.4)
(1.74487e+06 -58853.9 1.01023e-10 -211494 5.45829e-11 94603.7)
(1.7068e+06 -59572 9.49341e-11 -200849 4.9652e-11 94098)
(1.67254e+06 -58848.5 9.03338e-11 -189671 4.59361e-11 93871)
(1.64198e+06 -56973.2 8.70113e-11 -178641 4.33125e-11 93823.7)
(1.61479e+06 -54203.8 8.47444e-11 -168425 4.16594e-11 93849.2)
(1.59078e+06 -50726.8 8.33784e-11 -159548 4.08979e-11 93867)
(1.56966e+06 -46667.8 8.27839e-11 -152529 4.09813e-11 93794)
(1.55136e+06 -42075.3 8.29095e-11 -147823 4.19227e-11 93565.5)
(1.53557e+06 -36908.2 8.37234e-11 -145989 4.37878e-11 93094.2)
(1.5226e+06 -31053.6 8.53338e-11 -147526 4.67345e-11 92331.9)
(1.51177e+06 -24164.1 8.78371e-11 -153319 5.10384e-11 91134.4)
(1.50488e+06 -16259.3 9.14825e-11 -164048 5.69158e-11 89500.9)
(1.49914e+06 -5586.83 9.68946e-11 -181653 6.55134e-11 87065.1)
(2.11196e+06 78081.3 2.4355e-10 -133844 1.67286e-10 124811)
(2.04721e+06 62309.9 2.23096e-10 -175486 1.56169e-10 115950)
(1.99243e+06 38974.1 1.9985e-10 -196940 1.3857e-10 110114)
(1.93591e+06 21741.7 1.80249e-10 -211200 1.24029e-10 105215)
(1.885e+06 7467.3 1.63496e-10 -216984 1.10942e-10 101742)
(1.83628e+06 -3894.44 1.48975e-10 -217675 9.93791e-11 99081.9)
(1.79182e+06 -12577.9 1.36849e-10 -213810 8.94221e-11 97264.5)
(1.75059e+06 -19030.6 1.26651e-10 -207121 8.08884e-11 96007)
(1.7131e+06 -23513.8 1.18284e-10 -198444 7.37449e-11 95221.4)
(1.67895e+06 -26374 1.11451e-10 -188846 6.78514e-11 94744.1)
(1.64816e+06 -27876.7 1.05978e-10 -179059 6.31186e-11 94476.5)
(1.62047e+06 -28276.5 1.01654e-10 -169817 5.94412e-11 94306.6)
(1.59579e+06 -27770.1 9.83299e-11 -161716 5.6748e-11 94148.8)
(1.57388e+06 -26511.7 9.58672e-11 -155347 5.49878e-11 93912.9)
(1.55471e+06 -24590.8 9.41935e-11 -151253 5.41601e-11 93524.8)
(1.53807e+06 -22049.4 9.3237e-11 -150064 5.42909e-11 92890.6)
(1.52428e+06 -18832.6 9.30736e-11 -152418 5.55196e-11 91944.8)
(1.51272e+06 -14852.1 9.36451e-11 -159196 5.79521e-11 90542.5)
(1.50541e+06 -10077.3 9.52639e-11 -171170 6.1868e-11 88682.5)
(1.49908e+06 -3468.14 9.80334e-11 -190740 6.79566e-11 85905)
(2.06832e+06 132226 2.70884e-10 -107524 1.96342e-10 126834)
(2.0122e+06 116061 2.51422e-10 -153865 1.86238e-10 117781)
(1.96664e+06 91603.8 2.28849e-10 -177933 1.68982e-10 112045)
(1.91642e+06 72322.3 2.0889e-10 -195167 1.53963e-10 107041)
(1.87113e+06 55363.7 1.91288e-10 -203571 1.39881e-10 103467)
(1.82659e+06 41032.5 1.75523e-10 -206699 1.2699e-10 100655)
(1.78549e+06 29185 1.61912e-10 -205027 1.1548e-10 98674.2)
(1.74676e+06 19507.8 1.50065e-10 -200296 1.05253e-10 97240.3)
(1.71113e+06 11806.5 1.39959e-10 -193331 9.63374e-11 96279.2)
(1.67829e+06 5796.56 1.31348e-10 -185208 8.86427e-11 95630.4)
(1.64837e+06 1249.01 1.24099e-10 -176672 8.2115e-11 95200.6)
(1.6212e+06 -2070.69 1.18026e-10 -168484 7.66723e-11 94878.3)
(1.59676e+06 -4356.16 1.12994e-10 -161266 7.22564e-11 94578.8)