/*--------------------------------*- C++ -*----------------------------------*\
  =========                 |
  \\      /  F ield         | OpenFOAM: The Open Source CFD Toolbox
   \\    /   O peration     | Website:  https://openfoam.org
    \\  /    A nd           | Version:  9
     \\/     M anipulation  |
\*---------------------------------------------------------------------------*/
FoamFile
{
    format      ascii;
    class       volScalarField;
    location    "15";
    object      sigmaEq;
}
// * * * * * * * * * * * * * * * * * * * * * * * * * * * * * * * * * * * * * //

dimensions      [1 -1 -2 0 0 0 0];

internalField   nonuniform List<scalar> 
1000
(
2.58032e+06
2.4583e+06
2.4244e+06
2.42942e+06
2.42283e+06
2.40793e+06
2.3842e+06
2.35262e+06
2.31981e+06
2.27905e+06
3.01608e+06
2.7633e+06
2.63919e+06
2.58533e+06
2.53857e+06
2.4948e+06
2.44911e+06
2.40152e+06
2.35165e+06
2.30399e+06
3.4373e+06
3.05905e+06
2.8402e+06
2.72059e+06
2.6284e+06
2.55124e+06
2.48055e+06
2.41372e+06
2.34774e+06
2.28907e+06
3.84313e+06
3.34025e+06
3.02691e+06
2.83545e+06
2.6939e+06
2.57993e+06
2.48215e+06
2.39515e+06
2.31323e+06
2.24372e+06
4.22571e+06
3.60001e+06
3.19696e+06
2.93005e+06
2.73524e+06
2.58189e+06
2.45553e+06
2.34764e+06
2.25052e+06
2.16992e+06
4.56924e+06
3.84896e+06
3.34617e+06
3.00415e+06
2.75282e+06
2.55932e+06
2.40401e+06
2.27557e+06
2.16417e+06
2.07269e+06
4.82926e+06
4.06297e+06
3.46253e+06
3.04589e+06
2.74042e+06
2.50976e+06
2.32881e+06
2.18255e+06
2.05951e+06
1.9584e+06
5.11965e+06
4.23537e+06
3.53802e+06
3.05134e+06
2.70025e+06
2.44014e+06
2.24035e+06
2.08171e+06
1.95139e+06
1.84349e+06
5.30321e+06
4.3186e+06
3.51611e+06
2.97954e+06
2.61195e+06
2.34343e+06
2.14037e+06
1.9796e+06
1.84875e+06
1.73829e+06
5.65481e+06
4.23825e+06
3.40188e+06
2.87786e+06
2.53094e+06
2.27508e+06
2.08041e+06
1.92378e+06
1.79534e+06
1.68406e+06
10012.2
18798.1
87267.2
184150
291758
403387
512107
615899
711724
802244
22050
125890
265901
403108
526240
636414
733427
822444
899673
972917
100358
295424
472532
630364
762995
874619
968068
1.04741e+06
1.11024e+06
1.17065e+06
236387
504124
703388
869172
1.00344e+06
1.1133e+06
1.19953e+06
1.26945e+06
1.32019e+06
1.37021e+06
432508
741447
951869
1.1191e+06
1.24902e+06
1.34962e+06
1.42519e+06
1.48383e+06
1.5223e+06
1.56189e+06
688056
997885
1.20617e+06
1.37097e+06
1.48933e+06
1.57707e+06
1.6396e+06
1.68538e+06
1.71125e+06
1.73983e+06
997000
1.26938e+06
1.46435e+06
1.61558e+06
1.71821e+06
1.79041e+06
1.83814e+06
1.86983e+06
1.88293e+06
1.89972e+06
1.3515e+06
1.55266e+06
1.71768e+06
1.84649e+06
1.9292e+06
1.98357e+06
2.01543e+06
2.03234e+06
2.03334e+06
2.03751e+06
1.74069e+06
1.84955e+06
1.96334e+06
2.06031e+06
2.11847e+06
2.15262e+06
2.16736e+06
2.16895e+06
2.15826e+06
2.15043e+06
2.15443e+06
2.15243e+06
2.19909e+06
2.25448e+06
2.28281e+06
2.29358e+06
2.28965e+06
2.2745e+06
2.25483e+06
2.22988e+06
883591
954051
1.01928e+06
1.0782e+06
1.1315e+06
1.17942e+06
1.22245e+06
1.26088e+06
1.29512e+06
1.32542e+06
1.35206e+06
1.37523e+06
1.39507e+06
1.41169e+06
1.42512e+06
1.43545e+06
1.44263e+06
1.44693e+06
1.4483e+06
1.44766e+06
1.02958e+06
1.07219e+06
1.115e+06
1.15445e+06
1.19149e+06
1.2257e+06
1.25729e+06
1.28615e+06
1.31249e+06
1.33628e+06
1.35767e+06
1.37671e+06
1.39348e+06
1.40804e+06
1.4204e+06
1.43062e+06
1.43857e+06
1.44429e+06
1.44717e+06
1.44709e+06
1.20527e+06
1.22134e+06
1.24138e+06
1.26005e+06
1.27906e+06
1.29746e+06
1.31553e+06
1.33279e+06
1.34932e+06
1.36487e+06
1.37947e+06
1.39299e+06
1.40545e+06
1.41678e+06
1.42693e+06
1.43581e+06
1.44313e+06
1.44863e+06
1.45106e+06
1.45002e+06
1.38618e+06
1.37943e+06
1.37942e+06
1.3792e+06
1.38123e+06
1.38422e+06
1.38872e+06
1.39396e+06
1.40011e+06
1.40669e+06
1.41368e+06
1.42083e+06
1.42804e+06
1.43515e+06
1.44199e+06
1.44836e+06
1.45378e+06
1.45789e+06
1.45914e+06
1.45724e+06
1.56133e+06
1.53522e+06
1.51787e+06
1.50113e+06
1.48808e+06
1.47694e+06
1.46876e+06
1.46245e+06
1.45836e+06
1.45589e+06
1.455e+06
1.45536e+06
1.45681e+06
1.4591e+06
1.46198e+06
1.46516e+06
1.46808e+06
1.47032e+06
1.47036e+06
1.46802e+06
1.72447e+06
1.68212e+06
1.65017e+06
1.61918e+06
1.59323e+06
1.56959e+06
1.5501e+06
1.53324e+06
1.51962e+06
1.5085e+06
1.49991e+06
1.49345e+06
1.48895e+06
1.48613e+06
1.48468e+06
1.4843e+06
1.48445e+06
1.48471e+06
1.48386e+06
1.4817e+06
1.87138e+06
1.81582e+06
1.77246e+06
1.72937e+06
1.69284e+06
1.65837e+06
1.62894e+06
1.60259e+06
1.58022e+06
1.56105e+06
1.54516e+06
1.53214e+06
1.52183e+06
1.51391e+06
1.50812e+06
1.50414e+06
1.50154e+06
1.49993e+06
1.49858e+06
1.49714e+06
1.99835e+06
1.93245e+06
1.88142e+06
1.82816e+06
1.78338e+06
1.74021e+06
1.70258e+06
1.66827e+06
1.63826e+06
1.61188e+06
1.58923e+06
1.57e+06
1.55406e+06
1.54116e+06
1.53107e+06
1.52352e+06
1.51827e+06
1.51496e+06
1.51348e+06
1.51328e+06
2.10496e+06
2.02949e+06
1.97625e+06
1.91556e+06
1.86402e+06
1.81371e+06
1.76878e+06
1.72758e+06
1.69085e+06
1.65817e+06
1.62957e+06
1.60482e+06
1.58382e+06
1.56636e+06
1.55231e+06
1.54146e+06
1.5338e+06
1.52903e+06
1.52771e+06
1.52903e+06
2.18737e+06
2.10764e+06
2.05418e+06
1.99251e+06
1.93675e+06
1.88234e+06
1.83169e+06
1.78462e+06
1.7417e+06
1.70295e+06
1.66849e+06
1.63823e+06
1.61213e+06
1.59005e+06
1.57197e+06
1.55775e+06
1.54762e+06
1.54135e+06
1.54024e+06
1.54326e+06
2.22463e+06
2.14983e+06
2.09448e+06
2.03494e+06
1.97811e+06
1.92272e+06
1.87025e+06
1.82085e+06
1.77517e+06
1.73337e+06
1.69569e+06
1.66217e+06
1.63288e+06
1.60779e+06
1.587e+06
1.57048e+06
1.55869e+06
1.55148e+06
1.55069e+06
1.55514e+06
2.17285e+06
2.12788e+06
2.07686e+06
2.02438e+06
1.97266e+06
1.92155e+06
1.87245e+06
1.82554e+06
1.7816e+06
1.74086e+06
1.7037e+06
1.67026e+06
1.64074e+06
1.61522e+06
1.59394e+06
1.57698e+06
1.56498e+06
1.55788e+06
1.55796e+06
1.56387e+06
2.13258e+06
2.09504e+06
2.05425e+06
2.00804e+06
1.96218e+06
1.91534e+06
1.86973e+06
1.82542e+06
1.7834e+06
1.74398e+06
1.70765e+06
1.67465e+06
1.64527e+06
1.6197e+06
1.59827e+06
1.58118e+06
1.56919e+06
1.56231e+06
1.56303e+06
1.5699e+06
2.08128e+06
2.05368e+06
2.02153e+06
1.98184e+06
1.94187e+06
1.89969e+06
1.85807e+06
1.81697e+06
1.77756e+06
1.74019e+06
1.70544e+06
1.67362e+06
1.64511e+06
1.62017e+06
1.59918e+06
1.58246e+06
1.57075e+06
1.56432e+06
1.56576e+06
1.57317e+06
2.02161e+06
2.00235e+06
1.97849e+06
1.94573e+06
1.91212e+06
1.87523e+06
1.83822e+06
1.80098e+06
1.76485e+06
1.73018e+06
1.69767e+06
1.66768e+06
1.64064e+06
1.61688e+06
1.59677e+06
1.58085e+06
1.56942e+06
1.56412e+06
1.56339e+06
1.57363e+06
1.95681e+06
1.94522e+06
1.92893e+06
1.90286e+06
1.87539e+06
1.84389e+06
1.81169e+06
1.77865e+06
1.74619e+06
1.71472e+06
1.68496e+06
1.65733e+06
1.6323e+06
1.61022e+06
1.59158e+06
1.57669e+06
1.56647e+06
1.56113e+06
1.56291e+06
1.57012e+06
1.8884e+06
1.88346e+06
1.8739e+06
1.85423e+06
1.83268e+06
1.80661e+06
1.77935e+06
1.75076e+06
1.72231e+06
1.69441e+06
1.66783e+06
1.643e+06
1.62042e+06
1.60045e+06
1.58357e+06
1.5701e+06
1.5609e+06
1.55595e+06
1.55758e+06
1.56436e+06
1.81781e+06
1.81863e+06
1.81505e+06
1.80129e+06
1.7853e+06
1.76452e+06
1.74218e+06
1.71816e+06
1.69392e+06
1.66986e+06
1.64678e+06
1.62511e+06
1.60535e+06
1.58784e+06
1.57306e+06
1.56125e+06
1.5532e+06
1.5489e+06
1.55032e+06
1.55615e+06
1.74582e+06
1.7515e+06
1.75313e+06
1.74478e+06
1.73398e+06
1.71832e+06
1.70084e+06
1.68146e+06
1.66157e+06
1.64158e+06
1.62227e+06
1.60404e+06
1.5874e+06
1.57267e+06
1.56027e+06
1.55039e+06
1.54369e+06
1.54007e+06
1.54119e+06
1.54588e+06
1.67282e+06
1.68259e+06
1.68876e+06
1.68535e+06
1.67939e+06
1.66866e+06
1.65596e+06
1.64124e+06
1.6258e+06
1.61005e+06
1.59471e+06
1.58018e+06
1.56693e+06
1.55524e+06
1.54547e+06
1.53776e+06
1.53258e+06
1.52981e+06
1.53062e+06
1.53401e+06
1.59883e+06
1.61204e+06
1.62218e+06
1.6233e+06
1.62192e+06
1.61595e+06
1.60798e+06
1.59796e+06
1.58708e+06
1.57572e+06
1.56454e+06
1.55392e+06
1.54428e+06
1.53586e+06
1.52896e+06
1.52364e+06
1.52019e+06
1.51841e+06
1.51899e+06
1.52109e+06
1.5236e+06
1.53977e+06
1.55346e+06
1.55884e+06
1.56184e+06
1.56057e+06
1.55735e+06
1.5521e+06
1.5459e+06
1.53908e+06
1.53224e+06
1.52573e+06
1.51989e+06
1.51494e+06
1.51109e+06
1.50836e+06
1.50685e+06
1.50627e+06
1.50678e+06
1.50768e+06
1.44657e+06
1.46544e+06
1.48246e+06
1.49197e+06
1.49934e+06
1.50283e+06
1.50445e+06
1.50412e+06
1.50278e+06
1.50069e+06
1.49839e+06
1.49615e+06
1.49428e+06
1.49295e+06
1.49232e+06
1.49234e+06
1.49294e+06
1.49378e+06
1.49446e+06
1.4944e+06
1.36709e+06
1.38864e+06
1.40899e+06
1.42274e+06
1.43464e+06
1.44308e+06
1.44978e+06
1.45463e+06
1.45838e+06
1.46126e+06
1.46369e+06
1.4659e+06
1.46813e+06
1.47054e+06
1.47321e+06
1.47608e+06
1.47894e+06
1.48138e+06
1.48254e+06
1.48184e+06
1.28427e+06
1.30881e+06
1.33277e+06
1.35114e+06
1.36796e+06
1.38177e+06
1.39395e+06
1.40435e+06
1.41354e+06
1.42167e+06
1.42907e+06
1.43589e+06
1.44234e+06
1.44854e+06
1.45452e+06
1.46025e+06
1.46541e+06
1.46958e+06
1.47151e+06
1.47057e+06
1.19744e+06
1.22566e+06
1.25387e+06
1.27754e+06
1.29993e+06
1.31971e+06
1.33792e+06
1.35434e+06
1.36938e+06
1.38308e+06
1.39568e+06
1.40727e+06
1.41801e+06
1.42797e+06
1.4372e+06
1.44565e+06
1.45303e+06
1.4589e+06
1.46185e+06
1.4611e+06
1.1057e+06
1.13883e+06
1.17239e+06
1.20243e+06
1.23135e+06
1.25796e+06
1.28294e+06
1.30599e+06
1.32735e+06
1.347e+06
1.36505e+06
1.38155e+06
1.39659e+06
1.41024e+06
1.42252e+06
1.43342e+06
1.44272e+06
1.45005e+06
1.45411e+06
1.45393e+06
1.00966e+06
1.04946e+06
1.08986e+06
1.12762e+06
1.16422e+06
1.19859e+06
1.23107e+06
1.26133e+06
1.28944e+06
1.3153e+06
1.33896e+06
1.36042e+06
1.37971e+06
1.39687e+06
1.41191e+06
1.42486e+06
1.43558e+06
1.44385e+06
1.44873e+06
1.44926e+06
909702
958774
1.00815e+06
1.05538e+06
1.10104e+06
1.14423e+06
1.185e+06
1.223e+06
1.25821e+06
1.29051e+06
1.31988e+06
1.3463e+06
1.36975e+06
1.39023e+06
1.40771e+06
1.42218e+06
1.43354e+06
1.44178e+06
1.44647e+06
1.44737e+06
812513
873395
933584
991449
1.04699e+06
1.09941e+06
1.14865e+06
1.19436e+06
1.2365e+06
1.27498e+06
1.30977e+06
1.34084e+06
1.36817e+06
1.39169e+06
1.41129e+06
1.42686e+06
1.43818e+06
1.44536e+06
1.44819e+06
1.4479e+06
1.59011e+06
1.64296e+06
1.74422e+06
1.85781e+06
1.97411e+06
2.07604e+06
2.15651e+06
2.20989e+06
2.23687e+06
2.23068e+06
1.50375e+06
1.5537e+06
1.64884e+06
1.75862e+06
1.87592e+06
1.98466e+06
2.07757e+06
2.14656e+06
2.19003e+06
2.19723e+06
1.4259e+06
1.47353e+06
1.56243e+06
1.66573e+06
1.77832e+06
1.88546e+06
1.98117e+06
2.05888e+06
2.11772e+06
2.15077e+06
1.35454e+06
1.40081e+06
1.48509e+06
1.58329e+06
1.69221e+06
1.7981e+06
1.89503e+06
1.97679e+06
2.04045e+06
2.08817e+06
1.28754e+06
1.33271e+06
1.41267e+06
1.50544e+06
1.60949e+06
1.71248e+06
1.809e+06
1.89436e+06
1.96226e+06
2.02011e+06
1.22453e+06
1.26904e+06
1.34566e+06
1.43383e+06
1.53329e+06
1.63281e+06
1.72708e+06
1.81314e+06
1.88221e+06
1.94668e+06
1.16423e+06
1.20824e+06
1.28193e+06
1.36585e+06
1.4608e+06
1.55669e+06
1.64833e+06
1.73424e+06
1.80346e+06
1.87116e+06
1.10635e+06
1.14998e+06
1.22122e+06
1.30136e+06
1.39205e+06
1.48409e+06
1.57247e+06
1.65701e+06
1.72559e+06
1.79464e+06
1.05027e+06
1.09351e+06
1.16255e+06
1.23924e+06
1.3259e+06
1.41414e+06
1.49916e+06
1.58166e+06
1.6491e+06
1.71799e+06
996490
1.03856e+06
1.10551e+06
1.17894e+06
1.26172e+06
1.34609e+06
1.42762e+06
1.50753e+06
1.57355e+06
1.64142e+06
944650
984835
1.04962e+06
1.11978e+06
1.19873e+06
1.27917e+06
1.35716e+06
1.43413e+06
1.49848e+06
1.56476e+06
894337
932256
994564
1.06122e+06
1.13618e+06
1.21252e+06
1.28685e+06
1.36061e+06
1.42316e+06
1.48755e+06
845870
881230
940057
1.00265e+06
1.0732e+06
1.14515e+06
1.21566e+06
1.28601e+06
1.34665e+06
1.40903e+06
799916
832271
885847
943432
1.00886e+06
1.07596e+06
1.1424e+06
1.20919e+06
1.26788e+06
1.32827e+06
757827
785301
831474
882427
941631
1.00329e+06
1.06542e+06
1.1286e+06
1.18546e+06
1.24409e+06
721508
740561
776194
818456
870067
925606
983196
1.04286e+06
1.09816e+06
1.15546e+06
694842
698755
718647
748001
790468
839476
892763
949485
1.00403e+06
1.06093e+06
680386
656412
654337
669296
700961
743266
792944
847755
902816
960600
688456
608092
571666
569873
593175
631018
678997
734215
792531
853766
690362
520409
463037
447138
466893
504623
555737
615213
679099
746882
)
;

boundaryField
{
    left
    {
        type            calculated;
        value           nonuniform List<scalar> 
30
(
1.57707e+06
1.49084e+06
1.41309e+06
1.34173e+06
1.27479e+06
1.21189e+06
1.15183e+06
1.09434e+06
1.03883e+06
986089
935385
886586
840064
796573
757567
725570
705631
706330
753761
865973
5.97368e+06
4.13039e+06
3.29297e+06
2.81314e+06
2.4947e+06
2.2529e+06
2.06516e+06
1.91121e+06
1.78377e+06
1.67174e+06
)
;
    }
    right
    {
        type            calculated;
        value           nonuniform List<scalar> 
30
(
1.44737e+06
1.44709e+06
1.44986e+06
1.45699e+06
1.46772e+06
1.48142e+06
1.49694e+06
1.51321e+06
1.5291e+06
1.54353e+06
1.55549e+06
1.56443e+06
1.57051e+06
1.57382e+06
1.5738e+06
1.57068e+06
1.56496e+06
1.55666e+06
1.54629e+06
1.5343e+06
1.52125e+06
1.50773e+06
1.49435e+06
1.48172e+06
1.47042e+06
1.46096e+06
1.45385e+06
1.44925e+06
1.44744e+06
1.44757e+06
)
;
    }
    down
    {
        type            calculated;
        value           nonuniform List<scalar> 
30
(
7502.56
5352.7
65101.7
160022
269351
383635
495253
601682
699572
792002
875276
947879
1.01461e+06
1.07464e+06
1.12881e+06
1.17737e+06
1.22091e+06
1.25973e+06
1.29428e+06
1.32482e+06
1.35166e+06
1.37496e+06
1.39492e+06
1.41161e+06
1.4251e+06
1.43545e+06
1.44263e+06
1.44692e+06
1.44829e+06
1.44781e+06
)
;
    }
    up
    {
        type            calculated;
        value           nonuniform List<scalar> 
30
(
669193
514528
461313
445586
464908
502118
552858
612132
675912
743730
809491
870689
931248
989423
1.04528e+06
1.09797e+06
1.14747e+06
1.1934e+06
1.23575e+06
1.27439e+06
1.30933e+06
1.34053e+06
1.36797e+06
1.39157e+06
1.41123e+06
1.42685e+06
1.43819e+06
1.44536e+06
1.44818e+06
1.448e+06
)
;
    }
    hole
    {
        type            calculated;
        value           nonuniform List<scalar> 
20
(
2.56591e+06
2.89249e+06
3.27111e+06
3.71695e+06
4.16833e+06
4.54412e+06
4.84955e+06
5.13601e+06
4.84836e+06
4.6834e+06
3285.64
3391.39
50064.1
172118
362790
620297
935837
1.30021e+06
1.70116e+06
2.12773e+06
)
;
    }
    frontAndBack
    {
        type            empty;
    }
}


// ************************************************************************* //
