/*--------------------------------*- C++ -*----------------------------------*\
  =========                 |
  \\      /  F ield         | OpenFOAM: The Open Source CFD Toolbox
   \\    /   O peration     | Website:  https://openfoam.org
    \\  /    A nd           | Version:  9
     \\/     M anipulation  |
\*---------------------------------------------------------------------------*/
FoamFile
{
    format      ascii;
    class       volVectorField;
    location    "1";
    object      D;
}
// * * * * * * * * * * * * * * * * * * * * * * * * * * * * * * * * * * * * * //

dimensions      [0 1 0 0 0 0 0];

internalField   nonuniform List<vector> 
1000
(
(6.7824e-07 2.25491e-07 0)
(6.33184e-07 2.49384e-07 0)
(6.00466e-07 2.69381e-07 0)
(5.76893e-07 2.8497e-07 0)
(5.60135e-07 2.98375e-07 0)
(5.48387e-07 3.09881e-07 0)
(5.40514e-07 3.20222e-07 0)
(5.3561e-07 3.29623e-07 0)
(5.32958e-07 3.38378e-07 0)
(5.32193e-07 3.46665e-07 0)
(6.11202e-07 2.03094e-07 0)
(5.64357e-07 2.20505e-07 0)
(5.30557e-07 2.35678e-07 0)
(5.06305e-07 2.47366e-07 0)
(4.89086e-07 2.57587e-07 0)
(4.76967e-07 2.66354e-07 0)
(4.68738e-07 2.74283e-07 0)
(4.6344e-07 2.81519e-07 0)
(4.60334e-07 2.88219e-07 0)
(4.58923e-07 2.94744e-07 0)
(5.42726e-07 1.8066e-07 0)
(4.95398e-07 1.91153e-07 0)
(4.61447e-07 2.01299e-07 0)
(4.37216e-07 2.09041e-07 0)
(4.20069e-07 2.16138e-07 0)
(4.07999e-07 2.22289e-07 0)
(3.99746e-07 2.27973e-07 0)
(3.94327e-07 2.33224e-07 0)
(3.90998e-07 2.38077e-07 0)
(3.89234e-07 2.42928e-07 0)
(4.73156e-07 1.58558e-07 0)
(4.26718e-07 1.61971e-07 0)
(3.93616e-07 1.67069e-07 0)
(3.70162e-07 1.70952e-07 0)
(3.53669e-07 1.75083e-07 0)
(3.42101e-07 1.78814e-07 0)
(3.34189e-07 1.82472e-07 0)
(3.28938e-07 1.85957e-07 0)
(3.2565e-07 1.89202e-07 0)
(3.23748e-07 1.92566e-07 0)
(4.02667e-07 1.3713e-07 0)
(3.58538e-07 1.33591e-07 0)
(3.27341e-07 1.33841e-07 0)
(3.0548e-07 1.34116e-07 0)
(2.90259e-07 1.35575e-07 0)
(2.79667e-07 1.3719e-07 0)
(2.72455e-07 1.39132e-07 0)
(2.67653e-07 1.41141e-07 0)
(2.64621e-07 1.43069e-07 0)
(2.62769e-07 1.45183e-07 0)
(3.31561e-07 1.16539e-07 0)
(2.91062e-07 1.06471e-07 0)
(2.62852e-07 1.02342e-07 0)
(2.43431e-07 9.94702e-08 0)
(2.30117e-07 9.87136e-08 0)
(2.20969e-07 9.86395e-08 0)
(2.14799e-07 9.92602e-08 0)
(2.10696e-07 1.00153e-07 0)
(2.08104e-07 1.01104e-07 0)
(2.06447e-07 1.02268e-07 0)
(2.59578e-07 9.67845e-08 0)
(2.24141e-07 8.09269e-08 0)
(2.00089e-07 7.32322e-08 0)
(1.8401e-07 6.79618e-08 0)
(1.73252e-07 6.56471e-08 0)
(1.6599e-07 6.44426e-08 0)
(1.61162e-07 6.42137e-08 0)
(1.57962e-07 6.4392e-08 0)
(1.55942e-07 6.47288e-08 0)
(1.54591e-07 6.52623e-08 0)
(1.87234e-07 7.73242e-08 0)
(1.58062e-07 5.68974e-08 0)
(1.39412e-07 4.70322e-08 0)
(1.27532e-07 4.05161e-08 0)
(1.19859e-07 3.75409e-08 0)
(1.1479e-07 3.59012e-08 0)
(1.11475e-07 3.53508e-08 0)
(1.0928e-07 3.52386e-08 0)
(1.07893e-07 3.53179e-08 0)
(1.06914e-07 3.55427e-08 0)
(1.12948e-07 5.62698e-08 0)
(9.2382e-08 3.37394e-08 0)
(8.06304e-08 2.40528e-08 0)
(7.3684e-08 1.81089e-08 0)
(6.94918e-08 1.56192e-08 0)
(6.67671e-08 1.4298e-08 0)
(6.50241e-08 1.38969e-08 0)
(6.3848e-08 1.382e-08 0)
(6.30911e-08 1.38862e-08 0)
(6.25064e-08 1.40238e-08 0)
(3.88741e-08 2.94234e-08 0)
(2.93912e-08 1.23915e-08 0)
(2.57893e-08 6.4334e-09 0)
(2.38897e-08 3.48097e-09 0)
(2.27904e-08 2.48524e-09 0)
(2.2028e-08 2.0592e-09 0)
(2.15339e-08 2.02745e-09 0)
(2.11764e-08 2.09816e-09 0)
(2.09366e-08 2.20147e-09 0)
(2.07276e-08 2.31018e-09 0)
(1.19562e-06 3.66712e-07 0)
(1.19407e-06 4.1245e-07 0)
(1.19311e-06 4.55069e-07 0)
(1.19354e-06 4.94061e-07 0)
(1.19572e-06 5.29812e-07 0)
(1.19977e-06 5.62772e-07 0)
(1.20571e-06 5.93459e-07 0)
(1.21344e-06 6.22326e-07 0)
(1.22289e-06 6.49732e-07 0)
(1.23383e-06 6.76074e-07 0)
(1.15819e-06 3.63669e-07 0)
(1.15331e-06 4.09279e-07 0)
(1.1501e-06 4.51378e-07 0)
(1.14889e-06 4.89582e-07 0)
(1.14988e-06 5.24372e-07 0)
(1.15294e-06 5.56225e-07 0)
(1.158e-06 5.8571e-07 0)
(1.16483e-06 6.13305e-07 0)
(1.17335e-06 6.39384e-07 0)
(1.18323e-06 6.64399e-07 0)
(1.1185e-06 3.57513e-07 0)
(1.10966e-06 4.03021e-07 0)
(1.10337e-06 4.44263e-07 0)
(1.09975e-06 4.81228e-07 0)
(1.09882e-06 5.14657e-07 0)
(1.10028e-06 5.45095e-07 0)
(1.10393e-06 5.73151e-07 0)
(1.10945e-06 5.99313e-07 0)
(1.1167e-06 6.23965e-07 0)
(1.12526e-06 6.47572e-07 0)
(1.07558e-06 3.48571e-07 0)
(1.06229e-06 3.93879e-07 0)
(1.05244e-06 4.34071e-07 0)
(1.04594e-06 4.69521e-07 0)
(1.04266e-06 5.01311e-07 0)
(1.04213e-06 5.30072e-07 0)
(1.04404e-06 5.56469e-07 0)
(1.04794e-06 5.80993e-07 0)
(1.05371e-06 6.04044e-07 0)
(1.06077e-06 6.26082e-07 0)
(1.02895e-06 3.3693e-07 0)
(1.01079e-06 3.8168e-07 0)
(9.97106e-07 4.20489e-07 0)
(9.87575e-07 4.54077e-07 0)
(9.8181e-07 4.83909e-07 0)
(9.79155e-07 5.10706e-07 0)
(9.79211e-07 5.35197e-07 0)
(9.81431e-07 5.57869e-07 0)
(9.85636e-07 5.79146e-07 0)
(9.91152e-07 5.99454e-07 0)
(9.78528e-07 3.22857e-07 0)
(9.55211e-07 3.66434e-07 0)
(9.37626e-07 4.03456e-07 0)
(9.25061e-07 4.34864e-07 0)
(9.16825e-07 4.62478e-07 0)
(9.12076e-07 4.87078e-07 0)
(9.10301e-07 5.09461e-07 0)
(9.10857e-07 5.301e-07 0)
(9.13529e-07 5.49445e-07 0)
(9.17541e-07 5.6787e-07 0)
(9.24453e-07 3.06561e-07 0)
(8.95905e-07 3.48137e-07 0)
(8.74493e-07 3.82865e-07 0)
(8.59028e-07 4.11748e-07 0)
(8.48468e-07 4.36891e-07 0)
(8.41767e-07 4.59093e-07 0)
(8.3829e-07 4.79201e-07 0)
(8.37308e-07 4.97664e-07 0)
(8.38552e-07 5.14952e-07 0)
(8.41183e-07 5.31376e-07 0)
(8.67005e-07 2.88342e-07 0)
(8.33401e-07 3.26957e-07 0)
(8.08402e-07 3.58831e-07 0)
(7.9028e-07 3.84848e-07 0)
(7.7763e-07 4.07299e-07 0)
(7.69196e-07 4.26947e-07 0)
(7.64213e-07 4.44664e-07 0)
(7.61877e-07 4.60851e-07 0)
(7.61851e-07 4.76e-07 0)
(7.6328e-07 4.90323e-07 0)
(8.06549e-07 2.68511e-07 0)
(7.68334e-07 3.03154e-07 0)
(7.40151e-07 3.31594e-07 0)
(7.19727e-07 3.54412e-07 0)
(7.05303e-07 3.7398e-07 0)
(6.95419e-07 3.9096e-07 0)
(6.89174e-07 4.06211e-07 0)
(6.85711e-07 4.20085e-07 0)
(6.84596e-07 4.33039e-07 0)
(6.85042e-07 4.45238e-07 0)
(7.43489e-07 2.47431e-07 0)
(7.01375e-07 2.77128e-07 0)
(6.70569e-07 3.01585e-07 0)
(6.48293e-07 3.20908e-07 0)
(6.32476e-07 3.37444e-07 0)
(6.21465e-07 3.5169e-07 0)
(6.14241e-07 3.64467e-07 0)
(6.09903e-07 3.76033e-07 0)
(6.07917e-07 3.86834e-07 0)
(6.07662e-07 3.9678e-07 0)
(1.24683e-06 7.01395e-07 0)
(1.26169e-06 7.26512e-07 0)
(1.27767e-06 7.51216e-07 0)
(1.29464e-06 7.75629e-07 0)
(1.31251e-06 7.99875e-07 0)
(1.33118e-06 8.2403e-07 0)
(1.35057e-06 8.48178e-07 0)
(1.37061e-06 8.72373e-07 0)
(1.39123e-06 8.96673e-07 0)
(1.41235e-06 9.21119e-07 0)
(1.43393e-06 9.45749e-07 0)
(1.4559e-06 9.70594e-07 0)
(1.4782e-06 9.9568e-07 0)
(1.5008e-06 1.02103e-06 0)
(1.52363e-06 1.04665e-06 0)
(1.54665e-06 1.07255e-06 0)
(1.56981e-06 1.09874e-06 0)
(1.59305e-06 1.12517e-06 0)
(1.61634e-06 1.15182e-06 0)
(1.63963e-06 1.1786e-06 0)
(1.19678e-06 6.88757e-07 0)
(1.21344e-06 7.13455e-07 0)
(1.23097e-06 7.37764e-07 0)
(1.24923e-06 7.61827e-07 0)
(1.2682e-06 7.85776e-07 0)
(1.2878e-06 8.09678e-07 0)
(1.30797e-06 8.33619e-07 0)
(1.32866e-06 8.57651e-07 0)
(1.34982e-06 8.81828e-07 0)
(1.3714e-06 9.0619e-07 0)
(1.39336e-06 9.30773e-07 0)
(1.41565e-06 9.55606e-07 0)
(1.43824e-06 9.80715e-07 0)
(1.46109e-06 1.00612e-06 0)
(1.48416e-06 1.03183e-06 0)
(1.50741e-06 1.05786e-06 0)
(1.53081e-06 1.08419e-06 0)
(1.55433e-06 1.11082e-06 0)
(1.57792e-06 1.13769e-06 0)
(1.60154e-06 1.16474e-06 0)
(1.13954e-06 6.71208e-07 0)
(1.15852e-06 6.95955e-07 0)
(1.17812e-06 7.20325e-07 0)
(1.19817e-06 7.44439e-07 0)
(1.21872e-06 7.68457e-07 0)
(1.23968e-06 7.92433e-07 0)
(1.26105e-06 8.16465e-07 0)
(1.28279e-06 8.40601e-07 0)
(1.30488e-06 8.649e-07 0)
(1.32728e-06 8.89401e-07 0)
(1.34996e-06 9.14142e-07 0)
(1.37291e-06 9.39152e-07 0)
(1.3961e-06 9.64459e-07 0)
(1.41951e-06 9.90082e-07 0)
(1.4431e-06 1.01604e-06 0)
(1.46686e-06 1.04233e-06 0)
(1.49077e-06 1.06897e-06 0)
(1.51479e-06 1.09595e-06 0)
(1.53889e-06 1.12324e-06 0)
(1.56302e-06 1.15079e-06 0)
(1.07597e-06 6.49137e-07 0)
(1.09769e-06 6.74294e-07 0)
(1.1198e-06 6.99089e-07 0)
(1.14206e-06 7.2358e-07 0)
(1.16459e-06 7.47974e-07 0)
(1.18731e-06 7.72302e-07 0)
(1.21026e-06 7.96683e-07 0)
(1.2334e-06 8.2116e-07 0)
(1.25675e-06 8.45801e-07 0)
(1.28029e-06 8.70646e-07 0)
(1.30401e-06 8.95736e-07 0)
(1.32791e-06 9.21104e-07 0)
(1.35197e-06 9.46779e-07 0)
(1.37619e-06 9.72784e-07 0)
(1.40055e-06 9.9914e-07 0)
(1.42505e-06 1.02586e-06 0)
(1.44966e-06 1.05297e-06 0)
(1.47437e-06 1.08045e-06 0)
(1.49916e-06 1.10833e-06 0)
(1.52395e-06 1.13658e-06 0)
(1.00743e-06 6.22128e-07 0)
(1.03223e-06 6.48104e-07 0)
(1.05719e-06 6.73739e-07 0)
(1.08196e-06 6.98975e-07 0)
(1.10679e-06 7.24088e-07 0)
(1.13156e-06 7.49083e-07 0)
(1.15638e-06 7.74101e-07 0)
(1.1812e-06 7.99186e-07 0)
(1.20607e-06 8.24413e-07 0)
(1.231e-06 8.49827e-07 0)
(1.25598e-06 8.75476e-07 0)
(1.28105e-06 9.01395e-07 0)
(1.30619e-06 9.27619e-07 0)
(1.33141e-06 9.54177e-07 0)
(1.35672e-06 9.81096e-07 0)
(1.38212e-06 1.0084e-06 0)
(1.40759e-06 1.03611e-06 0)
(1.43314e-06 1.06426e-06 0)
(1.45874e-06 1.09288e-06 0)
(1.48434e-06 1.12198e-06 0)
(9.35058e-07 5.90345e-07 0)
(9.63161e-07 6.17518e-07 0)
(9.91223e-07 6.4438e-07 0)
(1.01875e-06 6.70706e-07 0)
(1.04611e-06 6.9686e-07 0)
(1.07316e-06 7.22823e-07 0)
(1.10005e-06 7.48755e-07 0)
(1.12677e-06 7.74705e-07 0)
(1.15337e-06 8.00756e-07 0)
(1.17987e-06 8.26961e-07 0)
(1.20631e-06 8.53373e-07 0)
(1.23271e-06 8.80034e-07 0)
(1.25909e-06 9.06986e-07 0)
(1.28547e-06 9.34264e-07 0)
(1.31186e-06 9.61903e-07 0)
(1.33829e-06 9.89936e-07 0)
(1.36474e-06 1.0184e-06 0)
(1.39123e-06 1.04734e-06 0)
(1.41776e-06 1.07682e-06 0)
(1.44427e-06 1.10686e-06 0)
(8.60047e-07 5.53852e-07 0)
(8.91576e-07 5.82606e-07 0)
(9.22891e-07 6.11067e-07 0)
(9.53318e-07 6.38836e-07 0)
(9.83364e-07 6.66347e-07 0)
(1.01285e-06 6.93575e-07 0)
(1.04198e-06 7.2069e-07 0)
(1.07074e-06 7.47757e-07 0)
(1.09921e-06 7.74866e-07 0)
(1.12744e-06 8.0208e-07 0)
(1.15546e-06 8.29459e-07 0)
(1.18332e-06 8.57055e-07 0)
(1.21106e-06 8.84913e-07 0)
(1.2387e-06 9.13077e-07 0)
(1.26628e-06 9.4159e-07 0)
(1.29382e-06 9.70493e-07 0)
(1.32134e-06 9.99839e-07 0)
(1.34886e-06 1.02968e-06 0)
(1.37638e-06 1.06011e-06 0)
(1.40389e-06 1.09117e-06 0)
(7.83532e-07 5.12985e-07 0)
(8.18497e-07 5.43678e-07 0)
(8.53105e-07 5.74038e-07 0)
(8.86506e-07 6.03574e-07 0)
(9.19305e-07 6.32722e-07 0)
(9.5133e-07 6.61497e-07 0)
(9.8279e-07 6.90057e-07 0)
(1.0137e-06 7.18488e-07 0)
(1.04415e-06 7.46883e-07 0)
(1.07419e-06 7.75317e-07 0)
(1.10389e-06 8.0386e-07 0)
(1.13331e-06 8.32571e-07 0)
(1.16248e-06 8.61504e-07 0)
(1.19146e-06 8.90709e-07 0)
(1.22029e-06 9.20236e-07 0)
(1.24901e-06 9.50137e-07 0)
(1.27765e-06 9.80473e-07 0)
(1.30625e-06 1.01131e-06 0)
(1.33482e-06 1.04275e-06 0)
(1.36338e-06 1.07487e-06 0)
(7.06674e-07 4.68137e-07 0)
(7.44986e-07 5.01144e-07 0)
(7.82797e-07 5.33635e-07 0)
(8.19188e-07 5.65235e-07 0)
(8.54735e-07 5.96255e-07 0)
(8.89325e-07 6.26803e-07 0)
(9.23142e-07 6.57019e-07 0)
(9.56234e-07 6.87018e-07 0)
(9.88702e-07 7.16898e-07 0)
(1.02061e-06 7.46748e-07 0)
(1.05204e-06 7.76642e-07 0)
(1.08306e-06 8.06647e-07 0)
(1.11372e-06 8.36823e-07 0)
(1.14408e-06 8.67227e-07 0)
(1.1742e-06 8.97912e-07 0)
(1.20414e-06 9.28936e-07 0)
(1.23393e-06 9.60368e-07 0)
(1.26363e-06 9.92278e-07 0)
(1.29327e-06 1.02479e-06 0)
(1.32292e-06 1.05796e-06 0)
(6.30385e-07 4.20007e-07 0)
(6.71867e-07 4.55559e-07 0)
(7.12543e-07 4.90243e-07 0)
(7.51852e-07 5.24123e-07 0)
(7.90092e-07 5.57262e-07 0)
(8.27259e-07 5.89822e-07 0)
(8.63469e-07 6.21923e-07 0)
(8.98793e-07 6.53694e-07 0)
(9.33325e-07 6.85246e-07 0)
(9.67146e-07 7.1668e-07 0)
(1.00034e-06 7.48081e-07 0)
(1.03298e-06 7.79525e-07 0)
(1.06515e-06 8.1108e-07 0)
(1.09692e-06 8.42807e-07 0)
(1.12834e-06 8.74765e-07 0)
(1.1595e-06 9.07015e-07 0)
(1.19044e-06 9.39627e-07 0)
(1.22124e-06 9.72675e-07 0)
(1.25195e-06 1.00628e-06 0)
(1.28269e-06 1.04051e-06 0)
(5.71658e-07 3.83883e-07 0)
(6.14893e-07 4.21286e-07 0)
(6.57068e-07 4.57205e-07 0)
(6.97956e-07 4.92381e-07 0)
(7.37722e-07 5.26813e-07 0)
(7.76367e-07 5.60652e-07 0)
(8.13994e-07 5.94011e-07 0)
(8.5066e-07 6.27003e-07 0)
(8.86454e-07 6.59731e-07 0)
(9.21453e-07 6.92288e-07 0)
(9.55739e-07 7.24755e-07 0)
(9.89391e-07 7.57206e-07 0)
(1.02249e-06 7.89706e-07 0)
(1.0551e-06 8.22315e-07 0)
(1.08731e-06 8.55088e-07 0)
(1.11918e-06 8.88082e-07 0)
(1.15078e-06 9.21363e-07 0)
(1.18221e-06 9.54996e-07 0)
(1.21352e-06 9.89089e-07 0)
(1.24487e-06 1.0237e-06 0)
(5.32626e-07 3.62232e-07 0)
(5.75858e-07 3.99616e-07 0)
(6.18038e-07 4.35816e-07 0)
(6.59052e-07 4.71381e-07 0)
(6.99012e-07 5.06298e-07 0)
(7.37905e-07 5.40672e-07 0)
(7.75814e-07 5.74594e-07 0)
(8.1278e-07 6.08152e-07 0)
(8.48879e-07 6.41432e-07 0)
(8.84175e-07 6.74511e-07 0)
(9.18743e-07 7.07463e-07 0)
(9.52655e-07 7.4035e-07 0)
(9.85984e-07 7.73229e-07 0)
(1.0188e-06 8.06154e-07 0)
(1.05119e-06 8.39174e-07 0)
(1.08321e-06 8.72339e-07 0)
(1.11494e-06 9.05701e-07 0)
(1.14648e-06 9.39319e-07 0)
(1.17789e-06 9.73273e-07 0)
(1.20934e-06 1.00761e-06 0)
(4.98204e-07 3.41468e-07 0)
(5.40653e-07 3.78722e-07 0)
(5.82398e-07 4.15012e-07 0)
(6.23092e-07 4.50807e-07 0)
(6.62884e-07 4.86069e-07 0)
(7.01699e-07 5.20864e-07 0)
(7.39607e-07 5.55257e-07 0)
(7.76623e-07 5.8931e-07 0)
(8.12809e-07 6.23091e-07 0)
(8.48214e-07 6.56659e-07 0)
(8.82903e-07 6.90072e-07 0)
(9.16938e-07 7.23381e-07 0)
(9.50386e-07 7.56634e-07 0)
(9.83316e-07 7.89872e-07 0)
(1.0158e-06 8.23138e-07 0)
(1.04791e-06 8.5647e-07 0)
(1.07972e-06 8.89906e-07 0)
(1.11133e-06 9.23492e-07 0)
(1.1428e-06 9.57274e-07 0)
(1.17433e-06 9.91285e-07 0)
(4.6738e-07 3.21497e-07 0)
(5.0881e-07 3.58429e-07 0)
(5.49803e-07 3.94668e-07 0)
(5.89888e-07 4.30591e-07 0)
(6.29229e-07 4.6611e-07 0)
(6.67702e-07 5.01255e-07 0)
(7.05367e-07 5.3606e-07 0)
(7.42214e-07 5.70562e-07 0)
(7.7829e-07 6.04803e-07 0)
(8.1363e-07 6.38828e-07 0)
(8.48287e-07 6.72676e-07 0)
(8.82314e-07 7.06388e-07 0)
(9.15771e-07 7.39998e-07 0)
(9.48719e-07 7.73538e-07 0)
(9.81225e-07 8.07039e-07 0)
(1.01336e-06 8.40527e-07 0)
(1.0452e-06 8.74025e-07 0)
(1.07684e-06 9.07566e-07 0)
(1.10835e-06 9.41165e-07 0)
(1.13992e-06 9.74825e-07 0)
(4.39794e-07 3.02522e-07 0)
(4.79982e-07 3.39018e-07 0)
(5.19969e-07 3.75088e-07 0)
(5.59202e-07 4.11016e-07 0)
(5.97855e-07 4.4668e-07 0)
(6.35766e-07 4.82076e-07 0)
(6.72981e-07 5.17206e-07 0)
(7.0947e-07 5.5208e-07 0)
(7.45266e-07 5.86721e-07 0)
(7.80388e-07 6.21151e-07 0)
(8.14878e-07 6.55394e-07 0)
(8.48779e-07 6.89475e-07 0)
(8.82141e-07 7.23416e-07 0)
(9.15021e-07 7.57238e-07 0)
(9.47479e-07 7.90958e-07 0)
(9.7958e-07 8.24589e-07 0)
(1.0114e-06 8.58139e-07 0)
(1.04301e-06 8.91621e-07 0)
(1.07454e-06 9.25007e-07 0)
(1.10614e-06 9.58308e-07 0)
(4.14911e-07 2.8453e-07 0)
(4.53734e-07 3.20487e-07 0)
(4.92552e-07 3.56284e-07 0)
(5.30765e-07 3.92119e-07 0)
(5.68553e-07 4.27835e-07 0)
(6.05727e-07 4.63397e-07 0)
(6.42323e-07 4.98776e-07 0)
(6.78294e-07 5.33956e-07 0)
(7.13661e-07 5.68936e-07 0)
(7.4843e-07 6.03718e-07 0)
(7.82633e-07 6.38311e-07 0)
(8.16301e-07 6.72723e-07 0)
(8.49479e-07 7.06964e-07 0)
(8.82213e-07 7.4104e-07 0)
(9.14557e-07 7.74957e-07 0)
(9.46574e-07 8.08712e-07 0)
(9.78325e-07 8.42302e-07 0)
(1.00991e-06 8.75704e-07 0)
(1.04137e-06 9.08888e-07 0)
(1.07291e-06 9.41848e-07 0)
(3.92294e-07 2.67528e-07 0)
(4.29678e-07 3.02887e-07 0)
(4.6721e-07 3.38337e-07 0)
(5.04283e-07 3.73995e-07 0)
(5.4107e-07 4.09679e-07 0)
(5.77371e-07 4.45326e-07 0)
(6.13214e-07 4.80876e-07 0)
(6.48538e-07 5.1629e-07 0)
(6.83353e-07 5.51544e-07 0)
(7.17656e-07 5.86621e-07 0)
(7.51468e-07 6.21512e-07 0)
(7.84813e-07 6.56211e-07 0)
(8.17724e-07 6.90712e-07 0)
(8.50243e-07 7.25011e-07 0)
(8.82414e-07 7.59098e-07 0)
(9.14296e-07 7.9296e-07 0)
(9.45941e-07 8.26572e-07 0)
(9.77436e-07 8.59906e-07 0)
(1.00883e-06 8.92897e-07 0)
(1.04029e-06 9.25514e-07 0)
(3.71515e-07 2.5147e-07 0)
(4.07426e-07 2.86194e-07 0)
(4.43604e-07 3.21244e-07 0)
(4.79454e-07 3.56662e-07 0)
(5.15146e-07 3.92246e-07 0)
(5.50473e-07 4.27909e-07 0)
(5.85458e-07 4.63561e-07 0)
(6.20031e-07 4.99144e-07 0)
(6.54196e-07 5.34611e-07 0)
(6.87939e-07 5.69925e-07 0)
(7.21274e-07 6.05063e-07 0)
(7.54216e-07 6.40001e-07 0)
(7.86793e-07 6.74722e-07 0)
(8.19036e-07 7.09208e-07 0)
(8.50984e-07 7.43438e-07 0)
(8.82687e-07 7.77384e-07 0)
(9.14188e-07 8.11011e-07 0)
(9.45566e-07 8.44271e-07 0)
(9.76858e-07 8.77081e-07 0)
(1.00821e-06 9.09394e-07 0)
(3.52194e-07 2.36303e-07 0)
(3.86619e-07 2.70384e-07 0)
(4.21402e-07 3.05002e-07 0)
(4.55979e-07 3.40136e-07 0)
(4.90507e-07 3.75567e-07 0)
(5.24788e-07 4.11187e-07 0)
(5.58835e-07 4.46881e-07 0)
(5.92579e-07 4.82572e-07 0)
(6.26015e-07 5.18191e-07 0)
(6.59124e-07 5.53687e-07 0)
(6.91913e-07 5.89017e-07 0)
(7.2439e-07 6.24147e-07 0)
(7.56574e-07 6.59045e-07 0)
(7.88492e-07 6.93681e-07 0)
(8.20173e-07 7.28023e-07 0)
(8.5166e-07 7.62034e-07 0)
(8.82987e-07 7.95664e-07 0)
(9.14221e-07 8.28856e-07 0)
(9.45388e-07 8.61506e-07 0)
(9.76615e-07 8.93555e-07 0)
(3.33976e-07 2.21967e-07 0)
(3.66918e-07 2.55415e-07 0)
(4.00288e-07 2.89587e-07 0)
(4.33559e-07 3.24408e-07 0)
(4.66881e-07 3.59648e-07 0)
(5.00062e-07 3.95177e-07 0)
(5.33117e-07 4.30862e-07 0)
(5.65973e-07 4.66606e-07 0)
(5.98621e-07 5.02323e-07 0)
(6.31039e-07 5.37946e-07 0)
(6.63228e-07 5.73418e-07 0)
(6.95189e-07 6.08691e-07 0)
(7.26937e-07 6.43722e-07 0)
(7.58489e-07 6.7847e-07 0)
(7.89869e-07 7.12894e-07 0)
(8.21109e-07 7.46948e-07 0)
(8.52237e-07 7.80573e-07 0)
(8.83304e-07 8.13702e-07 0)
(9.14328e-07 8.46219e-07 0)
(9.45403e-07 8.78057e-07 0)
(3.16541e-07 2.08402e-07 0)
(3.48007e-07 2.41242e-07 0)
(3.79955e-07 2.74971e-07 0)
(4.11902e-07 3.09465e-07 0)
(4.43988e-07 3.44486e-07 0)
(4.76038e-07 3.79887e-07 0)
(5.08061e-07 4.15519e-07 0)
(5.39988e-07 4.51267e-07 0)
(5.71808e-07 4.87032e-07 0)
(6.03495e-07 5.22731e-07 0)
(6.35045e-07 5.58295e-07 0)
(6.66455e-07 5.93664e-07 0)
(6.97732e-07 6.28784e-07 0)
(7.28889e-07 6.63607e-07 0)
(7.59942e-07 6.98083e-07 0)
(7.90913e-07 7.32159e-07 0)
(8.21823e-07 7.65769e-07 0)
(8.52706e-07 7.98843e-07 0)
(8.83572e-07 8.31259e-07 0)
(9.14481e-07 8.62945e-07 0)
(2.99583e-07 1.95559e-07 0)
(3.2958e-07 2.27828e-07 0)
(3.60103e-07 2.61125e-07 0)
(3.90718e-07 2.95287e-07 0)
(4.21553e-07 3.30072e-07 0)
(4.52451e-07 3.65316e-07 0)
(4.83419e-07 4.00857e-07 0)
(5.14393e-07 4.36567e-07 0)
(5.4536e-07 4.72333e-07 0)
(5.76291e-07 5.0806e-07 0)
(6.07178e-07 5.43668e-07 0)
(6.38014e-07 5.79087e-07 0)
(6.68801e-07 6.14255e-07 0)
(6.99543e-07 6.49115e-07 0)
(7.30251e-07 6.83611e-07 0)
(7.60939e-07 7.17687e-07 0)
(7.91617e-07 7.51274e-07 0)
(8.22305e-07 7.84302e-07 0)
(8.53005e-07 8.16648e-07 0)
(8.8374e-07 8.48243e-07 0)
(2.82812e-07 1.8339e-07 0)
(3.11342e-07 2.15132e-07 0)
(3.40438e-07 2.48016e-07 0)
(3.69714e-07 2.8185e-07 0)
(3.99292e-07 3.16387e-07 0)
(4.29029e-07 3.51452e-07 0)
(4.58934e-07 3.8687e-07 0)
(4.88945e-07 4.22503e-07 0)
(5.19048e-07 4.58227e-07 0)
(5.49214e-07 4.93939e-07 0)
(5.79429e-07 5.29546e-07 0)
(6.09683e-07 5.64971e-07 0)
(6.39971e-07 6.00145e-07 0)
(6.70292e-07 6.35006e-07 0)
(7.00648e-07 6.69492e-07 0)
(7.31046e-07 7.03547e-07 0)
(7.61487e-07 7.37102e-07 0)
(7.91975e-07 7.7009e-07 0)
(8.22505e-07 8.02398e-07 0)
(8.53066e-07 8.33964e-07 0)
(2.65941e-07 1.71877e-07 0)
(2.92998e-07 2.03135e-07 0)
(3.20663e-07 2.35628e-07 0)
(3.486e-07 2.69139e-07 0)
(3.76919e-07 3.03419e-07 0)
(4.05498e-07 3.38283e-07 0)
(4.34342e-07 3.73549e-07 0)
(4.63395e-07 4.09069e-07 0)
(4.9264e-07 4.44712e-07 0)
(5.22045e-07 4.80364e-07 0)
(5.51596e-07 5.15927e-07 0)
(5.81274e-07 5.51317e-07 0)
(6.11069e-07 5.86458e-07 0)
(6.40973e-07 6.21284e-07 0)
(6.70982e-07 6.55731e-07 0)
(7.01091e-07 6.89743e-07 0)
(7.31297e-07 7.23255e-07 0)
(7.61589e-07 7.56207e-07 0)
(7.91951e-07 7.88503e-07 0)
(8.22345e-07 8.20095e-07 0)
(2.48672e-07 1.60987e-07 0)
(2.74241e-07 1.91805e-07 0)
(3.00468e-07 2.23926e-07 0)
(3.27066e-07 2.57121e-07 0)
(3.54135e-07 2.91136e-07 0)
(3.81567e-07 3.25781e-07 0)
(4.09367e-07 3.60867e-07 0)
(4.37481e-07 3.96241e-07 0)
(4.65889e-07 4.31764e-07 0)
(4.94558e-07 4.67317e-07 0)
(5.23467e-07 5.02796e-07 0)
(5.52592e-07 5.38111e-07 0)
(5.81916e-07 5.73183e-07 0)
(6.11423e-07 6.07941e-07 0)
(6.41102e-07 6.42321e-07 0)
(6.70938e-07 6.76268e-07 0)
(7.0092e-07 7.09725e-07 0)
(7.31025e-07 7.42642e-07 0)
(7.6123e-07 7.74947e-07 0)
(7.91471e-07 8.06611e-07 0)
(2.30697e-07 1.50754e-07 0)
(2.54757e-07 1.81163e-07 0)
(2.79537e-07 2.12924e-07 0)
(3.04801e-07 2.458e-07 0)
(3.30634e-07 2.79534e-07 0)
(3.56943e-07 3.13934e-07 0)
(3.83729e-07 3.48808e-07 0)
(4.10939e-07 3.83999e-07 0)
(4.38549e-07 4.19362e-07 0)
(4.66523e-07 4.54776e-07 0)
(4.94832e-07 4.9013e-07 0)
(5.23445e-07 5.25332e-07 0)
(5.52338e-07 5.60299e-07 0)
(5.81486e-07 5.94958e-07 0)
(6.10867e-07 6.29245e-07 0)
(6.40458e-07 6.63107e-07 0)
(6.70238e-07 6.96495e-07 0)
(7.00177e-07 7.29372e-07 0)
(7.3024e-07 7.61695e-07 0)
(7.60351e-07 7.93461e-07 0)
(2.1166e-07 1.41125e-07 0)
(2.34186e-07 1.71151e-07 0)
(2.57511e-07 2.02558e-07 0)
(2.81454e-07 2.35108e-07 0)
(3.06076e-07 2.68547e-07 0)
(3.31302e-07 3.02679e-07 0)
(3.57121e-07 3.37311e-07 0)
(3.83482e-07 3.72283e-07 0)
(4.10355e-07 4.0745e-07 0)
(4.37696e-07 4.42687e-07 0)
(4.65469e-07 4.77881e-07 0)
(4.93636e-07 5.12936e-07 0)
(5.2216e-07 5.47767e-07 0)
(5.51007e-07 5.823e-07 0)
(5.80143e-07 6.16472e-07 0)
(6.09537e-07 6.5023e-07 0)
(6.39155e-07 6.83535e-07 0)
(6.68958e-07 7.16364e-07 0)
(6.98906e-07 7.48704e-07 0)
(7.28915e-07 7.80584e-07 0)
(1.9121e-07 1.32246e-07 0)
(2.12172e-07 1.6188e-07 0)
(2.34041e-07 1.9291e-07 0)
(2.56683e-07 2.25104e-07 0)
(2.80137e-07 2.58206e-07 0)
(3.04333e-07 2.92026e-07 0)
(3.29252e-07 3.26368e-07 0)
(3.54841e-07 3.61075e-07 0)
(3.81057e-07 3.95998e-07 0)
(4.07851e-07 4.31011e-07 0)
(4.35176e-07 4.66002e-07 0)
(4.62982e-07 5.00872e-07 0)
(4.91223e-07 5.35535e-07 0)
(5.19851e-07 5.69916e-07 0)
(5.48821e-07 6.03951e-07 0)
(5.78086e-07 6.37591e-07 0)
(6.07602e-07 6.70801e-07 0)
(6.37319e-07 7.0357e-07 0)
(6.67188e-07 7.35914e-07 0)
(6.9713e-07 7.67896e-07 0)
(1.68834e-07 1.2391e-07 0)
(1.88212e-07 1.53147e-07 0)
(2.0864e-07 1.83782e-07 0)
(2.30025e-07 2.15594e-07 0)
(2.52375e-07 2.48332e-07 0)
(2.75626e-07 2.81806e-07 0)
(2.99742e-07 3.15825e-07 0)
(3.24663e-07 3.5023e-07 0)
(3.50336e-07 3.84875e-07 0)
(3.76699e-07 4.19633e-07 0)
(4.03695e-07 4.54391e-07 0)
(4.31263e-07 4.89049e-07 0)
(4.59341e-07 5.23522e-07 0)
(4.87869e-07 5.57733e-07 0)
(5.16786e-07 5.91619e-07 0)
(5.46031e-07 6.25131e-07 0)
(5.75541e-07 6.58239e-07 0)
(6.05251e-07 6.90938e-07 0)
(6.35102e-07 7.23268e-07 0)
(6.65015e-07 7.55319e-07 0)
(1.44241e-07 1.16594e-07 0)
(1.62023e-07 1.4534e-07 0)
(1.81045e-07 1.75485e-07 0)
(2.01231e-07 2.0682e-07 0)
(2.22562e-07 2.39103e-07 0)
(2.44969e-07 2.72144e-07 0)
(2.68397e-07 3.05757e-07 0)
(2.92774e-07 3.39785e-07 0)
(3.18034e-07 3.7408e-07 0)
(3.44102e-07 4.08519e-07 0)
(3.70907e-07 4.42987e-07 0)
(3.98373e-07 4.77386e-07 0)
(4.26428e-07 5.1163e-07 0)
(4.54996e-07 5.45642e-07 0)
(4.84e-07 5.79362e-07 0)
(5.13358e-07 6.1274e-07 0)
(5.42991e-07 6.45747e-07 0)
(5.72807e-07 6.78381e-07 0)
(6.02729e-07 7.10681e-07 0)
(6.32661e-07 7.42751e-07 0)
(2.00571e-08 2.22829e-09 0)
(6.05534e-08 1.32865e-08 0)
(1.03498e-07 3.36924e-08 0)
(1.49452e-07 6.21116e-08 0)
(1.99299e-07 9.78129e-08 0)
(2.53336e-07 1.39558e-07 0)
(3.11798e-07 1.86014e-07 0)
(3.74598e-07 2.35775e-07 0)
(4.4156e-07 2.8741e-07 0)
(5.12331e-07 3.39744e-07 0)
(1.8912e-08 2.01401e-09 0)
(5.71399e-08 1.19911e-08 0)
(9.75809e-08 3.05464e-08 0)
(1.40667e-07 5.65979e-08 0)
(1.87197e-07 8.9598e-08 0)
(2.37445e-07 1.2851e-07 0)
(2.91645e-07 1.72183e-07 0)
(3.49718e-07 2.19382e-07 0)
(4.11464e-07 2.68737e-07 0)
(4.76515e-07 3.19322e-07 0)
(1.78827e-08 1.75706e-09 0)
(5.40766e-08 1.06724e-08 0)
(9.23012e-08 2.74966e-08 0)
(1.32844e-07 5.13401e-08 0)
(1.76414e-07 8.17946e-08 0)
(2.23239e-07 1.17984e-07 0)
(2.73567e-07 1.5891e-07 0)
(3.27372e-07 2.03514e-07 0)
(3.84589e-07 2.50558e-07 0)
(4.44821e-07 2.99386e-07 0)
(1.69405e-08 1.45531e-09 0)
(5.12848e-08 9.3404e-09 0)
(8.75466e-08 2.45983e-08 0)
(1.25883e-07 4.64784e-08 0)
(1.66925e-07 7.46742e-08 0)
(2.10838e-07 1.08432e-07 0)
(2.5785e-07 1.46862e-07 0)
(3.07907e-07 1.89021e-07 0)
(3.61034e-07 2.33739e-07 0)
(4.1675e-07 2.80449e-07 0)
(1.60596e-08 1.10658e-09 0)
(4.86785e-08 7.95066e-09 0)
(8.31377e-08 2.17214e-08 0)
(1.19475e-07 4.17721e-08 0)
(1.58253e-07 6.78711e-08 0)
(1.99581e-07 9.93626e-08 0)
(2.43683e-07 1.35451e-07 0)
(2.90475e-07 1.75303e-07 0)
(3.40073e-07 2.17848e-07 0)
(3.91845e-07 2.62513e-07 0)
(1.52327e-08 7.16606e-10 0)
(4.62354e-08 6.51243e-09 0)
(7.9034e-08 1.88805e-08 0)
(1.13558e-07 3.72509e-08 0)
(1.50314e-07 6.14457e-08 0)
(1.89348e-07 9.08788e-08 0)
(2.30875e-07 1.24824e-07 0)
(2.74766e-07 1.62515e-07 0)
(3.21225e-07 2.02981e-07 0)
(3.69513e-07 2.45605e-07 0)
(1.44431e-08 2.83976e-10 0)
(4.39043e-08 5.00598e-09 0)
(7.51378e-08 1.60172e-08 0)
(1.07977e-07 3.28053e-08 0)
(1.42882e-07 5.52318e-08 0)
(1.79845e-07 8.27645e-08 0)
(2.19073e-07 1.14738e-07 0)
(2.60398e-07 1.50436e-07 0)
(3.04079e-07 1.88983e-07 0)
(3.49307e-07 2.29693e-07 0)
(1.36847e-08 -1.85739e-10 0)
(4.16656e-08 3.43776e-09 0)
(7.14112e-08 1.31334e-08 0)
(1.02669e-07 2.84314e-08 0)
(1.35858e-07 4.92209e-08 0)
(1.70922e-07 7.50066e-08 0)
(2.08062e-07 1.0517e-07 0)
(2.47076e-07 1.39026e-07 0)
(2.88261e-07 1.75787e-07 0)
(3.30786e-07 2.14711e-07 0)
(1.29476e-08 -6.92673e-10 0)
(3.94902e-08 1.79986e-09 0)
(6.78009e-08 1.0203e-08 0)
(9.75491e-08 2.40791e-08 0)
(1.29119e-07 4.33365e-08 0)
(1.62417e-07 6.75058e-08 0)
(1.97633e-07 9.60069e-08 0)
(2.34546e-07 1.28175e-07 0)
(2.73468e-07 1.63296e-07 0)
(3.13578e-07 2.00585e-07 0)
(1.22265e-08 -1.2334e-09 0)
(3.73617e-08 9.52262e-11 0)
(6.42756e-08 7.2233e-09 0)
(9.25652e-08 1.97377e-08 0)
(1.22586e-07 3.75575e-08 0)
(1.54209e-07 6.02293e-08 0)
(1.87618e-07 8.72008e-08 0)
(2.22586e-07 1.17821e-07 0)
(2.59422e-07 1.51436e-07 0)
(2.97346e-07 1.87235e-07 0)
(1.15154e-08 -1.80765e-09 0)
(3.52629e-08 -1.67986e-09 0)
(6.08037e-08 4.18134e-09 0)
(8.76659e-08 1.5383e-08 0)
(1.16178e-07 3.18474e-08 0)
(1.46187e-07 5.31283e-08 0)
(1.7787e-07 7.8693e-08 0)
(2.11003e-07 1.07899e-07 0)
(2.45883e-07 1.40138e-07 0)
(2.81792e-07 1.74592e-07 0)
(1.08105e-08 -2.41449e-09 0)
(3.31832e-08 -3.52589e-09 0)
(5.73637e-08 1.0732e-09 0)
(8.28126e-08 1.10078e-08 0)
(1.09833e-07 2.6193e-08 0)
(1.38257e-07 4.61827e-08 0)
(1.68254e-07 7.04534e-08 0)
(1.99618e-07 9.83692e-08 0)
(2.3263e-07 1.29355e-07 0)
(2.66639e-07 1.62598e-07 0)
(1.01093e-08 -3.05556e-09 0)
(3.11177e-08 -5.44874e-09 0)
(5.39415e-08 -2.11119e-09 0)
(7.79738e-08 6.59915e-09 0)
(1.03494e-07 2.05781e-08 0)
(1.30329e-07 3.93709e-08 0)
(1.58647e-07 6.24544e-08 0)
(1.88266e-07 8.91964e-08 0)
(2.19449e-07 1.19046e-07 0)
(2.51625e-07 1.51203e-07 0)
(9.41172e-09 -3.73621e-09 0)
(2.9069e-08 -7.45524e-09 0)
(5.05319e-08 -5.37532e-09 0)
(7.31271e-08 2.16066e-09 0)
(9.71122e-08 1.50107e-08 0)
(1.22321e-07 3.27014e-08 0)
(1.48927e-07 5.47011e-08 0)
(1.76782e-07 8.0379e-08 0)
(2.06135e-07 1.09202e-07 0)
(2.36495e-07 1.40389e-07 0)
(8.72357e-09 -4.46698e-09 0)
(2.70612e-08 -9.56336e-09 0)
(4.71518e-08 -8.73508e-09 0)
(6.82667e-08 -2.31756e-09 0)
(9.06463e-08 9.48589e-09 0)
(1.14152e-07 2.61701e-08 0)
(1.3897e-07 4.71869e-08 0)
(1.64998e-07 7.19051e-08 0)
(1.9247e-07 9.98042e-08 0)
(2.20982e-07 1.30128e-07 0)
(8.05776e-09 -5.28085e-09 0)
(2.51341e-08 -1.1798e-08 0)
(4.38304e-08 -1.21849e-08 0)
(6.33917e-08 -6.7965e-09 0)
(8.40561e-08 4.06426e-09 0)
(1.05737e-07 1.98482e-08 0)
(1.28647e-07 3.9984e-08 0)
(1.52736e-07 6.38412e-08 0)
(1.78231e-07 9.09105e-08 0)
(2.04815e-07 1.20465e-07 0)
(7.46211e-09 -6.22005e-09 0)
(2.34115e-08 -1.42103e-08 0)
(4.06687e-08 -1.57574e-08 0)
(5.85439e-08 -1.12967e-08 0)
(7.73133e-08 -1.26482e-09 0)
(9.69801e-08 1.37253e-08 0)
(1.17799e-07 3.30781e-08 0)
(1.39781e-07 5.61651e-08 0)
(1.63147e-07 8.24894e-08 0)
(1.87667e-07 1.11356e-07 0)
(7.03913e-09 -7.45263e-09 0)
(2.20368e-08 -1.68755e-08 0)
(3.77636e-08 -1.93817e-08 0)
(5.37403e-08 -1.56434e-08 0)
(7.03668e-08 -6.27879e-09 0)
(8.7766e-08 8.0412e-09 0)
(1.06255e-07 2.67058e-08 0)
(1.25907e-07 4.91002e-08 0)
(1.46944e-07 7.47438e-08 0)
(1.69218e-07 1.02981e-07 0)
(7.28589e-09 -9.11331e-09 0)
(2.15428e-08 -1.98898e-08 0)
(3.5452e-08 -2.31223e-08 0)
(4.90959e-08 -1.9931e-08 0)
(6.31589e-08 -1.10926e-08 0)
(7.79128e-08 2.65652e-09 0)
(9.37396e-08 2.0708e-08 0)
(1.10763e-07 4.24689e-08 0)
(1.29204e-07 6.74823e-08 0)
(1.48983e-07 9.51336e-08 0)
(9.26176e-09 -1.2089e-08 0)
(2.22615e-08 -2.33165e-08 0)
(3.38864e-08 -2.65128e-08 0)
(4.45857e-08 -2.34419e-08 0)
(5.56015e-08 -1.49454e-08 0)
(6.7279e-08 -1.67627e-09 0)
(8.00752e-08 1.57994e-08 0)
(9.41357e-08 3.69405e-08 0)
(1.09685e-07 6.13201e-08 0)
(1.26683e-07 8.83712e-08 0)
)
;

boundaryField
{
    left
    {
        type            fixedDisplacement;
        value           uniform (0 0 0);
    }
    right
    {
        type            solidTraction;
        tractionSeries  
{
        file            "$FOAM_CASE/constant/timeVsTraction";
        outOfBounds     clamp;
}
        pressure        uniform 0;
        secondOrder     false;
        setEffectiveTraction false;
        relaxationFactor 1;
        value           nonuniform List<vector> 
30
(
(1.65122e-06 1.19196e-06 2.98907e-21)
(1.6132e-06 1.17823e-06 3.00265e-21)
(1.57484e-06 1.16461e-06 3.04229e-21)
(1.53602e-06 1.15082e-06 3.10809e-21)
(1.49675e-06 1.13671e-06 3.1986e-21)
(1.45711e-06 1.12214e-06 3.31257e-21)
(1.41724e-06 1.10701e-06 3.44791e-21)
(1.37731e-06 1.09129e-06 3.60256e-21)
(1.33748e-06 1.07495e-06 3.77409e-21)
(1.29795e-06 1.05807e-06 3.95972e-21)
(1.26055e-06 1.04144e-06 4.07359e-21)
(1.22508e-06 1.02509e-06 4.09256e-21)
(1.19011e-06 1.00848e-06 4.10605e-21)
(1.15572e-06 9.91718e-07 4.11424e-21)
(1.12194e-06 9.74904e-07 4.11607e-21)
(1.08869e-06 9.58154e-07 4.11184e-21)
(1.05603e-06 9.41533e-07 4.10244e-21)
(1.02391e-06 9.25161e-07 4.0879e-21)
(9.9224e-07 9.09111e-07 4.06923e-21)
(9.6095e-07 8.93448e-07 4.0471e-21)
(9.29942e-07 8.78222e-07 4.02248e-21)
(8.99111e-07 8.63464e-07 3.99646e-21)
(8.68347e-07 8.49185e-07 3.97035e-21)
(8.3754e-07 8.35371e-07 3.94531e-21)
(8.06589e-07 8.21991e-07 3.92236e-21)
(7.75403e-07 8.08985e-07 3.9028e-21)