/*--------------------------------*- C++ -*----------------------------------*\
  =========                 |
  \\      /  F ield         | OpenFOAM: The Open Source CFD Toolbox
   \\    /   O peration     | Website:  https://openfoam.org
    \\  /    A nd           | Version:  9
     \\/     M anipulation  |
\*---------------------------------------------------------------------------*/
FoamFile
{
    format      ascii;
    class       volVectorField;
    location    "1";
    object      D;
}
// * * * * * * * * * * * * * * * * * * * * * * * * * * * * * * * * * * * * * //

dimensions      [0 1 0 0 0 0 0];

internalField   nonuniform List<vector> 
1000
(
(6.76242e-07 2.27071e-07 0)
(6.30935e-07 2.50859e-07 0)
(5.98009e-07 2.70823e-07 0)
(5.74211e-07 2.86443e-07 0)
(5.57231e-07 2.99909e-07 0)
(5.45254e-07 3.11499e-07 0)
(5.37144e-07 3.21937e-07 0)
(5.31994e-07 3.31445e-07 0)
(5.29093e-07 3.40314e-07 0)
(5.28065e-07 3.48717e-07 0)
(6.09414e-07 2.04732e-07 0)
(5.62367e-07 2.22025e-07 0)
(5.28409e-07 2.37136e-07 0)
(5.03974e-07 2.48821e-07 0)
(4.86565e-07 2.59066e-07 0)
(4.74242e-07 2.67882e-07 0)
(4.65798e-07 2.75873e-07 0)
(4.60274e-07 2.83181e-07 0)
(4.56933e-07 2.89963e-07 0)
(4.55282e-07 2.96571e-07 0)
(5.41163e-07 1.82346e-07 0)
(4.93684e-07 1.92717e-07 0)
(4.59621e-07 2.02773e-07 0)
(4.3524e-07 2.10475e-07 0)
(4.1793e-07 2.17553e-07 0)
(4.05675e-07 2.23709e-07 0)
(3.97222e-07 2.2941e-07 0)
(3.91591e-07 2.3469e-07 0)
(3.8804e-07 2.39583e-07 0)
(3.8605e-07 2.44474e-07 0)
(4.71832e-07 1.60274e-07 0)
(4.2529e-07 1.63569e-07 0)
(3.92112e-07 1.68554e-07 0)
(3.68533e-07 1.72356e-07 0)
(3.51892e-07 1.76422e-07 0)
(3.40151e-07 1.80108e-07 0)
(3.3205e-07 1.83735e-07 0)
(3.26598e-07 1.872e-07 0)
(3.23099e-07 1.90439e-07 0)
(3.20986e-07 1.93798e-07 0)
(4.01598e-07 1.38847e-07 0)
(3.57402e-07 1.35199e-07 0)
(3.26146e-07 1.35314e-07 0)
(3.04171e-07 1.3547e-07 0)
(2.88811e-07 1.36815e-07 0)
(2.78055e-07 1.38335e-07 0)
(2.70663e-07 1.40195e-07 0)
(2.65672e-07 1.42136e-07 0)
(2.62443e-07 1.44011e-07 0)
(2.60396e-07 1.46077e-07 0)
(3.30753e-07 1.18217e-07 0)
(2.90206e-07 1.08046e-07 0)
(2.61939e-07 1.03761e-07 0)
(2.42405e-07 1.00731e-07 0)
(2.28955e-07 9.98167e-08 0)
(2.1965e-07 9.96028e-08 0)
(2.13314e-07 1.00098e-07 0)
(2.0904e-07 1.00882e-07 0)
(2.06271e-07 1.01743e-07 0)
(2.04444e-07 1.02824e-07 0)
(2.59042e-07 9.8374e-08 0)
(2.23551e-07 8.24015e-08 0)
(1.99423e-07 7.4524e-08 0)
(1.83224e-07 6.90637e-08 0)
(1.72334e-07 6.65598e-08 0)
(1.6493e-07 6.51866e-08 0)
(1.59957e-07 6.48068e-08 0)
(1.56613e-07 6.48541e-08 0)
(1.54447e-07 6.50792e-08 0)
(1.52959e-07 6.55133e-08 0)
(1.86941e-07 7.87505e-08 0)
(1.57693e-07 5.81639e-08 0)
(1.38945e-07 4.80897e-08 0)
(1.26945e-07 4.13653e-08 0)
(1.19157e-07 3.81957e-08 0)
(1.13974e-07 3.63868e-08 0)
(1.10549e-07 3.56895e-08 0)
(1.08248e-07 3.54508e-08 0)
(1.06755e-07 3.54226e-08 0)
(1.05677e-07 3.55522e-08 0)
(1.12869e-07 5.74337e-08 0)
(9.21897e-08 3.46572e-08 0)
(8.03305e-08 2.4755e-08 0)
(7.32878e-08 1.86228e-08 0)
(6.90142e-08 1.59792e-08 0)
(6.62182e-08 1.45308e-08 0)
(6.44095e-08 1.4024e-08 0)
(6.31726e-08 1.38572e-08 0)
(6.23553e-08 1.38472e-08 0)
(6.17144e-08 1.39172e-08 0)
(3.8909e-08 3.00263e-08 0)
(2.9304e-08 1.27323e-08 0)
(2.5662e-08 6.65207e-09 0)
(2.37307e-08 3.60554e-09 0)
(2.2608e-08 2.55241e-09 0)
(2.18249e-08 2.08087e-09 0)
(2.13114e-08 2.01456e-09 0)
(2.09356e-08 2.05565e-09 0)
(2.06773e-08 2.13407e-09 0)
(2.04503e-08 2.22016e-09 0)
(1.19249e-06 3.67993e-07 0)
(1.19051e-06 4.13795e-07 0)
(1.18913e-06 4.56481e-07 0)
(1.18915e-06 4.95566e-07 0)
(1.19091e-06 5.3144e-07 0)
(1.19455e-06 5.64554e-07 0)
(1.20009e-06 5.9542e-07 0)
(1.20742e-06 6.24487e-07 0)
(1.21646e-06 6.5211e-07 0)
(1.227e-06 6.78678e-07 0)
(1.15508e-06 3.64966e-07 0)
(1.14977e-06 4.1064e-07 0)
(1.14613e-06 4.52804e-07 0)
(1.14451e-06 4.91101e-07 0)
(1.14508e-06 5.26013e-07 0)
(1.14772e-06 5.58018e-07 0)
(1.15236e-06 5.87679e-07 0)
(1.15877e-06 6.1547e-07 0)
(1.16687e-06 6.41762e-07 0)
(1.17634e-06 6.66996e-07 0)
(1.11541e-06 3.58827e-07 0)
(1.10615e-06 4.0439e-07 0)
(1.09945e-06 4.45694e-07 0)
(1.09541e-06 4.82757e-07 0)
(1.09406e-06 5.16312e-07 0)
(1.09509e-06 5.46904e-07 0)
(1.09832e-06 5.75137e-07 0)
(1.10341e-06 6.01492e-07 0)
(1.11024e-06 6.26354e-07 0)
(1.11839e-06 6.50176e-07 0)
(1.07255e-06 3.49901e-07 0)
(1.05885e-06 3.95254e-07 0)
(1.04859e-06 4.35504e-07 0)
(1.04168e-06 4.71055e-07 0)
(1.03798e-06 5.02974e-07 0)
(1.03702e-06 5.31891e-07 0)
(1.03851e-06 5.58465e-07 0)
(1.04201e-06 5.8318e-07 0)
(1.04735e-06 6.06437e-07 0)
(1.05401e-06 6.28684e-07 0)
(1.026e-06 3.38275e-07 0)
(1.00744e-06 3.83058e-07 0)
(9.93358e-07 4.21921e-07 0)
(9.83421e-07 4.55613e-07 0)
(9.77246e-07 4.85578e-07 0)
(9.74185e-07 5.12532e-07 0)
(9.73832e-07 5.37199e-07 0)
(9.75651e-07 5.60062e-07 0)
(9.79451e-07 5.8154e-07 0)
(9.84578e-07 6.02053e-07 0)
(9.7569e-07 3.24219e-07 0)
(9.51985e-07 3.67814e-07 0)
(9.34013e-07 4.04886e-07 0)
(9.21057e-07 4.364e-07 0)
(9.12429e-07 4.64146e-07 0)
(9.07292e-07 4.88903e-07 0)
(9.05129e-07 5.11459e-07 0)
(9.05307e-07 5.32284e-07 0)
(9.07594e-07 5.51825e-07 0)
(9.1124e-07 5.70449e-07 0)
(9.21748e-07 3.07947e-07 0)
(8.92826e-07 3.49521e-07 0)
(8.71049e-07 3.84294e-07 0)
(8.55214e-07 4.13281e-07 0)
(8.44285e-07 4.38553e-07 0)
(8.37224e-07 4.60908e-07 0)
(8.33387e-07 4.81183e-07 0)
(8.32053e-07 4.99826e-07 0)
(8.32938e-07 5.17303e-07 0)
(8.35229e-07 5.3392e-07 0)
(8.64454e-07 2.89762e-07 0)
(8.30495e-07 3.28349e-07 0)
(8.05158e-07 3.60258e-07 0)
(7.86695e-07 3.86371e-07 0)
(7.73709e-07 4.08945e-07 0)
(7.64946e-07 4.28738e-07 0)
(7.59635e-07 4.46613e-07 0)
(7.56977e-07 4.6297e-07 0)
(7.56621e-07 4.78296e-07 0)
(7.57737e-07 4.92804e-07 0)
(8.04168e-07 2.69976e-07 0)
(7.65625e-07 3.04564e-07 0)
(7.37141e-07 3.33021e-07 0)
(7.16409e-07 3.55922e-07 0)
(7.01688e-07 3.75599e-07 0)
(6.91509e-07 3.92711e-07 0)
(6.84969e-07 4.08106e-07 0)
(6.81213e-07 4.22136e-07 0)
(6.79797e-07 4.35252e-07 0)
(6.79954e-07 4.47622e-07 0)
(7.41293e-07 2.48951e-07 0)
(6.98885e-07 2.78566e-07 0)
(6.67822e-07 3.03017e-07 0)
(6.45279e-07 3.224e-07 0)
(6.29203e-07 3.39025e-07 0)
(6.17932e-07 3.53384e-07 0)
(6.10445e-07 3.66286e-07 0)
(6.05841e-07 3.77988e-07 0)
(6.03582e-07 3.88929e-07 0)
(6.03054e-07 3.9903e-07 0)
(1.23959e-06 7.04237e-07 0)
(1.25405e-06 7.29598e-07 0)
(1.26963e-06 7.54552e-07 0)
(1.2862e-06 7.79216e-07 0)
(1.30366e-06 8.03716e-07 0)
(1.32193e-06 8.28124e-07 0)
(1.34092e-06 8.52524e-07 0)
(1.36056e-06 8.76971e-07 0)
(1.38078e-06 9.0152e-07 0)
(1.4015e-06 9.26214e-07 0)
(1.42267e-06 9.51089e-07 0)
(1.44424e-06 9.76178e-07 0)
(1.46615e-06 1.00151e-06 0)
(1.48835e-06 1.0271e-06 0)
(1.51078e-06 1.05296e-06 0)
(1.5334e-06 1.0791e-06 0)
(1.55617e-06 1.10553e-06 0)
(1.57902e-06 1.13221e-06 0)
(1.60192e-06 1.1591e-06 0)
(1.62481e-06 1.18612e-06 0)
(1.18947e-06 6.91589e-07 0)
(1.20573e-06 7.16527e-07 0)
(1.22285e-06 7.41083e-07 0)
(1.24071e-06 7.65395e-07 0)
(1.25927e-06 7.89596e-07 0)
(1.27846e-06 8.13749e-07 0)
(1.29823e-06 8.37942e-07 0)
(1.31852e-06 8.62224e-07 0)
(1.33928e-06 8.8665e-07 0)
(1.36046e-06 9.11258e-07 0)
(1.38202e-06 9.36086e-07 0)
(1.40391e-06 9.61163e-07 0)
(1.4261e-06 9.86514e-07 0)
(1.44855e-06 1.01216e-06 0)
(1.47122e-06 1.03811e-06 0)
(1.49407e-06 1.06438e-06 0)
(1.51708e-06 1.09096e-06 0)
(1.54019e-06 1.11782e-06 0)
(1.56339e-06 1.14494e-06 0)
(1.58662e-06 1.17223e-06 0)
(1.13225e-06 6.7404e-07 0)
(1.15081e-06 6.99021e-07 0)
(1.16999e-06 7.23632e-07 0)
(1.18963e-06 7.47991e-07 0)
(1.20976e-06 7.72257e-07 0)
(1.23031e-06 7.96481e-07 0)
(1.25128e-06 8.20763e-07 0)
(1.27261e-06 8.45147e-07 0)
(1.29429e-06 8.69694e-07 0)
(1.31628e-06 8.94441e-07 0)
(1.33857e-06 9.19427e-07 0)
(1.36111e-06 9.44681e-07 0)
(1.3839e-06 9.70229e-07 0)
(1.40689e-06 9.96093e-07 0)
(1.43009e-06 1.02229e-06 0)
(1.45344e-06 1.04883e-06 0)
(1.47695e-06 1.07571e-06 0)
(1.50056e-06 1.10293e-06 0)
(1.52427e-06 1.13046e-06 0)
(1.548e-06 1.15826e-06 0)
(1.06878e-06 6.51963e-07 0)
(1.09007e-06 6.77349e-07 0)
(1.11175e-06 7.02379e-07 0)
(1.13358e-06 7.27112e-07 0)
(1.15569e-06 7.51748e-07 0)
(1.17799e-06 7.76323e-07 0)
(1.20052e-06 8.00951e-07 0)
(1.22325e-06 8.25677e-07 0)
(1.24618e-06 8.50565e-07 0)
(1.2693e-06 8.75656e-07 0)
(1.29261e-06 9.00992e-07 0)
(1.31609e-06 9.26604e-07 0)
(1.33974e-06 9.52521e-07 0)
(1.36354e-06 9.78768e-07 0)
(1.38749e-06 1.00537e-06 0)
(1.41158e-06 1.03233e-06 0)
(1.43578e-06 1.05967e-06 0)
(1.46008e-06 1.0874e-06 0)
(1.48446e-06 1.11552e-06 0)
(1.50884e-06 1.14402e-06 0)
(1.00043e-06 6.24944e-07 0)
(1.02478e-06 6.51145e-07 0)
(1.0493e-06 6.7701e-07 0)
(1.07363e-06 7.02484e-07 0)
(1.09802e-06 7.27836e-07 0)
(1.12236e-06 7.53077e-07 0)
(1.14674e-06 7.7834e-07 0)
(1.17113e-06 8.03672e-07 0)
(1.19557e-06 8.29147e-07 0)
(1.22006e-06 8.54808e-07 0)
(1.24463e-06 8.80702e-07 0)
(1.26926e-06 9.06867e-07 0)
(1.29397e-06 9.33335e-07 0)
(1.31877e-06 9.60136e-07 0)
(1.34365e-06 9.87298e-07 0)
(1.36862e-06 1.01484e-06 0)
(1.39368e-06 1.0428e-06 0)
(1.4188e-06 1.07119e-06 0)
(1.44398e-06 1.10005e-06 0)
(1.46916e-06 1.12939e-06 0)
(9.28327e-07 5.93135e-07 0)
(9.55976e-07 6.20534e-07 0)
(9.8357e-07 6.47621e-07 0)
(1.01064e-06 6.74184e-07 0)
(1.03754e-06 7.00577e-07 0)
(1.06414e-06 7.26784e-07 0)
(1.09058e-06 7.52961e-07 0)
(1.11684e-06 7.79158e-07 0)
(1.143e-06 8.05458e-07 0)
(1.16905e-06 8.31911e-07 0)
(1.19505e-06 8.58571e-07 0)
(1.221e-06 8.8548e-07 0)
(1.24694e-06 9.12679e-07 0)
(1.27288e-06 9.40202e-07 0)
(1.29883e-06 9.68086e-07 0)
(1.32481e-06 9.96363e-07 0)
(1.35083e-06 1.02507e-06 0)
(1.37688e-06 1.05425e-06 0)
(1.40296e-06 1.08397e-06 0)
(1.42904e-06 1.11427e-06 0)
(8.53663e-07 5.56599e-07 0)
(8.84723e-07 5.85581e-07 0)
(9.15547e-07 6.14267e-07 0)
(9.455e-07 6.42274e-07 0)
(9.75064e-07 6.70023e-07 0)
(1.00408e-06 6.97495e-07 0)
(1.03274e-06 7.24857e-07 0)
(1.06102e-06 7.52173e-07 0)
(1.08903e-06 7.79532e-07 0)
(1.11678e-06 8.06998e-07 0)
(1.14434e-06 8.34629e-07 0)
(1.17174e-06 8.62475e-07 0)
(1.19901e-06 8.90584e-07 0)
(1.2262e-06 9.18997e-07 0)
(1.25331e-06 9.47758e-07 0)
(1.28039e-06 9.76908e-07 0)
(1.30746e-06 1.0065e-06 0)
(1.33451e-06 1.03659e-06 0)
(1.36158e-06 1.06726e-06 0)
(1.38863e-06 1.09857e-06 0)
(7.77561e-07 5.15663e-07 0)
(8.1204e-07 5.46589e-07 0)
(8.46133e-07 5.77178e-07 0)
(8.7904e-07 6.06954e-07 0)
(9.11335e-07 6.36344e-07 0)
(9.42864e-07 6.65367e-07 0)
(9.73826e-07 6.94176e-07 0)
(1.00424e-06 7.2286e-07 0)
(1.0342e-06 7.51509e-07 0)
(1.06375e-06 7.80199e-07 0)
(1.09297e-06 8.08998e-07 0)
(1.12189e-06 8.37965e-07 0)
(1.15058e-06 8.67153e-07 0)
(1.17908e-06 8.96612e-07 0)
(1.20743e-06 9.26393e-07 0)
(1.23567e-06 9.56545e-07 0)
(1.26383e-06 9.87131e-07 0)
(1.29194e-06 1.01822e-06 0)
(1.32003e-06 1.04991e-06 0)
(1.34812e-06 1.08227e-06 0)
(7.0116e-07 4.70714e-07 0)
(7.38969e-07 5.03961e-07 0)
(7.76244e-07 5.36687e-07 0)
(8.12118e-07 5.68533e-07 0)
(8.47137e-07 5.99803e-07 0)
(8.81207e-07 6.30604e-07 0)
(9.14503e-07 6.61076e-07 0)
(9.47078e-07 6.91334e-07 0)
(9.79029e-07 7.21475e-07 0)
(1.01043e-06 7.51587e-07 0)
(1.04135e-06 7.81744e-07 0)
(1.07185e-06 8.12012e-07 0)
(1.102e-06 8.4245e-07 0)
(1.13186e-06 8.73114e-07 0)
(1.16147e-06 9.04059e-07 0)
(1.1909e-06 9.35341e-07 0)
(1.22019e-06 9.67028e-07 0)
(1.24938e-06 9.99193e-07 0)
(1.27852e-06 1.03196e-06 0)
(1.30767e-06 1.06539e-06 0)
(6.25361e-07 4.22442e-07 0)
(6.66322e-07 4.58246e-07 0)
(7.06449e-07 4.93181e-07 0)
(7.45218e-07 5.27316e-07 0)
(7.8291e-07 5.60714e-07 0)
(8.19532e-07 5.93535e-07 0)
(8.55195e-07 6.25901e-07 0)
(8.89975e-07 6.5794e-07 0)
(9.23965e-07 6.89761e-07 0)
(9.57245e-07 7.21465e-07 0)
(9.89901e-07 7.53138e-07 0)
(1.02201e-06 7.84853e-07 0)
(1.05364e-06 8.16679e-07 0)
(1.08488e-06 8.48675e-07 0)
(1.11577e-06 8.80902e-07 0)
(1.1464e-06 9.13418e-07 0)
(1.17681e-06 9.46294e-07 0)
(1.20708e-06 9.79604e-07 0)
(1.23727e-06 1.01347e-06 0)
(1.26748e-06 1.04797e-06 0)
(5.669e-07 3.86249e-07 0)
(6.09605e-07 4.23902e-07 0)
(6.51233e-07 4.60089e-07 0)
(6.91573e-07 4.9553e-07 0)
(7.30783e-07 5.30232e-07 0)
(7.68873e-07 5.64342e-07 0)
(8.05942e-07 5.97974e-07 0)
(8.42052e-07 6.3124e-07 0)
(8.77291e-07 6.64243e-07 0)
(9.11736e-07 6.97075e-07 0)
(9.4547e-07 7.29818e-07 0)
(9.78572e-07 7.62544e-07 0)
(1.01112e-06 7.95319e-07 0)
(1.04319e-06 8.282e-07 0)
(1.07485e-06 8.61245e-07 0)
(1.10618e-06 8.9451e-07 0)
(1.13724e-06 9.28058e-07 0)
(1.16813e-06 9.61958e-07 0)
(1.19889e-06 9.96315e-07 0)
(1.22969e-06 1.0312e-06 0)
(5.27896e-07 3.64591e-07 0)
(5.70601e-07 4.02239e-07 0)
(6.12242e-07 4.38721e-07 0)
(6.52713e-07 4.74561e-07 0)
(6.92122e-07 5.09756e-07 0)
(7.30464e-07 5.44407e-07 0)
(7.67818e-07 5.78606e-07 0)
(8.04229e-07 6.1244e-07 0)
(8.39773e-07 6.45997e-07 0)
(8.74515e-07 6.79353e-07 0)
(9.08531e-07 7.1258e-07 0)
(9.41891e-07 7.45741e-07 0)
(9.74671e-07 7.78894e-07 0)
(1.00694e-06 8.12092e-07 0)
(1.03878e-06 8.45383e-07 0)
(1.07026e-06 8.78817e-07 0)
(1.10144e-06 9.12447e-07 0)
(1.13244e-06 9.46331e-07 0)
(1.1633e-06 9.80549e-07 0)
(1.19421e-06 1.01515e-06 0)
(4.93462e-07 3.43798e-07 0)
(5.35401e-07 3.81331e-07 0)
(5.76615e-07 4.17915e-07 0)
(6.16777e-07 4.53999e-07 0)
(6.56026e-07 4.89548e-07 0)
(6.94295e-07 5.24628e-07 0)
(7.31653e-07 5.59304e-07 0)
(7.68118e-07 5.9364e-07 0)
(8.03752e-07 6.277e-07 0)
(8.38605e-07 6.61547e-07 0)
(8.72742e-07 6.95237e-07 0)
(9.06226e-07 7.28822e-07 0)
(9.39125e-07 7.62349e-07 0)
(9.71507e-07 7.9586e-07 0)
(1.00344e-06 8.29397e-07 0)
(1.03501e-06 8.62998e-07 0)
(1.06627e-06 8.96703e-07 0)
(1.09734e-06 9.30556e-07 0)
(1.12826e-06 9.64605e-07 0)
(1.15924e-06 9.98888e-07 0)
(4.62605e-07 3.23773e-07 0)
(5.03541e-07 3.61001e-07 0)
(5.44013e-07 3.9755e-07 0)
(5.83576e-07 4.33774e-07 0)
(6.22382e-07 4.69593e-07 0)
(6.60317e-07 5.05033e-07 0)
(6.97438e-07 5.4013e-07 0)
(7.33739e-07 5.74919e-07 0)
(7.69267e-07 6.09446e-07 0)
(8.04059e-07 6.43753e-07 0)
(8.38167e-07 6.77881e-07 0)
(8.71645e-07 7.11871e-07 0)
(9.04553e-07 7.45757e-07 0)
(9.36955e-07 7.79573e-07 0)
(9.68914e-07 8.13346e-07 0)
(1.0005e-06 8.47106e-07 0)
(1.0318e-06 8.80874e-07 0)
(1.06289e-06 9.14684e-07 0)
(1.09385e-06 9.48553e-07 0)
(1.12487e-06 9.82489e-07 0)
(4.34965e-07 3.04727e-07 0)
(4.74671e-07 3.41536e-07 0)
(5.14149e-07 3.7793e-07 0)
(5.52871e-07 4.14173e-07 0)
(5.90999e-07 4.50149e-07 0)
(6.28381e-07 4.85851e-07 0)
(6.6506e-07 5.21282e-07 0)
(7.01009e-07 5.56453e-07 0)
(7.36262e-07 5.91385e-07 0)
(7.7084e-07 6.26103e-07 0)
(8.04785e-07 6.6063e-07 0)
(8.3814e-07 6.94993e-07 0)
(8.70957e-07 7.29214e-07 0)
(9.03292e-07 7.63313e-07 0)
(9.35205e-07 7.97309e-07 0)
(9.6676e-07 8.31214e-07 0)
(9.98035e-07 8.65038e-07 0)
(1.0291e-06 8.98794e-07 0)
(1.06008e-06 9.32454e-07 0)
(1.09112e-06 9.66035e-07 0)
(4.10011e-07 2.86647e-07 0)
(4.48364e-07 3.22934e-07 0)
(4.86682e-07 3.59071e-07 0)
(5.24396e-07 3.95235e-07 0)
(5.61668e-07 4.31275e-07 0)
(5.98322e-07 4.67156e-07 0)
(6.34391e-07 5.02845e-07 0)
(6.6983e-07 5.38331e-07 0)
(7.0466e-07 5.7361e-07 0)
(7.38891e-07 6.08686e-07 0)
(7.72552e-07 6.43569e-07 0)
(8.05679e-07 6.78268e-07 0)
(8.38314e-07 7.12792e-07 0)
(8.70506e-07 7.4715e-07 0)
(9.02307e-07 7.81346e-07 0)
(9.33782e-07 8.1538e-07 0)
(9.64989e-07 8.49248e-07 0)
(9.96023e-07 8.82929e-07 0)
(1.02694e-06 9.16394e-07 0)
(1.05793e-06 9.49639e-07 0)
(3.8731e-07 2.69548e-07 0)
(4.24233e-07 3.05252e-07 0)
(4.61275e-07 3.41055e-07 0)
(4.97857e-07 3.77055e-07 0)
(5.34139e-07 4.13077e-07 0)
(5.69929e-07 4.49053e-07 0)
(6.05252e-07 4.84925e-07 0)
(6.40051e-07 5.20654e-07 0)
(6.74337e-07 5.56215e-07 0)
(7.08107e-07 5.91594e-07 0)
(7.41384e-07 6.26782e-07 0)
(7.74191e-07 6.61773e-07 0)
(8.06564e-07 6.96563e-07 0)
(8.38544e-07 7.31148e-07 0)
(8.70176e-07 7.6552e-07 0)
(9.01517e-07 7.99665e-07 0)
(9.32621e-07 8.33561e-07 0)
(9.63572e-07 8.6718e-07 0)
(9.94418e-07 9.00458e-07 0)
(1.02533e-06 9.33366e-07 0)
(3.66439e-07 2.53385e-07 0)
(4.01893e-07 2.88467e-07 0)
(4.37588e-07 3.23882e-07 0)
(4.72957e-07 3.59655e-07 0)
(5.08151e-07 3.95589e-07 0)
(5.42976e-07 4.31592e-07 0)
(5.77448e-07 4.67578e-07 0)
(6.11504e-07 5.03485e-07 0)
(6.45146e-07 5.39268e-07 0)
(6.78363e-07 5.74893e-07 0)
(7.11168e-07 6.10334e-07 0)
(7.43579e-07 6.45571e-07 0)
(7.75621e-07 6.80587e-07 0)
(8.07329e-07 7.15365e-07 0)
(8.38741e-07 7.49885e-07 0)
(8.69906e-07 7.84121e-07 0)
(9.00869e-07 8.18038e-07 0)
(9.31706e-07 8.51589e-07 0)
(9.62455e-07 8.84693e-07 0)
(9.93265e-07 9.17304e-07 0)
(3.47018e-07 2.38112e-07 0)
(3.8099e-07 2.72561e-07 0)
(4.15297e-07 3.07554e-07 0)
(4.49398e-07 3.43053e-07 0)
(4.83435e-07 3.78846e-07 0)
(5.17219e-07 4.14817e-07 0)
(5.50762e-07 4.50855e-07 0)
(5.83996e-07 4.8688e-07 0)
(6.16915e-07 5.22825e-07 0)
(6.49504e-07 5.58639e-07 0)
(6.81768e-07 5.94281e-07 0)
(7.13718e-07 6.29717e-07 0)
(7.45373e-07 6.64916e-07 0)
(7.7676e-07 6.99851e-07 0)
(8.07909e-07 7.34489e-07 0)
(8.38861e-07 7.68796e-07 0)
(8.69654e-07 8.02723e-07 0)
(9.00349e-07 8.36213e-07 0)
(9.30976e-07 8.69165e-07 0)
(9.6166e-07 9.01518e-07 0)
(3.28699e-07 2.2367e-07 0)
(3.61188e-07 2.57494e-07 0)
(3.94085e-07 2.92049e-07 0)
(4.26884e-07 3.27245e-07 0)
(4.59719e-07 3.62855e-07 0)
(4.9241e-07 3.98746e-07 0)
(5.24965e-07 4.34784e-07 0)
(5.57317e-07 4.70872e-07 0)
(5.89454e-07 5.06924e-07 0)
(6.21358e-07 5.42874e-07 0)
(6.53027e-07 5.78665e-07 0)
(6.84467e-07 6.14251e-07 0)
(7.15689e-07 6.49591e-07 0)
(7.46715e-07 6.84645e-07 0)
(7.77566e-07 7.19372e-07 0)
(8.08276e-07 7.53728e-07 0)
(8.38872e-07 7.87656e-07 0)
(8.69404e-07 8.21091e-07 0)
(8.99892e-07 8.53917e-07 0)
(9.30428e-07 8.86067e-07 0)
(3.11159e-07 2.10002e-07 0)
(3.42171e-07 2.43224e-07 0)
(3.73647e-07 2.77341e-07 0)
(4.05124e-07 3.12218e-07 0)
(4.36727e-07 3.47618e-07 0)
(4.6829e-07 3.8339e-07 0)
(4.99818e-07 4.19384e-07 0)
(5.31245e-07 4.55485e-07 0)
(5.6256e-07 4.91593e-07 0)
(5.93736e-07 5.27627e-07 0)
(6.24772e-07 5.63519e-07 0)
(6.55665e-07 5.99208e-07 0)
(6.86422e-07 6.34644e-07 0)
(7.17056e-07 6.69779e-07 0)
(7.47584e-07 7.04565e-07 0)
(7.78028e-07 7.3895e-07 0)
(8.0841e-07 7.7287e-07 0)
(8.38762e-07 8.06257e-07 0)
(8.69095e-07 8.38989e-07 0)
(8.99469e-07 8.70992e-07 0)
(2.94097e-07 1.97061e-07 0)
(3.23636e-07 2.29715e-07 0)
(3.53686e-07 2.63404e-07 0)
(3.83829e-07 2.97956e-07 0)
(4.14183e-07 3.33126e-07 0)
(4.44596e-07 3.68749e-07 0)
(4.75073e-07 4.0466e-07 0)
(5.05551e-07 4.40731e-07 0)
(5.36015e-07 4.76849e-07 0)
(5.6644e-07 5.12919e-07 0)
(5.96817e-07 5.48862e-07 0)
(6.27139e-07 5.84609e-07 0)
(6.5741e-07 6.20099e-07 0)
(6.87633e-07 6.55278e-07 0)
(7.1782e-07 6.90091e-07 0)
(7.47985e-07 7.24482e-07 0)
(7.78139e-07 7.58387e-07 0)
(8.083e-07 7.91733e-07 0)
(8.38471e-07 8.24402e-07 0)
(8.68675e-07 8.5632e-07 0)
(2.77222e-07 1.84801e-07 0)
(3.05288e-07 2.1693e-07 0)
(3.33908e-07 2.50209e-07 0)
(3.62711e-07 2.84437e-07 0)
(3.91806e-07 3.19365e-07 0)
(4.2106e-07 3.54814e-07 0)
(4.50474e-07 3.90609e-07 0)
(4.79991e-07 4.26611e-07 0)
(5.09594e-07 4.62694e-07 0)
(5.39257e-07 4.98756e-07 0)
(5.68965e-07 5.34705e-07 0)
(5.98709e-07 5.70465e-07 0)
(6.28484e-07 6.05969e-07 0)
(6.5829e-07 6.41154e-07 0)
(6.88129e-07 6.75964e-07 0)
(7.18007e-07 7.1034e-07 0)
(7.47927e-07 7.44218e-07 0)
(7.77892e-07 7.77531e-07 0)
(8.07898e-07 8.10167e-07 0)
(8.37932e-07 8.42061e-07 0)
(2.60247e-07 1.73205e-07 0)
(2.86832e-07 2.04851e-07 0)
(3.14016e-07 2.37739e-07 0)
(3.41476e-07 2.71647e-07 0)
(3.69311e-07 3.06322e-07 0)
(3.97404e-07 3.41576e-07 0)
(4.25758e-07 3.77225e-07 0)
(4.54317e-07 4.1312e-07 0)
(4.83064e-07 4.49128e-07 0)
(5.11969e-07 4.85136e-07 0)
(5.41016e-07 5.21048e-07 0)
(5.70187e-07 5.56779e-07 0)
(5.99472e-07 5.92256e-07 0)
(6.28865e-07 6.27413e-07 0)
(6.58359e-07 6.62189e-07 0)
(6.87953e-07 6.96527e-07 0)
(7.17641e-07 7.30368e-07 0)
(7.47414e-07 7.6365e-07 0)
(7.77256e-07 7.9628e-07 0)
(8.07127e-07 8.28204e-07 0)
(2.42872e-07 1.62242e-07 0)
(2.67961e-07 1.93446e-07 0)
(2.93701e-07 2.25963e-07 0)
(3.19816e-07 2.59556e-07 0)
(3.46397e-07 2.93969e-07 0)
(3.73342e-07 3.29008e-07 0)
(4.00649e-07 3.64481e-07 0)
(4.2827e-07 4.00235e-07 0)
(4.56181e-07 4.36129e-07 0)
(4.84352e-07 4.72044e-07 0)
(5.12758e-07 5.07877e-07 0)
(5.41379e-07 5.43539e-07 0)
(5.70197e-07 5.78952e-07 0)
(5.99196e-07 6.14046e-07 0)
(6.28363e-07 6.4876e-07 0)
(6.57687e-07 6.83039e-07 0)
(6.87154e-07 7.16829e-07 0)
(7.16744e-07 7.5008e-07 0)
(7.46432e-07 7.82722e-07 0)
(7.76156e-07 8.14723e-07 0)
(2.24791e-07 1.51945e-07 0)
(2.4836e-07 1.82738e-07 0)
(2.72645e-07 2.14894e-07 0)
(2.9742e-07 2.48169e-07 0)
(3.22759e-07 2.82303e-07 0)
(3.48577e-07 3.171e-07 0)
(3.74869e-07 3.52365e-07 0)
(4.01585e-07 3.87939e-07 0)
(4.28699e-07 4.23677e-07 0)
(4.56175e-07 4.59457e-07 0)
(4.83985e-07 4.95171e-07 0)
(5.12097e-07 5.30724e-07 0)
(5.40486e-07 5.66036e-07 0)
(5.69129e-07 6.01036e-07 0)
(5.98002e-07 6.35662e-07 0)
(6.27084e-07 6.6986e-07 0)
(6.56353e-07 7.03584e-07 0)
(6.85779e-07 7.36799e-07 0)
(7.15329e-07 7.69462e-07 0)
(7.44926e-07 8.01568e-07 0)
(2.05645e-07 1.42265e-07 0)
(2.27667e-07 1.72672e-07 0)
(2.50488e-07 2.04472e-07 0)
(2.73933e-07 2.37422e-07 0)
(2.98057e-07 2.7126e-07 0)
(3.22787e-07 3.0579e-07 0)
(3.4811e-07 3.40815e-07 0)
(3.73976e-07 3.76173e-07 0)
(4.00353e-07 4.11718e-07 0)
(4.27199e-07 4.47325e-07 0)
(4.54475e-07 4.82881e-07 0)
(4.82142e-07 5.18291e-07 0)
(5.10166e-07 5.53471e-07 0)
(5.38511e-07 5.88349e-07 0)
(5.67143e-07 6.22863e-07 0)
(5.96031e-07 6.56961e-07 0)
(6.25141e-07 6.90606e-07 0)
(6.54436e-07 7.23774e-07 0)
(6.83873e-07 7.56456e-07 0)
(7.13372e-07 7.88678e-07 0)
(1.85077e-07 1.33348e-07 0)
(2.05522e-07 1.6336e-07 0)
(2.26877e-07 1.9478e-07 0)
(2.49012e-07 2.27371e-07 0)
(2.71961e-07 2.60873e-07 0)
(2.95658e-07 2.9509e-07 0)
(3.2008e-07 3.29826e-07 0)
(3.45173e-07 3.64919e-07 0)
(3.70895e-07 4.00222e-07 0)
(3.97195e-07 4.35607e-07 0)
(4.24026e-07 4.70963e-07 0)
(4.51337e-07 5.06191e-07 0)
(4.79081e-07 5.41205e-07 0)
(5.07211e-07 5.75934e-07 0)
(5.3568e-07 6.10313e-07 0)
(5.64443e-07 6.44296e-07 0)
(5.93454e-07 6.77848e-07 0)
(6.22665e-07 7.10959e-07 0)
(6.52027e-07 7.43647e-07 0)
(6.81461e-07 7.75972e-07 0)
(1.62572e-07 1.24988e-07 0)
(1.81418e-07 1.54599e-07 0)
(2.01322e-07 1.85621e-07 0)
(2.22191e-07 2.17827e-07 0)
(2.44033e-07 2.50963e-07 0)
(2.66782e-07 2.84833e-07 0)
(2.904e-07 3.19244e-07 0)
(3.14827e-07 3.54036e-07 0)
(3.40009e-07 3.89061e-07 0)
(3.65882e-07 4.24191e-07 0)
(3.92388e-07 4.59314e-07 0)
(4.19464e-07 4.94332e-07 0)
(4.4705e-07 5.29159e-07 0)
(4.75083e-07 5.63719e-07 0)
(5.03504e-07 5.97952e-07 0)
(5.32249e-07 6.31809e-07 0)
(5.61258e-07 6.65261e-07 0)
(5.90465e-07 6.98305e-07 0)
(6.19811e-07 7.30978e-07 0)
(6.49217e-07 7.63373e-07 0)
(1.37826e-07 1.17668e-07 0)
(1.55062e-07 1.46782e-07 0)
(1.7355e-07 1.77308e-07 0)
(1.93215e-07 2.09032e-07 0)
(2.14035e-07 2.41708e-07 0)
(2.3594e-07 2.75142e-07 0)
(2.58873e-07 3.09144e-07 0)
(2.82761e-07 3.43556e-07 0)
(3.07534e-07 3.78231e-07 0)
(3.33118e-07 4.13041e-07 0)
(3.59438e-07 4.47875e-07 0)
(3.86419e-07 4.82634e-07 0)
(4.13987e-07 5.17233e-07 0)
(4.42065e-07 5.51596e-07 0)
(4.70576e-07 5.85664e-07 0)
(4.99439e-07 6.19388e-07 0)
(5.28574e-07 6.52741e-07 0)
(5.57889e-07 6.85721e-07 0)
(5.87308e-07 7.18366e-07 0)
(6.16735e-07 7.5078e-07 0)
(1.97692e-08 2.11915e-09 0)
(5.97251e-08 1.31183e-08 0)
(1.02191e-07 3.36082e-08 0)
(1.47717e-07 6.22537e-08 0)
(1.97168e-07 9.82667e-08 0)
(2.50823e-07 1.40373e-07 0)
(3.08893e-07 1.87202e-07 0)
(3.71282e-07 2.37318e-07 0)
(4.37799e-07 2.89274e-07 0)
(5.08096e-07 3.41861e-07 0)
(1.86217e-08 1.89166e-09 0)
(5.62992e-08 1.17727e-08 0)
(9.62419e-08 3.03745e-08 0)
(1.38876e-07 5.66194e-08 0)
(1.84991e-07 8.99115e-08 0)
(2.34846e-07 1.2918e-07 0)
(2.88655e-07 1.73235e-07 0)
(3.46332e-07 2.20811e-07 0)
(4.07661e-07 2.70522e-07 0)
(4.72281e-07 3.214e-07 0)
(1.75902e-08 1.62379e-09 0)
(5.32255e-08 1.04128e-08 0)
(9.09354e-08 2.72517e-08 0)
(1.31008e-07 5.12586e-08 0)
(1.74145e-07 8.19844e-08 0)
(2.20567e-07 1.18522e-07 0)
(2.70504e-07 1.59835e-07 0)
(3.23922e-07 2.04831e-07 0)
(3.80736e-07 2.52256e-07 0)
(4.4056e-07 3.01409e-07 0)
(1.6646e-08 1.31317e-09 0)
(5.04245e-08 9.0466e-09 0)
(8.61571e-08 2.42915e-08 0)
(1.24005e-07 4.63061e-08 0)
(1.64595e-07 7.47491e-08 0)
(2.08089e-07 1.08839e-07 0)
(2.54702e-07 1.47652e-07 0)
(3.04374e-07 1.90211e-07 0)
(3.5711e-07 2.3533e-07 0)
(4.12441e-07 2.82397e-07 0)
(1.57636e-08 9.56898e-10 0)
(4.78112e-08 7.62854e-09 0)
(8.17298e-08 2.13631e-08 0)
(1.17564e-07 4.15228e-08 0)
(1.55873e-07 6.78465e-08 0)
(1.96767e-07 9.96527e-08 0)
(2.40457e-07 1.36116e-07 0)
(2.8686e-07 1.76369e-07 0)
(3.36068e-07 2.19325e-07 0)
(3.87468e-07 2.6437e-07 0)
(1.49352e-08 5.60547e-10 0)
(4.53616e-08 6.1663e-09 0)
(7.76091e-08 1.84781e-08 0)
(1.11617e-07 3.69343e-08 0)
(1.47887e-07 6.13311e-08 0)
(1.86472e-07 9.10599e-08 0)
(2.27574e-07 1.25368e-07 0)
(2.71069e-07 1.63456e-07 0)
(3.17133e-07 2.04338e-07 0)
(3.65055e-07 2.4736e-07 0)
(1.41444e-08 1.22513e-10 0)
(4.30252e-08 4.63988e-09 0)
(7.36989e-08 1.55781e-08 0)
(1.06011e-07 3.24317e-08 0)
(1.40415e-07 5.50394e-08 0)
(1.76913e-07 8.2849e-08 0)
(2.15702e-07 1.1517e-07 0)
(2.56619e-07 1.51259e-07 0)
(2.99897e-07 1.90219e-07 0)
(3.44758e-07 2.31339e-07 0)
(1.33848e-08 -3.51878e-10 0)
(4.07816e-08 3.05479e-09 0)
(6.99595e-08 1.2663e-08 0)
(1.00679e-07 2.80087e-08 0)
(1.33354e-07 4.89599e-08 0)
(1.67939e-07 7.50038e-08 0)
(2.04624e-07 1.05499e-07 0)
(2.43218e-07 1.39736e-07 0)
(2.83991e-07 1.76906e-07 0)
(3.26141e-07 2.16245e-07 0)
(1.26468e-08 -8.62616e-10 0)
(3.86021e-08 1.40316e-09 0)
(6.63381e-08 9.70681e-09 0)
(9.55387e-08 2.36151e-08 0)
(1.26583e-07 4.30166e-08 0)
(1.59388e-07 6.74263e-08 0)
(1.94134e-07 9.62429e-08 0)
(2.30613e-07 1.2878e-07 0)
(2.6911e-07 1.64302e-07 0)
(3.08835e-07 2.02006e-07 0)
(1.19249e-08 -1.40642e-09 0)
(3.64699e-08 -3.12475e-10 0)
(6.28029e-08 6.70589e-09 0)
(9.05365e-08 1.9239e-08 0)
(1.2002e-07 3.71869e-08 0)
(1.51137e-07 6.00823e-08 0)
(1.84062e-07 8.73533e-08 0)
(2.18581e-07 1.1833e-07 0)
(2.54979e-07 1.52336e-07 0)
(2.92505e-07 1.88548e-07 0)
(1.12132e-08 -1.98288e-09 0)
(3.43681e-08 -2.09577e-09 0)
(5.93223e-08 3.64745e-09 0)
(8.56209e-08 1.48562e-08 0)
(1.13585e-07 3.14341e-08 0)
(1.43077e-07 5.2923e-08 0)
(1.74261e-07 7.87714e-08 0)
(2.06929e-07 1.0832e-07 0)
(2.41358e-07 1.40941e-07 0)
(2.76852e-07 1.75802e-07 0)
(1.0508e-08 -2.59106e-09 0)
(3.22862e-08 -3.94725e-09 0)
(5.58749e-08 5.27217e-10 0)
(8.0753e-08 1.04587e-08 0)
(1.07216e-07 2.57444e-08 0)
(1.3511e-07 4.59273e-08 0)
(1.64596e-07 7.04668e-08 0)
(1.9548e-07 9.8712e-08 0)
(2.28025e-07 1.30068e-07 0)
(2.61603e-07 1.63711e-07 0)
(9.80681e-09 -3.23241e-09 0)
(3.02194e-08 -5.87255e-09 0)
(5.24468e-08 -2.66472e-09 0)
(7.59019e-08 6.0336e-09 0)
(1.00856e-07 2.01012e-08 0)
(1.27149e-07 3.90736e-08 0)
(1.54942e-07 6.24116e-08 0)
(1.84066e-07 8.94698e-08 0)
(2.14767e-07 1.19679e-07 0)
(2.46494e-07 1.52228e-07 0)
(9.10971e-09 -3.9123e-09 0)
(2.81708e-08 -7.87851e-09 0)
(4.90336e-08 -5.93206e-09 0)
(7.1046e-08 1.58411e-09 0)
(9.44563e-08 1.4512e-08 0)
(1.19113e-07 3.23695e-08 0)
(1.45181e-07 5.46104e-08 0)
(1.72525e-07 8.05921e-08 0)
(2.01379e-07 1.09763e-07 0)
(2.31271e-07 1.41335e-07 0)
(8.42278e-09 -4.64073e-09 0)
(2.61653e-08 -9.98254e-09 0)
(4.56534e-08 -9.29032e-09 0)
(6.61804e-08 -2.89964e-09 0)
(8.79773e-08 8.97164e-09 0)
(1.10919e-07 2.5811e-08 0)
(1.35186e-07 4.70567e-08 0)
(1.60686e-07 7.20668e-08 0)
(1.87643e-07 1.00304e-07 0)
(2.15667e-07 1.31004e-07 0)
(7.75947e-09 -5.45139e-09 0)
(2.42444e-08 -1.22102e-08 0)
(4.23379e-08 -1.27347e-08 0)
(6.13072e-08 -7.37938e-09 0)
(8.1381e-08 3.54027e-09 0)
(1.02486e-07 1.94685e-08 0)
(1.2483e-07 3.9822e-08 0)
(1.48373e-07 6.39604e-08 0)
(1.73334e-07 9.13583e-08 0)
(1.99408e-07 1.21281e-07 0)
(7.16853e-09 -6.38472e-09 0)
(2.25348e-08 -1.4612e-08 0)
(3.91916e-08 -1.62974e-08 0)
(5.6471e-08 -1.18756e-08 0)
(7.46409e-08 -1.79276e-09 0)
(9.37182e-08 1.33323e-08 0)
(1.13954e-07 3.28931e-08 0)
(1.3537e-07 5.62518e-08 0)
(1.58181e-07 8.28964e-08 0)
(1.82168e-07 1.12125e-07 0)
(6.75584e-09 -7.61331e-09 0)
(2.11877e-08 -1.72661e-08 0)
(3.632e-08 -1.99096e-08 0)
(5.16965e-08 -1.6214e-08 0)
(6.77113e-08 -6.80447e-09 0)
(8.4503e-08 7.64301e-09 0)
(1.02388e-07 2.65076e-08 0)
(1.2145e-07 4.91657e-08 0)
(1.41907e-07 7.51224e-08 0)
(1.63621e-07 1.03715e-07 0)
(7.02683e-09 -9.26626e-09 0)
(2.07486e-08 -2.02697e-08 0)
(3.40693e-08 -2.36369e-08 0)
(4.71041e-08 -2.04898e-08 0)
(6.05368e-08 -1.16097e-08 0)
(7.46588e-08 2.26195e-09 0)
(8.98538e-08 2.05075e-08 0)
(1.06258e-07 4.25258e-08 0)
(1.2409e-07 6.78466e-08 0)
(1.43279e-07 9.58481e-08 0)
(9.08291e-09 -1.226e-08 0)
(2.15807e-08 -2.36929e-08 0)
(3.26118e-08 -2.70105e-08 0)
(4.26788e-08 -2.39783e-08 0)
(5.30317e-08 -1.54388e-08 0)
(6.40413e-08 -2.0493e-09 0)
(7.61688e-08 1.56164e-08 0)
(8.95729e-08 3.70097e-08 0)
(1.04478e-07 6.16912e-08 0)
(1.20852e-07 8.90871e-08 0)
)
;

boundaryField
{
    left
    {
        type            fixedDisplacement;
        value           uniform (0 0 0);
    }
    right
    {
        type            solidTraction;
        tractionSeries  
{
        file            "$FOAM_CASE/constant/timeVsTraction";
        outOfBounds     clamp;
}
        pressure        uniform 0;
        secondOrder     false;
        setEffectiveTraction false;
        relaxationFactor 1;
        value           nonuniform List<vector> 
30
(
(1.63621e-06 1.1996e-06 2.96174e-23)
(1.59809e-06 1.18585e-06 3.22096e-24)
(1.55962e-06 1.17219e-06 -1.19775e-26)
(1.52071e-06 1.15838e-06 3.08975e-23)
(1.48136e-06 1.14425e-06 -1.38855e-23)
(1.44166e-06 1.12966e-06 -1.218e-23)
(1.40175e-06 1.11453e-06 -6.3467e-24)
(1.3618e-06 1.09881e-06 -1.97643e-23)
(1.32199e-06 1.0825e-06 2.01766e-23)
(1.28247e-06 1.06565e-06 1.38494e-23)
(1.2451e-06 1.04907e-06 2.32633e-25)
(1.20967e-06 1.03276e-06 7.1652e-38)
(1.17475e-06 1.01622e-06 7.44252e-24)
(1.14039e-06 9.99519e-07 7.31179e-24)
(1.10665e-06 9.82771e-07 -1.43713e-23)
(1.07343e-06 9.66087e-07 4.71871e-38)
(1.0408e-06 9.49532e-07 9.34284e-38)
(1.00868e-06 9.33221e-07 -6.83418e-24)
(9.77012e-07 9.17227e-07 6.74483e-24)
(9.45704e-07 9.01614e-07 4.55193e-38)
(9.14662e-07 8.8643e-07 4.56696e-38)
(8.8378e-07 8.71705e-07 4.55103e-38)
(8.5295e-07 8.57448e-07 2.2759e-38)
(8.22062e-07 8.43648e-07 -8.17504e-40)
(7.91015e-07 8.30273e-07 -2.44033e-38)
(7.59722e-07 8.17264e-07 -7.02682e-38)
(7.2812e-07 8.04545e-07 -7.04047e-38)