/*--------------------------------*- C++ -*----------------------------------*\
  =========                 |
  \\      /  F ield         | OpenFOAM: The Open Source CFD Toolbox
   \\    /   O peration     | Website:  https://openfoam.org
    \\  /    A nd           | Version:  9
     \\/     M anipulation  |
\*---------------------------------------------------------------------------*/
FoamFile
{
    format      ascii;
    class       volScalarField;
    location    "1";
    object      epsilonEq;
}
// * * * * * * * * * * * * * * * * * * * * * * * * * * * * * * * * * * * * * //

dimensions      [0 0 0 0 0 0 0];

internalField   nonuniform List<scalar> 
1000
(
6.81208e-07
6.49561e-07
6.41472e-07
6.47173e-07
6.48219e-07
6.46952e-07
6.42459e-07
6.35569e-07
6.27856e-07
6.18267e-07
7.94886e-07
7.23944e-07
6.90077e-07
6.79844e-07
6.70352e-07
6.61998e-07
6.52194e-07
6.4175e-07
6.29931e-07
6.19503e-07
9.06196e-07
7.95649e-07
7.33952e-07
7.05514e-07
6.83757e-07
6.6703e-07
6.51047e-07
6.36164e-07
6.20531e-07
6.08016e-07
1.01288e-06
8.63754e-07
7.73214e-07
7.248e-07
6.89274e-07
6.63142e-07
6.40392e-07
6.20824e-07
6.01543e-07
5.86862e-07
1.11151e-06
9.2656e-07
8.07099e-07
7.37577e-07
6.87091e-07
6.50689e-07
6.20735e-07
5.96256e-07
5.73596e-07
5.56653e-07
1.20234e-06
9.8347e-07
8.35095e-07
7.43837e-07
6.77617e-07
6.30491e-07
5.93178e-07
5.63805e-07
5.38031e-07
5.188e-07
1.28011e-06
1.03057e-06
8.53169e-07
7.40684e-07
6.59414e-07
6.02318e-07
5.58445e-07
5.24821e-07
4.96606e-07
4.7532e-07
1.35246e-06
1.0657e-06
8.57813e-07
7.26528e-07
6.32661e-07
5.67945e-07
5.19506e-07
4.83155e-07
4.53716e-07
4.31043e-07
1.40142e-06
1.06791e-06
8.30605e-07
6.88643e-07
5.9181e-07
5.26275e-07
4.78165e-07
4.42134e-07
4.134e-07
3.90397e-07
1.4413e-06
1.00565e-06
7.67726e-07
6.35292e-07
5.51489e-07
4.93388e-07
4.50544e-07
4.17154e-07
3.90123e-07
3.67146e-07
4.88644e-09
9.48558e-09
2.93828e-08
5.61683e-08
8.53597e-08
1.15433e-07
1.44619e-07
1.7243e-07
1.97965e-07
2.2163e-07
1.10344e-08
3.74546e-08
7.68561e-08
1.15586e-07
1.49902e-07
1.80308e-07
2.06773e-07
2.3039e-07
2.50618e-07
2.69587e-07
2.94186e-08
8.36927e-08
1.33693e-07
1.78809e-07
2.1637e-07
2.47509e-07
2.72765e-07
2.93902e-07
3.10414e-07
3.25986e-07
6.45965e-08
1.41088e-07
1.97489e-07
2.45144e-07
2.83041e-07
3.13367e-07
3.36895e-07
3.55697e-07
3.69143e-07
3.82019e-07
1.15978e-07
2.06084e-07
2.66228e-07
3.14299e-07
3.50481e-07
3.78438e-07
3.99229e-07
4.1511e-07
4.25384e-07
4.35498e-07
1.82913e-07
2.75387e-07
3.35735e-07
3.82474e-07
4.15653e-07
4.40269e-07
4.57653e-07
4.70167e-07
4.77181e-07
4.8437e-07
2.63876e-07
3.47731e-07
4.04027e-07
4.47562e-07
4.76717e-07
4.97333e-07
5.10869e-07
5.19719e-07
5.23438e-07
5.27523e-07
3.56861e-07
4.22082e-07
4.69406e-07
5.07457e-07
5.31541e-07
5.47619e-07
5.57097e-07
5.62151e-07
5.62843e-07
5.63634e-07
4.59279e-07
4.97723e-07
5.31076e-07
5.61086e-07
5.78904e-07
5.89899e-07
5.95041e-07
5.96277e-07
5.94079e-07
5.92013e-07
5.68403e-07
5.7385e-07
5.88482e-07
6.07656e-07
6.17779e-07
6.2291e-07
6.23388e-07
6.20446e-07
6.16296e-07
6.0972e-07
2.42932e-07
2.61243e-07
2.7823e-07
2.93594e-07
3.07487e-07
3.19988e-07
3.31213e-07
3.41242e-07
3.50176e-07
3.58083e-07
3.65035e-07
3.71079e-07
3.76255e-07
3.80589e-07
3.84093e-07
3.86785e-07
3.88659e-07
3.89776e-07
3.9012e-07
3.89887e-07
2.84233e-07
2.94874e-07
3.05605e-07
3.1557e-07
3.24919e-07
3.33608e-07
3.41641e-07
3.49012e-07
3.55744e-07
3.61845e-07
3.67337e-07
3.72235e-07
3.76554e-07
3.80306e-07
3.8349e-07
3.86109e-07
3.88123e-07
3.89513e-07
3.90083e-07
3.89714e-07
3.34667e-07
3.38054e-07
3.42374e-07
3.46527e-07
3.50754e-07
3.54964e-07
3.59134e-07
3.63189e-07
3.67115e-07
3.70855e-07
3.744e-07
3.77718e-07
3.80799e-07
3.83622e-07
3.86157e-07
3.88367e-07
3.90147e-07
3.91384e-07
3.91678e-07
3.90809e-07
3.85754e-07
3.83098e-07
3.81903e-07
3.80925e-07
3.80437e-07
3.80376e-07
3.80745e-07
3.81433e-07
3.82429e-07
3.83636e-07
3.85026e-07
3.86536e-07
3.88126e-07
3.89745e-07
3.9133e-07
3.92809e-07
3.94024e-07
3.94823e-07
3.94731e-07
3.93549e-07
4.34856e-07
4.27227e-07
4.21292e-07
4.1591e-07
4.11281e-07
4.07351e-07
4.042e-07
4.01671e-07
3.99803e-07
3.98464e-07
3.97635e-07
3.97227e-07
3.9719e-07
3.97448e-07
3.97918e-07
3.98499e-07
3.99013e-07
3.99298e-07
3.98891e-07
3.97634e-07
4.79854e-07
4.68271e-07
4.58414e-07
4.49345e-07
4.41255e-07
4.33977e-07
4.27756e-07
4.22343e-07
4.17851e-07
4.14119e-07
4.11148e-07
4.0884e-07
4.07143e-07
4.05975e-07
4.05247e-07
4.04852e-07
4.04626e-07
4.04413e-07
4.0385e-07
4.02792e-07
5.19637e-07
5.05094e-07
4.92269e-07
4.80173e-07
4.69338e-07
4.59211e-07
4.50342e-07
4.42368e-07
4.35496e-07
4.2956e-07
4.24582e-07
4.20467e-07
4.17167e-07
4.14602e-07
4.12692e-07
4.11336e-07
4.10407e-07
4.09771e-07
4.09209e-07
4.08576e-07
5.53068e-07
5.36483e-07
5.21867e-07
5.0729e-07
4.94458e-07
4.82127e-07
4.71167e-07
4.61113e-07
4.52217e-07
4.44346e-07
4.37537e-07
4.3173e-07
4.26893e-07
4.22968e-07
4.19896e-07
4.17601e-07
4.16012e-07
4.15025e-07
4.14599e-07
4.14568e-07
5.80023e-07
5.61634e-07
5.47099e-07
5.30816e-07
5.16478e-07
5.02368e-07
4.89567e-07
4.77733e-07
4.67082e-07
4.57548e-07
4.49158e-07
4.41877e-07
4.35687e-07
4.30549e-07
4.26438e-07
4.23302e-07
4.21143e-07
4.19889e-07
4.19696e-07
4.20368e-07
5.99873e-07
5.80214e-07
5.66715e-07
5.50636e-07
5.35737e-07
5.209e-07
5.0684e-07
4.93604e-07
4.81398e-07
4.70289e-07
4.60342e-07
4.51575e-07
4.44002e-07
4.37614e-07
4.3242e-07
4.28405e-07
4.25645e-07
4.24108e-07
4.24156e-07
4.25578e-07
6.07315e-07
5.88905e-07
5.75635e-07
5.60562e-07
5.4573e-07
5.3095e-07
5.16668e-07
5.03028e-07
4.90261e-07
4.78472e-07
4.67773e-07
4.58217e-07
4.49857e-07
4.4272e-07
4.36859e-07
4.32295e-07
4.29178e-07
4.27513e-07
4.27822e-07
4.29884e-07
5.91367e-07
5.82071e-07
5.69967e-07
5.56938e-07
5.43592e-07
5.30079e-07
5.16817e-07
5.03962e-07
4.91767e-07
4.80361e-07
4.6989e-07
4.60436e-07
4.52088e-07
4.44906e-07
4.3898e-07
4.34371e-07
4.31283e-07
4.29754e-07
4.30427e-07
4.33052e-07
5.78466e-07
5.71506e-07
5.62325e-07
5.51222e-07
5.39657e-07
5.27491e-07
5.15346e-07
5.03346e-07
4.91809e-07
4.80879e-07
4.70734e-07
4.61488e-07
4.53256e-07
4.46129e-07
4.4023e-07
4.35655e-07
4.32649e-07
4.31261e-07
4.32206e-07
4.35219e-07
5.63234e-07
5.59169e-07
5.52374e-07
5.43141e-07
5.33271e-07
5.22473e-07
5.1151e-07
5.00482e-07
4.89747e-07
4.79462e-07
4.6983e-07
4.60979e-07
4.5305e-07
4.46154e-07
4.40433e-07
4.36018e-07
4.33143e-07
4.31936e-07
4.33157e-07
4.36391e-07
5.45998e-07
5.44213e-07
5.39649e-07
5.32367e-07
5.24293e-07
5.15021e-07
5.05399e-07
4.9551e-07
4.85749e-07
4.76279e-07
4.67327e-07
4.59038e-07
4.51567e-07
4.45047e-07
4.39614e-07
4.35458e-07
4.32703e-07
4.31843e-07
4.32486e-07
4.36495e-07
5.27739e-07
5.2797e-07
5.25404e-07
5.19946e-07
5.13558e-07
5.05789e-07
4.97522e-07
4.88827e-07
4.80123e-07
4.71578e-07
4.6343e-07
4.55833e-07
4.48957e-07
4.42934e-07
4.37932e-07
4.34083e-07
4.31669e-07
4.30824e-07
4.32132e-07
4.3529e-07
5.08781e-07
5.10662e-07
5.09832e-07
5.06069e-07
5.01273e-07
4.94989e-07
4.88088e-07
4.80638e-07
4.73061e-07
4.65527e-07
4.58283e-07
4.51487e-07
4.4531e-07
4.39889e-07
4.35389e-07
4.31934e-07
4.29793e-07
4.29016e-07
4.30245e-07
4.33233e-07
4.89502e-07
4.92741e-07
4.93413e-07
4.91175e-07
4.87838e-07
4.82966e-07
4.77395e-07
4.71193e-07
4.64774e-07
4.58308e-07
4.5204e-07
4.46126e-07
4.40736e-07
4.36e-07
4.32074e-07
4.29068e-07
4.27213e-07
4.26568e-07
4.27667e-07
4.30272e-07
4.7007e-07
4.74375e-07
4.76313e-07
4.7543e-07
4.73424e-07
4.69891e-07
4.6561e-07
4.60653e-07
4.55414e-07
4.50059e-07
4.44822e-07
4.39858e-07
4.35328e-07
4.3135e-07
4.28065e-07
4.25561e-07
4.24029e-07
4.23497e-07
4.24412e-07
4.26554e-07
4.50562e-07
4.55694e-07
4.58696e-07
4.59009e-07
4.58214e-07
4.55941e-07
4.52907e-07
4.4918e-07
4.4513e-07
4.40914e-07
4.36755e-07
4.32795e-07
4.29183e-07
4.26026e-07
4.23441e-07
4.21494e-07
4.20322e-07
4.19931e-07
4.20634e-07
4.22232e-07
4.30943e-07
4.36702e-07
4.40593e-07
4.41968e-07
4.4229e-07
4.41215e-07
4.39395e-07
4.36893e-07
4.34045e-07
4.30998e-07
4.27955e-07
4.25045e-07
4.22404e-07
4.20123e-07
4.18293e-07
4.16955e-07
4.16191e-07
4.15971e-07
4.16467e-07
4.17497e-07
4.11114e-07
4.17354e-07
4.22004e-07
4.24348e-07
4.25722e-07
4.25809e-07
4.25189e-07
4.23917e-07
4.22292e-07
4.20445e-07
4.18556e-07
4.1674e-07
4.15114e-07
4.13756e-07
4.12729e-07
4.12052e-07
4.11748e-07
4.1175e-07
4.12075e-07
4.12554e-07
3.9088e-07
3.97518e-07
4.02854e-07
4.06122e-07
4.08531e-07
4.09781e-07
4.10381e-07
4.10371e-07
4.10008e-07
4.09403e-07
4.08712e-07
4.08033e-07
4.07464e-07
4.07066e-07
4.06883e-07
4.06911e-07
4.0712e-07
4.07406e-07
4.0763e-07
4.07619e-07
3.70053e-07
3.77075e-07
3.83087e-07
3.87298e-07
3.90775e-07
3.93236e-07
3.9511e-07
3.96419e-07
3.97377e-07
3.9807e-07
3.98627e-07
3.99126e-07
3.99647e-07
4.00238e-07
4.00925e-07
4.01689e-07
4.02456e-07
4.03091e-07
4.0331e-07
4.02917e-07
3.4831e-07
3.55799e-07
3.6257e-07
3.67825e-07
3.72478e-07
3.7626e-07
3.79516e-07
3.82246e-07
3.84615e-07
3.86684e-07
3.88549e-07
3.90273e-07
3.91915e-07
3.93511e-07
3.95076e-07
3.96584e-07
3.97935e-07
3.98973e-07
3.993e-07
3.98671e-07
3.25533e-07
3.33676e-07
3.41373e-07
3.47853e-07
3.53851e-07
3.59116e-07
3.63898e-07
3.68176e-07
3.72062e-07
3.7559e-07
3.78826e-07
3.81811e-07
3.84589e-07
3.87186e-07
3.8961e-07
3.91837e-07
3.93765e-07
3.95229e-07
3.95771e-07
3.95083e-07
3.0129e-07
3.10441e-07
3.19384e-07
3.27401e-07
3.35025e-07
3.42019e-07
3.48541e-07
3.54544e-07
3.60091e-07
3.65188e-07
3.69872e-07
3.74163e-07
3.78088e-07
3.81667e-07
3.84905e-07
3.87784e-07
3.90223e-07
3.92077e-07
3.9291e-07
3.92354e-07
2.76077e-07
2.86707e-07
2.97291e-07
3.072e-07
3.1675e-07
3.25716e-07
3.3417e-07
3.42042e-07
3.49352e-07
3.56083e-07
3.62247e-07
3.67847e-07
3.72895e-07
3.77402e-07
3.81371e-07
3.84796e-07
3.87624e-07
3.89758e-07
3.90864e-07
3.90572e-07
2.49403e-07
2.62288e-07
2.75161e-07
2.87497e-07
2.99403e-07
3.10676e-07
3.21318e-07
3.31245e-07
3.40448e-07
3.48899e-07
3.56594e-07
3.63526e-07
3.69692e-07
3.75088e-07
3.79705e-07
3.83535e-07
3.86543e-07
3.88701e-07
3.89857e-07
3.8985e-07
2.24435e-07
2.402e-07
2.55785e-07
2.70788e-07
2.85197e-07
2.98814e-07
3.11616e-07
3.23516e-07
3.34504e-07
3.44547e-07
3.53641e-07
3.61777e-07
3.68943e-07
3.75121e-07
3.80279e-07
3.84389e-07
3.8739e-07
3.89303e-07
3.90077e-07
3.89977e-07
3.47743e-07
3.70169e-07
4.0883e-07
4.51796e-07
4.94925e-07
5.33245e-07
5.64586e-07
5.87379e-07
6.01837e-07
6.0538e-07
3.29753e-07
3.50745e-07
3.86429e-07
4.26947e-07
4.68981e-07
5.07872e-07
5.4145e-07
5.67513e-07
5.8588e-07
5.93561e-07
3.13631e-07
3.33731e-07
3.6695e-07
4.04838e-07
4.44764e-07
4.82481e-07
5.16192e-07
5.44066e-07
5.66043e-07
5.79926e-07
2.98869e-07
3.18395e-07
3.49591e-07
3.85172e-07
4.23166e-07
4.59661e-07
4.92927e-07
5.2125e-07
5.44134e-07
5.61747e-07
2.85007e-07
3.04161e-07
3.33649e-07
3.67074e-07
4.0304e-07
4.38071e-07
4.70606e-07
4.99304e-07
5.22775e-07
5.42466e-07
2.71977e-07
2.90922e-07
3.19019e-07
3.50549e-07
3.84575e-07
4.17991e-07
4.49306e-07
4.77654e-07
5.01022e-07
5.22016e-07
2.5954e-07
2.78365e-07
3.05295e-07
3.35147e-07
3.67368e-07
3.99214e-07
4.29259e-07
4.57033e-07
4.79965e-07
5.01311e-07
2.47651e-07
2.66399e-07
2.92332e-07
3.20682e-07
3.51199e-07
3.81453e-07
4.10098e-07
4.37017e-07
4.59358e-07
4.80623e-07
2.36227e-07
2.549e-07
2.7995e-07
3.06941e-07
3.35875e-07
3.6459e-07
3.91834e-07
4.17732e-07
4.39342e-07
4.60154e-07
2.25265e-07
2.43817e-07
2.68033e-07
2.9374e-07
3.21156e-07
3.4834e-07
3.74173e-07
3.98933e-07
4.19754e-07
4.39928e-07
2.14787e-07
2.33129e-07
2.56496e-07
2.80935e-07
3.06857e-07
3.32513e-07
3.56933e-07
3.8047e-07
4.00444e-07
4.19858e-07
2.04869e-07
2.22859e-07
2.45279e-07
2.68381e-07
2.9277e-07
3.16854e-07
3.39836e-07
3.62091e-07
3.81184e-07
3.99782e-07
1.9567e-07
2.13078e-07
2.3433e-07
2.55914e-07
2.78642e-07
3.01067e-07
3.22565e-07
3.4349e-07
3.61674e-07
3.7944e-07
1.87431e-07
2.03906e-07
2.23624e-07
2.43394e-07
2.64243e-07
2.84869e-07
3.04808e-07
3.24361e-07
3.41626e-07
3.58575e-07
1.80619e-07
1.95526e-07
2.13019e-07
2.30447e-07
2.49071e-07
2.67713e-07
2.86017e-07
3.04188e-07
3.20566e-07
3.36771e-07
1.75802e-07
1.88043e-07
2.02361e-07
2.16831e-07
2.32823e-07
2.49278e-07
2.65876e-07
2.82681e-07
2.98247e-07
3.13819e-07
1.74241e-07
1.81639e-07
1.90851e-07
2.01306e-07
2.14179e-07
2.28319e-07
2.43282e-07
2.58898e-07
2.7389e-07
2.89103e-07
1.7627e-07
1.75202e-07
1.77601e-07
1.83448e-07
1.92973e-07
2.04826e-07
2.18351e-07
2.33065e-07
2.47826e-07
2.63028e-07
1.85112e-07
1.67161e-07
1.58628e-07
1.58843e-07
1.65438e-07
1.75766e-07
1.88718e-07
2.03393e-07
2.1875e-07
2.34711e-07
1.89405e-07
1.474e-07
1.3257e-07
1.28467e-07
1.33732e-07
1.43723e-07
1.57247e-07
1.72956e-07
1.89851e-07
2.07422e-07
)
;

boundaryField
{
    left
    {
        type            calculated;
        value           nonuniform List<scalar> 
30
(
3.43902e-07
3.26088e-07
3.10136e-07
2.95521e-07
2.81824e-07
2.68976e-07
2.56759e-07
2.45137e-07
2.34044e-07
2.23492e-07
2.13521e-07
2.04225e-07
1.95782e-07
1.88457e-07
1.82747e-07
1.79387e-07
1.79901e-07
1.86159e-07
2.04591e-07
2.33831e-07
1.53076e-06
9.84237e-07
7.43636e-07
6.1974e-07
5.42325e-07
4.87302e-07
4.4601e-07
4.13214e-07
3.8644e-07
3.63336e-07
)
;
    }
    right
    {
        type            calculated;
        value           nonuniform List<scalar> 
30
(
3.89823e-07
3.89713e-07
3.90766e-07
3.9348e-07
3.97546e-07
4.02704e-07
4.08499e-07
4.14517e-07
4.20349e-07
4.25608e-07
4.29937e-07
4.33161e-07
4.35349e-07
4.36539e-07
4.36537e-07
4.35428e-07
4.33386e-07
4.30407e-07
4.26667e-07
4.22318e-07
4.17554e-07
4.12583e-07
4.07624e-07
4.02904e-07
3.98649e-07
3.95061e-07
3.92341e-07
3.90573e-07
3.89864e-07
3.89902e-07
)
;
    }
    down
    {
        type            calculated;
        value           nonuniform List<scalar> 
30
(
4.53334e-09
7.43628e-09
2.32177e-08
4.85364e-08
7.78098e-08
1.08481e-07
1.38472e-07
1.67092e-07
1.93355e-07
2.17693e-07
2.39608e-07
2.5871e-07
2.76264e-07
2.92049e-07
3.06292e-07
3.19054e-07
3.30495e-07
3.40692e-07
3.49764e-07
3.5778e-07
3.6482e-07
3.70932e-07
3.76161e-07
3.80533e-07
3.84063e-07
3.86769e-07
3.88644e-07
3.89762e-07
3.90115e-07
3.89985e-07
)
;
    }
    up
    {
        type            calculated;
        value           nonuniform List<scalar> 
30
(
1.86701e-07
1.45652e-07
1.3166e-07
1.27538e-07
1.32727e-07
1.42615e-07
1.56075e-07
1.71774e-07
1.88661e-07
2.06311e-07
2.23372e-07
2.39253e-07
2.54977e-07
2.70093e-07
2.8462e-07
2.98338e-07
3.11237e-07
3.2322e-07
3.34283e-07
3.44391e-07
3.53542e-07
3.61724e-07
3.68927e-07
3.75133e-07
3.80308e-07
3.84424e-07
3.87418e-07
3.89315e-07
3.9007e-07
3.90033e-07
)
;
    }
    hole
    {
        type            calculated;
        value           nonuniform List<scalar> 
20
(
6.85086e-07
8.04848e-07
9.22172e-07
1.03465e-06
1.13861e-06
1.23443e-06
1.3167e-06
1.39524e-06
1.45446e-06
1.52211e-06
6.44637e-09
6.55318e-09
1.05207e-08
4.25465e-08
9.34981e-08
1.62284e-07
2.4656e-07
3.43962e-07
4.51532e-07
5.66318e-07
)
;
    }
    frontAndBack
    {
        type            empty;
    }
}


// ************************************************************************* //
