/*--------------------------------*- C++ -*----------------------------------*\
  =========                 |
  \\      /  F ield         | OpenFOAM: The Open Source CFD Toolbox
   \\    /   O peration     | Website:  https://openfoam.org
    \\  /    A nd           | Version:  9
     \\/     M anipulation  |
\*---------------------------------------------------------------------------*/
FoamFile
{
    format      ascii;
    class       volSymmTensorField;
    location    "1";
    object      epsilon;
}
// * * * * * * * * * * * * * * * * * * * * * * * * * * * * * * * * * * * * * //

dimensions      [0 0 0 0 0 0 0];

internalField   nonuniform List<symmTensor> 
1000
(
(4.26578e-07 -5.45216e-07 6.89484e-20 8.74278e-08 7.55014e-20 2.06042e-34)
(5.87612e-07 -4.21337e-07 -8.64254e-22 -1.03435e-07 4.88444e-22 0)
(6.66511e-07 -3.23559e-07 1.01051e-21 -1.94568e-07 -1.94298e-22 0)
(7.10795e-07 -2.49671e-07 2.57486e-22 -2.58154e-07 -1.85361e-22 0)
(7.3216e-07 -1.90185e-07 -1.09582e-21 -2.93365e-07 7.87169e-23 0)
(7.39395e-07 -1.43595e-07 -1.16341e-22 -3.15753e-07 1.29518e-22 0)
(7.38628e-07 -1.05711e-07 -1.00327e-21 -3.27817e-07 -5.35434e-22 0)
(7.32027e-07 -7.55566e-08 6.87039e-22 -3.33885e-07 3.20452e-22 0)
(7.23415e-07 -5.05016e-08 -3.6019e-22 -3.36008e-07 -3.99494e-22 0)
(7.10892e-07 -2.96252e-08 0 -3.36228e-07 0 0)
(5.75313e-07 -6.06894e-07 6.86261e-20 2.60295e-08 8.81404e-20 1.1915e-35)
(7.0025e-07 -4.3501e-07 0 -1.43583e-07 0 0)
(7.5394e-07 -3.11046e-07 8.14367e-22 -2.18762e-07 3.86535e-22 0)
(7.7892e-07 -2.21892e-07 -1.39805e-21 -2.71734e-07 -7.41682e-22 0)
(7.85232e-07 -1.53916e-07 -5.94643e-22 -2.98451e-07 -3.56076e-22 0)
(7.80549e-07 -1.03014e-07 4.16767e-22 -3.14895e-07 4.18395e-22 0)
(7.70097e-07 -6.32803e-08 4.63683e-22 -3.22237e-07 3.07924e-22 0)
(7.55935e-07 -3.30543e-08 1.08731e-21 -3.25445e-07 6.30701e-22 0)
(7.39974e-07 -8.58545e-09 0 -3.2423e-07 0 0)
(7.2313e-07 1.10288e-08 0 -3.247e-07 0 0)
(7.42128e-07 -6.46191e-07 6.61563e-20 -5.54608e-08 9.90096e-20 0)
(8.16984e-07 -4.34682e-07 0 -1.88949e-07 0 0)
(8.37804e-07 -2.89437e-07 7.76553e-22 -2.40099e-07 3.99514e-22 0)
(8.38826e-07 -1.88237e-07 -2.30317e-22 -2.77664e-07 8.23987e-23 0)
(8.27322e-07 -1.14212e-07 -1.12288e-23 -2.93056e-07 5.07074e-24 0)
(8.09073e-07 -6.08549e-08 -3.88761e-22 -3.01884e-07 -3.96107e-22 0)
(7.88078e-07 -2.08213e-08 5.24226e-22 -3.0352e-07 2.41482e-22 0)
(7.65737e-07 8.41577e-09 -3.91615e-22 -3.0314e-07 -2.86028e-22 0)
(7.4305e-07 3.10958e-08 -2.8884e-23 -2.98839e-07 5.37029e-23 0)
(7.21203e-07 4.95601e-08 -8.14565e-23 -2.98427e-07 -3.52981e-23 0)
(9.20765e-07 -6.57525e-07 5.82861e-20 -1.52381e-07 1.0489e-19 -6.6993e-36)
(9.34897e-07 -4.18621e-07 4.42199e-22 -2.37822e-07 -4.71077e-23 0)
(9.16749e-07 -2.59113e-07 -3.55114e-22 -2.58176e-07 -1.9942e-22 0)
(8.89929e-07 -1.50405e-07 -2.22453e-22 -2.76257e-07 4.42686e-23 0)
(8.58352e-07 -7.35771e-08 4.05243e-22 -2.7804e-07 3.87148e-22 0)
(8.25414e-07 -2.00532e-08 -4.84867e-22 -2.78137e-07 -3.1788e-22 0)
(7.93445e-07 1.85655e-08 -4.1913e-22 -2.73746e-07 -2.95277e-22 0)
(7.63078e-07 4.57257e-08 -9.34046e-22 -2.69777e-07 -6.75899e-22 0)
(7.3414e-07 6.56898e-08 -1.36539e-22 -2.63013e-07 -1.61884e-22 0)
(7.08004e-07 8.19636e-08 2.30159e-22 -2.61472e-07 1.99918e-22 0)
(1.10233e-06 -6.35894e-07 4.83176e-20 -2.58371e-07 1.05275e-19 -1.22945e-34)
(1.05012e-06 -3.84554e-07 2.31396e-26 -2.87926e-07 1.02691e-27 0)
(9.88753e-07 -2.19661e-07 -1.14852e-21 -2.72235e-07 -5.59586e-22 0)
(9.31308e-07 -1.09318e-07 1.03293e-22 -2.67621e-07 -4.59199e-24 0)
(8.78126e-07 -3.39332e-08 -1.44029e-22 -2.54066e-07 1.65711e-23 0)
(8.29936e-07 1.67692e-08 3.51567e-22 -2.44732e-07 3.20551e-22 0)
(7.87119e-07 5.18216e-08 -3.77911e-23 -2.34317e-07 1.19755e-23 0)
(7.49161e-07 7.54382e-08 3.67552e-22 -2.27017e-07 2.43102e-22 0)
(7.1488e-07 9.16323e-08 -8.56471e-23 -2.1858e-07 -1.70257e-22 0)
(6.85092e-07 1.04841e-07 -1.46166e-22 -2.16204e-07 -1.1627e-22 0)
(1.28068e-06 -5.79999e-07 3.58729e-20 -3.6632e-07 9.93057e-20 -1.29517e-34)
(1.1598e-06 -3.31037e-07 2.11056e-26 -3.35867e-07 4.38027e-27 0)
(1.05255e-06 -1.70616e-07 -1.13889e-26 -2.80504e-07 -1.69428e-27 0)
(9.62661e-07 -6.58978e-08 9.12147e-23 -2.51367e-07 1.04044e-23 0)
(8.87169e-07 2.86495e-09 -4.97123e-22 -2.21843e-07 -2.99499e-22 0)
(8.23933e-07 4.72073e-08 5.52914e-24 -2.03324e-07 -1.45513e-25 0)
(7.70966e-07 7.63778e-08 3.70155e-22 -1.87574e-07 2.47768e-22 0)
(7.26313e-07 9.49945e-08 7.88649e-22 -1.77676e-07 5.69244e-22 0)
(6.87728e-07 1.06594e-07 1.42777e-22 -1.68492e-07 1.03303e-22 0)
(6.55097e-07 1.16069e-07 -2.5035e-22 -1.65721e-07 -1.93889e-22 0)
(1.44374e-06 -4.8621e-07 2.59852e-20 -4.67485e-07 8.80448e-20 -2.79579e-34)
(1.25734e-06 -2.54122e-07 3.30896e-22 -3.76443e-07 1.3129e-22 0)
(1.10255e-06 -1.10632e-07 3.51352e-22 -2.78994e-07 1.5798e-22 0)
(9.80351e-07 -2.07475e-08 -7.485e-23 -2.25557e-07 -2.1488e-23 0)
(8.8391e-07 3.50047e-08 3.61329e-22 -1.81513e-07 2.39542e-22 0)
(8.07544e-07 6.88826e-08 -3.32612e-22 -1.55638e-07 -2.26636e-22 0)
(7.46413e-07 8.97898e-08 9.05196e-23 -1.36353e-07 2.64249e-24 0)
(6.96772e-07 1.02109e-07 -2.95921e-22 -1.25255e-07 -1.91194e-22 0)
(6.55381e-07 1.08652e-07 -1.8814e-23 -1.16528e-07 3.6864e-24 0)
(6.20902e-07 1.14089e-07 -1.49327e-22 -1.13992e-07 -9.59112e-23 0)
(1.59602e-06 -3.54282e-07 1.59281e-20 -5.54236e-07 7.14067e-20 -1.14639e-35)
(1.33912e-06 -1.50116e-07 -8.85741e-22 -3.9948e-07 -3.14029e-22 0)
(1.13523e-06 -3.90342e-08 6.79606e-24 -2.59743e-07 3.666e-24 0)
(9.83587e-07 2.34787e-08 1.09176e-22 -1.8674e-07 5.37703e-23 0)
(8.69811e-07 5.9046e-08 8.22909e-22 -1.33158e-07 4.03829e-22 0)
(7.84016e-07 7.87152e-08 -4.71474e-23 -1.04141e-07 -1.34097e-23 0)
(7.17756e-07 8.98692e-08 1.16001e-27 -8.4557e-08 1.83425e-28 0)
(6.65444e-07 9.55581e-08 -2.88926e-22 -7.43793e-08 -1.49655e-22 0)
(6.22944e-07 9.74893e-08 6.44758e-24 -6.75043e-08 -2.32538e-25 0)
(5.87701e-07 9.93242e-08 2.11731e-23 -6.58784e-08 1.00583e-23 0)
(1.71284e-06 -1.6812e-07 6.80331e-21 -6.04338e-07 5.04834e-20 1.18238e-34)
(1.37827e-06 -1.88702e-08 -9.74241e-22 -3.78666e-07 -4.00653e-22 0)
(1.12863e-06 3.45801e-08 1.00596e-22 -2.05981e-07 8.45326e-23 0)
(9.58755e-07 5.49873e-08 9.40827e-23 -1.27695e-07 7.2688e-23 0)
(8.39363e-07 6.55212e-08 -3.91255e-23 -7.70685e-08 -2.28521e-23 0)
(7.52431e-07 6.94987e-08 3.21707e-22 -5.2815e-08 1.15329e-22 0)
(6.86724e-07 7.16381e-08 1.67129e-23 -3.78948e-08 4.26731e-24 0)
(6.35181e-07 7.20242e-08 5.18569e-22 -3.12392e-08 1.95061e-22 0)
(5.93583e-07 7.10729e-08 1.14607e-22 -2.74217e-08 4.36111e-23 0)
(5.58619e-07 7.06687e-08 6.53184e-23 -2.71177e-08 2.64636e-23 0)
(1.81534e-06 1.40336e-07 1.63954e-21 -5.56343e-07 2.8726e-20 1.24207e-34)
(1.34356e-06 1.58215e-07 -7.37571e-23 -2.48283e-07 -1.26978e-22 0)
(1.08231e-06 1.04119e-07 3.38687e-22 -1.03121e-07 1.39464e-22 0)
(9.19576e-07 6.75993e-08 1.70767e-23 -5.02782e-08 2.35126e-23 0)
(8.10093e-07 5.37835e-08 5.80306e-28 -2.32613e-08 5.19962e-28 0)
(7.29398e-07 4.63635e-08 3.26183e-22 -1.247e-08 5.7485e-23 0)
(6.68077e-07 4.39989e-08 4.80129e-24 -6.80616e-09 1.09814e-24 0)
(6.18838e-07 4.27537e-08 2.50318e-22 -4.96212e-09 4.68528e-23 0)
(5.78586e-07 4.17585e-08 -2.53432e-24 -4.20069e-09 8.50717e-26 0)
(5.43776e-07 4.11181e-08 -4.1005e-24 -4.60855e-09 -7.50509e-25 0)
(6.78542e-09 5.3445e-10 3.23902e-20 -8.89297e-10 2.05106e-20 1.5885e-34)
(1.03931e-08 -5.26517e-09 -1.60089e-23 -9.89638e-10 1.89947e-20 1.61047e-36)
(2.92232e-08 -1.51456e-08 -2.41007e-22 -1.01648e-08 1.82581e-20 2.00688e-35)
(5.9194e-08 -2.31395e-08 -2.23192e-24 -2.39215e-08 1.85052e-20 0)
(9.3812e-08 -2.81321e-08 -3.80455e-23 -3.92297e-08 1.81186e-20 -1.60969e-36)
(1.30075e-07 -3.10165e-08 -3.26217e-22 -5.49837e-08 1.84465e-20 3.36526e-35)
(1.6553e-07 -3.22033e-08 7.51957e-23 -7.01941e-08 1.88179e-20 1.60835e-36)
(1.99363e-07 -3.2373e-08 -2.14731e-22 -8.4559e-08 1.85824e-20 3.05859e-35)
(2.30409e-07 -3.16197e-08 1.74002e-22 -9.77795e-08 1.86455e-20 -1.32766e-35)
(2.5918e-07 -3.1039e-08 5.21508e-22 -1.09677e-07 1.85559e-20 -4.00518e-35)
(1.22067e-08 -5.49957e-09 3.34272e-20 -2.35046e-09 4.24053e-21 4.17936e-35)
(3.08149e-08 -2.70131e-08 2.64299e-22 -5.64772e-10 2.86845e-22 0)
(6.51905e-08 -5.11387e-08 -2.47283e-22 -1.49189e-08 -2.45714e-22 0)
(1.0359e-07 -6.9714e-08 1.47848e-25 -3.44141e-08 -2.03192e-22 0)
(1.42127e-07 -8.12425e-08 0 -5.38682e-08 0 0)
(1.78695e-07 -8.77725e-08 -3.7167e-22 -7.21734e-08 -5.52943e-23 0)
(2.12375e-07 -9.02245e-08 6.71069e-23 -8.86212e-08 3.17857e-22 0)
(2.43325e-07 -9.02058e-08 4.93241e-24 -1.03309e-07 1.70803e-23 0)
(2.70589e-07 -8.78574e-08 -2.09323e-22 -1.16202e-07 -5.76734e-22 0)
(2.95906e-07 -8.59803e-08 1.46468e-22 -1.27139e-07 2.29656e-23 0)
(1.42008e-08 -2.44626e-08 3.42918e-20 6.22238e-09 6.81351e-21 -1.86649e-36)
(5.00852e-08 -6.6707e-08 2.70134e-22 2.03843e-09 2.83377e-22 0)
(9.87835e-08 -9.66696e-08 2.80421e-22 -2.03385e-08 5.8604e-23 0)
(1.46749e-07 -1.16885e-07 1.21659e-23 -4.82833e-08 -1.95914e-22 0)
(1.90888e-07 -1.28148e-07 0 -7.40873e-08 0 0)
(2.29712e-07 -1.33549e-07 -4.16592e-22 -9.66981e-08 -1.08593e-22 0)
(2.63402e-07 -1.34382e-07 -5.68229e-22 -1.15666e-07 -1.58903e-22 0)
(2.93015e-07 -1.32425e-07 3.7787e-22 -1.31608e-07 2.2847e-22 0)
(3.17614e-07 -1.27928e-07 2.39992e-24 -1.44587e-07 7.26224e-24 0)
(3.40563e-07 -1.24138e-07 -3.40052e-22 -1.55113e-07 -2.12208e-22 0)
(1.71069e-08 -5.42515e-08 3.62108e-20 2.69767e-08 9.93431e-21 -3.31301e-35)
(7.65154e-08 -1.14417e-07 6.38163e-23 4.74518e-09 -2.37995e-22 0)
(1.38511e-07 -1.46014e-07 3.08116e-22 -2.77249e-08 6.01189e-23 0)
(1.95134e-07 -1.63876e-07 0 -6.39596e-08 0 0)
(2.44166e-07 -1.71442e-07 -5.21042e-22 -9.55454e-08 1.9377e-22 0)
(2.85156e-07 -1.73044e-07 1.32659e-23 -1.2224e-07 4.80578e-22 0)
(3.19035e-07 -1.70342e-07 -3.01295e-23 -1.43774e-07 -2.57834e-22 0)
(3.47647e-07 -1.65108e-07 -8.17927e-23 -1.61206e-07 -3.97502e-22 0)
(3.69939e-07 -1.57726e-07 1.71607e-22 -1.7465e-07 5.56233e-23 0)
(3.90936e-07 -1.51477e-07 3.20574e-22 -1.85192e-07 1.19853e-22 0)
(2.48803e-08 -9.64394e-08 3.63422e-20 5.60126e-08 1.40122e-20 7.17389e-35)
(1.13796e-07 -1.66405e-07 -5.36803e-22 4.21478e-09 3.61644e-22 0)
(1.89125e-07 -1.94948e-07 -3.28396e-22 -4.19414e-08 -9.63027e-23 0)
(2.53103e-07 -2.07002e-07 -8.4131e-23 -8.71493e-08 3.53142e-22 0)
(3.05367e-07 -2.081e-07 -3.17129e-24 -1.23958e-07 2.17502e-23 0)
(3.47161e-07 -2.03791e-07 5.01947e-22 -1.53911e-07 -1.33615e-22 0)
(3.80214e-07 -1.96024e-07 2.20338e-22 -1.772e-07 5.79137e-23 0)
(4.07084e-07 -1.86415e-07 0 -1.95422e-07 0 0)
(4.26625e-07 -1.75562e-07 -2.39918e-22 -2.08787e-07 -3.06696e-22 0)
(4.4533e-07 -1.66321e-07 9.37041e-23 -2.18929e-07 2.29214e-23 0)
(4.21545e-08 -1.52049e-07 3.9892e-20 8.88229e-08 1.80248e-20 -8.3527e-35)
(1.63194e-07 -2.19127e-07 2.16621e-22 2.89909e-10 -4.2926e-22 0)
(2.51114e-07 -2.38992e-07 -2.73405e-22 -6.14459e-08 -2.91362e-22 0)
(3.20592e-07 -2.42247e-07 5.74279e-23 -1.15402e-07 -1.64376e-22 0)
(3.74063e-07 -2.3514e-07 5.73919e-22 -1.56353e-07 1.91481e-22 0)
(4.14895e-07 -2.23867e-07 -5.49835e-22 -1.88381e-07 5.97349e-23 0)
(4.45735e-07 -2.10394e-07 -3.78614e-25 -2.12388e-07 1.4529e-23 0)
(4.69748e-07 -1.96024e-07 -4.33872e-22 -2.30534e-07 -2.94958e-22 0)
(4.85836e-07 -1.81595e-07 1.01494e-24 -2.43263e-07 5.6888e-24 0)
(5.01584e-07 -1.69199e-07 -4.71643e-22 -2.52505e-07 -2.14471e-22 0)
(7.41337e-08 -2.20546e-07 4.65443e-20 1.18468e-07 2.56147e-20 -7.01104e-35)
(2.25117e-07 -2.70448e-07 1.20399e-23 -8.38825e-09 -1.84701e-23 0)
(3.23326e-07 -2.75504e-07 -8.77699e-27 -8.56709e-08 1.52205e-26 0)
(3.95828e-07 -2.66989e-07 -5.88926e-22 -1.47547e-07 -4.08871e-22 0)
(4.48262e-07 -2.50304e-07 -9.54184e-23 -1.91409e-07 2.63784e-22 0)
(4.86195e-07 -2.31503e-07 -5.37733e-22 -2.24284e-07 -2.1793e-22 0)
(5.13305e-07 -2.12162e-07 9.67174e-22 -2.47899e-07 4.28979e-22 0)
(5.33198e-07 -1.93102e-07 1.00271e-25 -2.65051e-07 1.13866e-23 0)
(5.45072e-07 -1.7533e-07 1.88538e-22 -2.76484e-07 2.16938e-25 0)
(5.57013e-07 -1.59877e-07 -2.58005e-22 -2.84299e-07 -1.22238e-22 0)
(1.25647e-07 -2.99436e-07 5.48147e-20 1.38396e-07 3.54421e-20 -1.18148e-34)
(2.99334e-07 -3.1835e-07 3.11012e-22 -2.2391e-08 -3.75405e-22 0)
(4.03463e-07 -3.02727e-07 -1.1957e-22 -1.12516e-07 1.61201e-22 0)
(4.75667e-07 -2.79801e-07 7.26682e-23 -1.8031e-07 -1.15016e-22 0)
(5.24583e-07 -2.52607e-07 6.42059e-27 -2.25442e-07 -1.28922e-26 0)
(5.57673e-07 -2.26177e-07 6.20844e-22 -2.57844e-07 5.40377e-23 0)
(5.79645e-07 -2.01262e-07 4.29484e-23 -2.80083e-07 -2.00433e-22 0)
(5.9426e-07 -1.7803e-07 -1.22585e-23 -2.95397e-07 1.64699e-22 0)
(6.01378e-07 -1.57493e-07 3.93918e-24 -3.05222e-07 8.21419e-23 0)
(6.08643e-07 -1.39382e-07 1.99201e-22 -3.1104e-07 1.82145e-22 0)
(2.00524e-07 -3.84131e-07 6.10379e-20 1.42461e-07 4.81639e-20 1.41512e-34)
(3.85297e-07 -3.60867e-07 -9.53468e-23 -4.26672e-08 6.88801e-22 0)
(4.89062e-07 -3.19853e-07 -1.15931e-26 -1.40553e-07 1.22647e-26 0)
(5.56839e-07 -2.8052e-07 8.05786e-22 -2.11186e-07 1.89273e-22 0)
(5.9951e-07 -2.42314e-07 6.17424e-22 -2.55523e-07 3.06391e-22 0)
(6.2581e-07 -2.08528e-07 5.57002e-22 -2.86075e-07 2.76486e-22 0)
(6.41301e-07 -1.78593e-07 -5.7208e-23 -3.0587e-07 1.72157e-22 0)
(6.4957e-07 -1.5205e-07 -6.71237e-22 -3.18771e-07 -3.72279e-22 0)
(6.51536e-07 -1.29445e-07 4.0909e-22 -3.26497e-07 9.8423e-23 0)
(6.53557e-07 -1.09188e-07 1.84912e-22 -3.30838e-07 1.08989e-22 0)
(3.00856e-07 -4.68496e-07 6.58388e-20 1.26277e-07 6.09509e-20 1.89762e-35)
(4.81895e-07 -3.95944e-07 -2.02492e-22 -6.96208e-08 1.50698e-22 0)
(5.77478e-07 -3.26739e-07 -3.96774e-22 -1.68225e-07 -1.84195e-22 0)
(6.36008e-07 -2.69995e-07 1.714e-21 -2.37634e-07 4.0174e-22 0)
(6.6944e-07 -2.20821e-07 1.02853e-23 -2.78726e-07 -1.18274e-23 0)
(6.86982e-07 -1.802e-07 -5.48226e-22 -3.05866e-07 -3.0896e-22 0)
(6.94718e-07 -1.4601e-07 -5.82879e-22 -3.22302e-07 -9.35231e-23 0)
(6.95703e-07 -1.17132e-07 -2.21376e-22 -3.31843e-07 -1.31323e-22 0)
(6.92733e-07 -9.37178e-08 1.97406e-23 -3.37985e-07 -1.79589e-22 0)
(6.87783e-07 -7.33905e-08 1.15252e-22 -3.38395e-07 2.27658e-22 0)
(2.85086e-07 -2.89503e-08 8.38166e-22 -1.20737e-07 1.88025e-20 -1.19247e-35)
(3.07667e-07 -2.60304e-08 9.4733e-22 -1.29947e-07 1.85548e-20 -2.6212e-35)
(3.28416e-07 -2.34855e-08 5.36086e-22 -1.38496e-07 1.81038e-20 -1.52956e-35)
(3.47077e-07 -2.11757e-08 5.80444e-22 -1.46231e-07 1.8332e-20 -6.71484e-37)
(3.63912e-07 -1.90315e-08 3.48833e-22 -1.5319e-07 1.83539e-20 3.98949e-35)
(3.78999e-07 -1.71105e-08 6.08894e-22 -1.59463e-07 1.84406e-20 0)
(3.92523e-07 -1.53483e-08 5.74246e-22 -1.65078e-07 1.84287e-20 0)
(4.04577e-07 -1.37575e-08 6.51924e-22 -1.701e-07 1.85518e-20 5.18793e-37)
(4.15301e-07 -1.22982e-08 6.01734e-22 -1.7457e-07 1.84436e-20 -1.35648e-35)
(4.24776e-07 -1.09601e-08 7.04762e-22 -1.78529e-07 1.86691e-20 8.803e-37)
(4.33097e-07 -9.71474e-09 7.28528e-22 -1.82011e-07 1.85012e-20 -4.11068e-35)
(4.40323e-07 -8.54436e-09 2.96326e-22 -1.85044e-07 1.83424e-20 1.3772e-35)
(4.46504e-07 -7.42557e-09 6.59621e-22 -1.87646e-07 1.84879e-20 -4.15272e-35)
(4.51673e-07 -6.34336e-09 -5.5351e-23 -1.89833e-07 1.79431e-20 -8.33996e-37)
(4.55844e-07 -5.2826e-09 3.09283e-22 -1.91609e-07 1.84641e-20 1.42217e-35)
(4.59044e-07 -4.24316e-09 2.46366e-22 -1.92984e-07 1.83552e-20 -3.36708e-45)
(4.61261e-07 -3.23946e-09 7.96513e-23 -1.93955e-07 1.82055e-20 -1.51932e-37)
(4.62583e-07 -2.32952e-09 2.98096e-22 -1.94535e-07 1.84947e-20 1.09028e-37)
(4.62999e-07 -1.63008e-09 1.87072e-22 -1.94706e-07 1.81656e-20 -4.29709e-35)
(4.62845e-07 -1.46622e-09 2.92764e-20 -1.94432e-07 1.79132e-20 -7.03551e-35)
(3.16725e-07 -8.02382e-08 3.65658e-22 -1.36975e-07 4.37415e-22 0)
(3.33422e-07 -7.24314e-08 2.32555e-22 -1.43971e-07 6.38032e-23 0)
(3.49397e-07 -6.55388e-08 1.51494e-23 -1.50406e-07 -9.94659e-23 0)
(3.63727e-07 -5.91035e-08 5.35223e-22 -1.5631e-07 4.72244e-22 0)
(3.76931e-07 -5.30673e-08 -1.01267e-22 -1.61579e-07 -2.40977e-23 0)
(3.88854e-07 -4.7608e-08 -4.3766e-22 -1.66416e-07 -4.32575e-22 0)
(3.99715e-07 -4.25517e-08 2.19668e-22 -1.70757e-07 8.11713e-23 0)
(4.09496e-07 -3.79557e-08 0 -1.74704e-07 0 0)
(4.18324e-07 -3.37133e-08 1.04577e-22 -1.78253e-07 3.7058e-23 0)
(4.26224e-07 -2.98072e-08 2.15141e-22 -1.81452e-07 8.28302e-23 0)
(4.33272e-07 -2.61648e-08 6.4736e-22 -1.84314e-07 3.32014e-22 0)
(4.39502e-07 -2.27444e-08 2.96884e-24 -1.86862e-07 3.30002e-24 0)
(4.4496e-07 -1.94904e-08 8.11759e-23 -1.89106e-07 -6.38554e-23 0)
(4.49675e-07 -1.63646e-08 1.25513e-22 -1.91052e-07 1.39703e-22 0)
(4.53664e-07 -1.33373e-08 1.28741e-22 -1.92695e-07 1.43714e-22 0)
(4.56952e-07 -1.04082e-08 -1.27519e-22 -1.94017e-07 -1.43108e-22 0)
(4.59519e-07 -7.61063e-09 -1.28226e-22 -1.94972e-07 -1.44745e-22 0)
(4.61398e-07 -5.0681e-09 -2.57489e-22 -1.9548e-07 -2.92408e-22 0)
(4.62433e-07 -2.95764e-09 -1.9445e-24 -1.95353e-07 -2.07752e-24 0)
(4.6268e-07 -1.83237e-09 2.9717e-20 -1.94287e-07 4.44831e-22 6.60148e-35)
(3.56571e-07 -1.15521e-07 1.00474e-22 -1.632e-07 1.3313e-22 0)
(3.67044e-07 -1.0488e-07 1.34212e-22 -1.67321e-07 4.77669e-23 0)
(3.77902e-07 -9.53091e-08 -3.18042e-22 -1.70752e-07 -3.88201e-22 0)
(3.87414e-07 -8.64178e-08 -2.6043e-23 -1.74003e-07 7.04368e-23 0)
(3.96542e-07 -7.79374e-08 5.74716e-22 -1.76771e-07 4.68811e-22 0)
(4.04817e-07 -7.02314e-08 -4.57842e-22 -1.79422e-07 -4.26686e-22 0)
(4.12578e-07 -6.30166e-08 -1.22488e-22 -1.8181e-07 -1.37662e-22 0)
(4.1966e-07 -5.64185e-08 2.33984e-22 -1.84067e-07 2.58422e-22 0)
(4.2621e-07 -5.02893e-08 -3.31625e-24 -1.86159e-07 -1.66968e-22 0)
(4.3218e-07 -4.46268e-08 -2.47466e-22 -1.88127e-07 -2.7041e-22 0)
(4.37637e-07 -3.93397e-08 2.3707e-22 -1.89969e-07 2.58231e-22 0)
(4.42579e-07 -3.43836e-08 3.66266e-22 -1.91694e-07 3.99322e-22 0)
(4.47041e-07 -2.9692e-08 2.80054e-24 -1.933e-07 3.00476e-24 0)
(4.51031e-07 -2.52182e-08 -1.25372e-22 -1.94774e-07 -1.37568e-22 0)
(4.54553e-07 -2.09219e-08 1.24097e-22 -1.96086e-07 1.37028e-22 0)
(4.5761e-07 -1.67874e-08 1.82787e-29 -1.97182e-07 1.98368e-29 0)
(4.60133e-07 -1.28239e-08 -1.27824e-22 -1.97949e-07 -1.42996e-22 0)
(4.62095e-07 -9.09383e-09 1.93992e-23 -1.98209e-07 1.02973e-22 0)
(4.63165e-07 -5.70517e-09 -4.09788e-22 -1.97588e-07 -5.42278e-23 0)
(4.6333e-07 -2.80849e-09 2.98157e-20 -1.95671e-07 4.24878e-22 4.92231e-38)
(4.02232e-07 -1.40436e-07 0 -1.917e-07 0 0)
(4.06276e-07 -1.28251e-07 1.43573e-22 -1.93194e-07 5.22043e-23 0)
(4.11963e-07 -1.16981e-07 1.14371e-22 -1.93796e-07 1.26943e-22 0)
(4.16456e-07 -1.06697e-07 1.25587e-22 -1.9458e-07 1.41077e-22 0)
(4.21308e-07 -9.66755e-08 0 -1.94913e-07 0 0)
(4.25661e-07 -8.75675e-08 1.4721e-23 -1.95396e-07 -7.07119e-23 0)
(4.30052e-07 -7.89332e-08 -3.7086e-22 -1.95798e-07 -2.24819e-22 0)
(4.34144e-07 -7.09983e-08 -2.39446e-22 -1.96295e-07 -2.5287e-22 0)
(4.38131e-07 -6.35759e-08 -1.3248e-22 -1.96835e-07 -6.08258e-23 0)
(4.41886e-07 -5.66921e-08 3.44108e-24 -1.97456e-07 1.60846e-22 0)
(4.45474e-07 -5.02477e-08 -1.14175e-22 -1.98146e-07 3.46699e-23 0)
(4.48854e-07 -4.42035e-08 2.43397e-22 -1.98903e-07 1.04122e-22 0)
(4.52038e-07 -3.84886e-08 2.28777e-22 -1.99711e-07 1.25823e-23 0)
(4.55011e-07 -3.30511e-08 7.78193e-24 -2.00541e-07 8.61385e-23 0)
(4.57751e-07 -2.78399e-08 1.21932e-23 -2.01341e-07 9.13701e-23 0)
(4.60233e-07 -2.28153e-08 -1.2638e-22 -2.02029e-07 -1.38504e-22 0)
(4.62344e-07 -1.79506e-08 -2.69825e-29 -2.02458e-07 -2.9603e-29 0)
(4.64028e-07 -1.32132e-08 2.71512e-22 -2.02414e-07 3.84817e-22 0)
(4.64865e-07 -8.63777e-09 -1.57674e-23 -2.0148e-07 -1.00984e-22 0)
(4.64889e-07 -3.89166e-09 2.93345e-20 -1.99234e-07 4.48681e-23 -9.54939e-35)
(4.51722e-07 -1.53385e-07 1.49136e-23 -2.2342e-07 1.7665e-22 0)
(4.49109e-07 -1.41158e-07 -1.5628e-22 -2.2224e-07 -6.79637e-23 0)
(4.49609e-07 -1.29191e-07 -3.96481e-22 -2.19788e-07 -3.16649e-22 0)
(4.48958e-07 -1.18653e-07 2.60176e-22 -2.18013e-07 1.74349e-22 0)
(4.4947e-07 -1.08054e-07 6.76577e-22 -2.15773e-07 4.37894e-22 0)
(4.49758e-07 -9.84617e-08 -1.25475e-22 -2.13935e-07 -1.27527e-22 0)
(4.50638e-07 -8.92291e-08 0 -2.12184e-07 0 0)
(4.51562e-07 -8.0698e-08 1.22149e-22 -2.10736e-07 1.23645e-22 0)
(4.52799e-07 -7.26504e-08 -3.86936e-22 -2.09537e-07 -1.64873e-22 0)
(4.54138e-07 -6.51459e-08 -2.52951e-22 -2.08623e-07 -1.83314e-22 0)
(4.55645e-07 -5.80906e-08 1.02261e-23 -2.07978e-07 -1.40171e-22 0)
(4.5724e-07 -5.14555e-08 -1.30494e-22 -2.07593e-07 -2.10988e-22 0)
(4.58919e-07 -4.51729e-08 -7.00806e-24 -2.07442e-07 2.20766e-22 0)
(4.60641e-07 -3.91863e-08 2.53121e-22 -2.07484e-07 3.44255e-22 0)
(4.6236e-07 -3.34327e-08 1.20236e-22 -2.07655e-07 5.11759e-23 0)
(4.64027e-07 -2.78419e-08 -6.63178e-24 -2.07858e-07 -8.55713e-23 0)
(4.65507e-07 -2.23495e-08 2.32901e-22 -2.07933e-07 9.57308e-23 0)
(4.6673e-07 -1.6817e-08 1.14506e-22 -2.07669e-07 4.59497e-23 0)
(4.67272e-07 -1.12361e-08 4.74211e-22 -2.06672e-07 3.68903e-22 0)
(4.67192e-07 -4.87031e-09 3.03843e-20 -2.04561e-07 1.07036e-21 9.4707e-35)
(5.02909e-07 -1.55029e-07 9.41658e-23 -2.54802e-07 1.24897e-22 0)
(4.93579e-07 -1.44345e-07 2.31172e-24 -2.51359e-07 4.78383e-24 0)
(4.89059e-07 -1.3264e-07 -2.85874e-22 -2.46039e-07 -1.95052e-22 0)
(4.83277e-07 -1.22889e-07 -6.87452e-22 -2.41918e-07 -5.05288e-22 0)
(4.79535e-07 -1.12576e-07 2.68087e-22 -2.37309e-07 1.79841e-22 0)
(4.75768e-07 -1.03279e-07 2.5432e-22 -2.33274e-07 2.45792e-22 0)
(4.73131e-07 -9.41644e-08 -1.24593e-22 -2.29486e-07 -1.20598e-22 0)
(4.70847e-07 -8.56724e-08 -1.80613e-23 -2.2615e-07 5.34965e-23 0)
(4.69255e-07 -7.7586e-08 5.40802e-22 -2.23236e-07 3.18549e-22 0)
(4.68076e-07 -6.99841e-08 -3.6537e-22 -2.20768e-07 -3.62902e-22 0)
(4.67372e-07 -6.27947e-08 -1.29971e-22 -2.18741e-07 -1.30712e-22 0)
(4.67032e-07 -5.59963e-08 3.57208e-22 -2.17141e-07 5.08612e-22 0)
(4.6704e-07 -4.95321e-08 -5.06351e-22 -2.15945e-07 -1.52117e-22 0)
(4.67331e-07 -4.33441e-08 -3.6785e-22 -2.15112e-07 -3.82781e-22 0)
(4.67849e-07 -3.73634e-08 -1.0649e-24 -2.1458e-07 -7.68637e-23 0)
(4.68529e-07 -3.14928e-08 -4.91668e-22 -2.14258e-07 -3.70371e-22 0)
(4.6924e-07 -2.56377e-08 -3.59308e-24 -2.14003e-07 -3.30877e-24 0)
(4.69905e-07 -1.95712e-08 4.85117e-22 -2.13635e-07 4.54257e-22 0)
(4.70173e-07 -1.32628e-08 9.66208e-24 -2.1284e-07 9.33078e-23 0)
(4.70077e-07 -5.66326e-09 3.05667e-20 -2.113e-07 8.41719e-22 -6.86871e-37)
(5.53303e-07 -1.45344e-07 -9.85275e-23 -2.84213e-07 -1.22224e-22 0)
(5.37556e-07 -1.37921e-07 1.34971e-22 -2.79153e-07 1.2041e-22 0)
(5.28506e-07 -1.27486e-07 1.64991e-22 -2.71465e-07 8.55846e-23 0)
(5.17843e-07 -1.19509e-07 -1.31813e-22 -2.65297e-07 -1.20561e-22 0)
(5.10104e-07 -1.10407e-07 -3.08681e-22 -2.58662e-07 -1.53304e-22 0)
(5.02452e-07 -1.02151e-07 1.50666e-22 -2.5258e-07 7.45086e-23 0)
(4.96384e-07 -9.38553e-08 4.28029e-22 -2.46877e-07 2.71753e-22 0)
(4.90956e-07 -8.5979e-08 -6.89047e-22 -2.41703e-07 -4.5596e-22 0)
(4.86543e-07 -7.83757e-08 -4.24798e-22 -2.37099e-07 -2.75986e-22 0)
(4.82834e-07 -7.11314e-08 6.66924e-22 -2.33081e-07 4.4517e-22 0)
(4.79875e-07 -6.42196e-08 -2.70533e-22 -2.29663e-07 -1.28849e-22 0)
(4.77541e-07 -5.76305e-08 3.63442e-22 -2.26832e-07 3.62546e-22 0)
(4.75794e-07 -5.13283e-08 3.87536e-22 -2.24569e-07 2.49374e-22 0)
(4.74562e-07 -4.52566e-08 -2.30345e-22 -2.22841e-07 -3.09241e-22 0)
(4.73781e-07 -3.9347e-08 -1.43269e-22 -2.21598e-07 7.38012e-23 0)
(4.73378e-07 -3.34819e-08 7.03553e-24 -2.20766e-07 6.35567e-24 0)
(4.7325e-07 -2.75482e-08 -6.00045e-22 -2.20239e-07 -4.90688e-22 0)
(4.73311e-07 -2.12535e-08 1.19921e-22 -2.19886e-07 1.31323e-22 0)
(4.73341e-07 -1.45594e-08 2.35757e-22 -2.19501e-07 1.81758e-22 0)
(4.73298e-07 -6.21157e-09 3.07079e-20 -2.18849e-07 8.42611e-22 -2.81891e-37)
(6.00257e-07 -1.25032e-07 1.24451e-24 -3.09058e-07 3.87795e-24 0)
(5.7885e-07 -1.22552e-07 -1.39418e-22 -3.03217e-07 -1.20004e-22 0)
(5.66044e-07 -1.14476e-07 2.83478e-23 -2.94176e-07 -3.11895e-23 0)
(5.51039e-07 -1.08943e-07 0 -2.86338e-07 0 0)
(5.39711e-07 -1.01877e-07 0 -2.78321e-07 0 0)
(5.28628e-07 -9.52428e-08 -4.16556e-22 -2.70668e-07 -3.19956e-22 0)
(5.194e-07 -8.84074e-08 3.72111e-22 -2.63479e-07 3.38347e-22 0)
(5.11075e-07 -8.17057e-08 7.83091e-22 -2.56792e-07 6.6758e-22 0)
(5.03974e-07 -7.51112e-08 -5.93647e-22 -2.50715e-07 -5.55595e-22 0)
(4.97821e-07 -6.86915e-08 -5.18378e-22 -2.45277e-07 -4.32072e-22 0)
(4.92634e-07 -6.24691e-08 2.39902e-22 -2.40524e-07 2.32397e-22 0)
(4.88296e-07 -5.6452e-08 -2.16256e-23 -2.3647e-07 4.54727e-23 0)
(4.84762e-07 -5.06301e-08 4.0502e-22 -2.33118e-07 1.99344e-22 0)
(4.81957e-07 -4.49621e-08 6.33969e-22 -2.30458e-07 4.32616e-22 0)
(4.7982e-07 -3.93891e-08 8.69933e-24 -2.28468e-07 7.78095e-24 0)
(4.78282e-07 -3.3789e-08 2.81493e-22 -2.27109e-07 -7.49458e-23 0)
(4.77278e-07 -2.80428e-08 0 -2.26328e-07 0 0)
(4.76717e-07 -2.18231e-08 -2.41158e-22 -2.26055e-07 -1.06432e-22 0)
(4.76549e-07 -1.50942e-08 1.15952e-22 -2.26214e-07 4.90907e-23 0)
(4.76616e-07 -6.49527e-09 3.11912e-20 -2.26665e-07 9.36774e-22 -7.49744e-37)
(6.41747e-07 -9.605e-08 -9.89157e-25 -3.27512e-07 -3.38879e-24 0)
(6.15494e-07 -9.942e-08 1.71649e-22 -3.21495e-07 1.01731e-22 0)
(6.00085e-07 -9.53939e-08 -1.70804e-22 -3.13218e-07 -1.03078e-22 0)
(5.81739e-07 -9.27894e-08 -1.68101e-22 -3.04383e-07 -1.004e-22 0)
(5.67182e-07 -8.86147e-08 4.62633e-22 -2.9551e-07 3.11326e-22 0)
(5.53179e-07 -8.40025e-08 3.28774e-22 -2.86585e-07 1.94515e-22 0)
(5.4107e-07 -7.89626e-08 -4.37597e-22 -2.78099e-07 -2.8906e-22 0)
(5.30157e-07 -7.36888e-08 5.52896e-23 -2.70107e-07 -5.92084e-23 0)
(5.20607e-07 -6.83277e-08 1.00054e-22 -2.62758e-07 9.05388e-23 0)
(5.12221e-07 -6.2961e-08 -5.09261e-23 -2.56109e-07 7.00524e-23 0)
(5.04966e-07 -5.76595e-08 -4.42665e-22 -2.50214e-07 -2.4116e-22 0)
(4.98746e-07 -5.24538e-08 4.00538e-24 -2.45106e-07 3.76931e-24 0)
(4.93506e-07 -4.73536e-08 -2.06787e-22 -2.40808e-07 -2.71135e-22 0)
(4.89172e-07 -4.23333e-08 -6.90331e-24 -2.37332e-07 -6.17763e-24 0)
(4.85705e-07 -3.73445e-08 2.58043e-22 -2.34688e-07 1.25295e-22 0)
(4.83035e-07 -3.22713e-08 -5.19633e-24 -2.32876e-07 -4.45388e-24 0)
(4.81157e-07 -2.69975e-08 3.21145e-22 -2.31907e-07 4.16619e-22 0)
(4.79973e-07 -2.11881e-08 -1.1863e-22 -2.31779e-07 -5.30709e-23 0)
(4.79627e-07 -1.48104e-08 -5.62856e-22 -2.32559e-07 -5.45376e-22 0)
(4.79823e-07 -6.49286e-09 3.07631e-20 -2.34215e-07 4.52454e-22 -5.67094e-35)
(6.7471e-07 -5.87933e-08 -2.17867e-23 -3.39299e-07 -1.09821e-23 0)
(6.47537e-07 -6.60565e-08 -1.83759e-22 -3.31892e-07 -1.07661e-22 0)
(6.29953e-07 -6.78146e-08 1.50167e-22 -3.26268e-07 1.15893e-22 0)
(6.10353e-07 -6.85546e-08 -3.94696e-22 -3.18285e-07 -3.51032e-22 0)
(5.93187e-07 -6.82743e-08 -4.05135e-22 -3.09951e-07 -3.30057e-22 0)
(5.7694e-07 -6.68122e-08 2.41238e-22 -3.00996e-07 2.41886e-22 0)
(5.62242e-07 -6.45258e-08 2.10699e-22 -2.91957e-07 2.42376e-22 0)
(5.48893e-07 -6.15504e-08 3.63928e-22 -2.83114e-07 3.20359e-22 0)
(5.36965e-07 -5.80953e-08 -4.2498e-22 -2.74702e-07 -3.12183e-22 0)
(5.26366e-07 -5.43166e-08 1.27357e-24 -2.66901e-07 8.45429e-24 0)
(5.17055e-07 -5.03423e-08 -5.77396e-24 -2.59831e-07 -2.52414e-23 0)
(5.08951e-07 -4.62624e-08 -3.3434e-22 -2.53585e-07 -3.18684e-22 0)
(5.02e-07 -4.21322e-08 0 -2.48231e-07 0 0)
(4.96134e-07 -3.79647e-08 -2.97607e-22 -2.43821e-07 -9.78417e-23 0)
(4.91319e-07 -3.37406e-08 -1.53315e-24 -2.40407e-07 -5.84593e-24 0)
(4.87496e-07 -2.93717e-08 -3.85816e-22 -2.38037e-07 -1.87467e-22 0)
(4.84718e-07 -2.47594e-08 1.07159e-22 -2.36794e-07 1.10277e-22 0)
(4.82883e-07 -1.95946e-08 2.43077e-22 -2.36751e-07 1.11239e-22 0)
(4.82344e-07 -1.38534e-08 2.98215e-24 -2.38126e-07 -2.18849e-25 0)
(4.82681e-07 -6.24209e-09 3.10994e-20 -2.41008e-07 4.29066e-22 -2.40483e-37)
(6.90732e-07 -2.81231e-08 1.90665e-22 -3.39955e-07 1.64365e-22 0)
(6.66014e-07 -3.20296e-08 -1.74847e-22 -3.33748e-07 -1.09189e-22 0)
(6.47025e-07 -3.91793e-08 -1.02081e-22 -3.29912e-07 -8.31381e-23 0)
(6.27609e-07 -4.25911e-08 1.68024e-22 -3.23499e-07 1.02095e-22 0)
(6.09605e-07 -4.50008e-08 -3.30389e-22 -3.15931e-07 -1.51134e-22 0)
(5.92502e-07 -4.60998e-08 -2.23043e-22 -3.07589e-07 -1.05814e-22 0)
(5.76712e-07 -4.61681e-08 -2.80524e-22 -2.98829e-07 -2.00705e-22 0)
(5.6214e-07 -4.53846e-08 3.22662e-23 -2.90029e-07 -2.23541e-23 0)
(5.48911e-07 -4.39105e-08 5.65568e-22 -2.81457e-07 3.57176e-22 0)
(5.36973e-07 -4.19168e-08 -1.97101e-23 -2.73343e-07 -2.05685e-23 0)
(5.26333e-07 -3.95354e-08 3.01703e-22 -2.65858e-07 1.69963e-22 0)
(5.16939e-07 -3.68776e-08 -1.51254e-23 -2.59138e-07 -1.66157e-23 0)
(5.08763e-07 -3.40199e-08 1.11624e-36 -2.53293e-07 1.10461e-36 0)
(5.01758e-07 -3.10026e-08 -1.3241e-22 -2.48418e-07 -6.58611e-23 0)
(4.95922e-07 -2.78334e-08 1.294e-22 -2.4461e-07 6.29401e-23 0)
(4.91205e-07 -2.44589e-08 -5.95309e-24 -2.41964e-07 -8.27978e-24 0)
(4.87723e-07 -2.08103e-08 1.89453e-23 -2.40631e-07 -5.33537e-23 0)
(4.85368e-07 -1.66482e-08 1.25475e-24 -2.40751e-07 3.83206e-24 0)
(4.84658e-07 -1.19628e-08 -1.14312e-24 -2.42667e-07 1.51274e-24 0)
(4.85068e-07 -5.6497e-09 3.15031e-20 -2.46585e-07 1.65731e-22 2.80576e-37)
(6.77007e-07 1.96463e-09 1.76352e-22 -3.2715e-07 1.37328e-22 0)
(6.60624e-07 -2.53507e-09 0 -3.29216e-07 0 0)
(6.43476e-07 -1.12368e-08 -1.3814e-22 -3.26348e-07 -1.19162e-22 0)
(6.26301e-07 -1.69497e-08 1.8011e-36 -3.21557e-07 1.43317e-36 0)
(6.09896e-07 -2.14497e-08 4.11587e-37 -3.15131e-07 2.94889e-37 0)
(5.94032e-07 -2.46426e-08 1.95382e-36 -3.07745e-07 1.433e-36 0)
(5.79127e-07 -2.67114e-08 3.00427e-36 -2.99752e-07 2.38491e-36 0)
(5.65128e-07 -2.78393e-08 -1.21321e-22 -2.91541e-07 -1.1098e-22 0)
(5.52211e-07 -2.8172e-08 0 -2.83398e-07 0 0)
(5.4037e-07 -2.78706e-08 1.16006e-22 -2.75572e-07 1.09642e-22 0)
(5.29664e-07 -2.70624e-08 -1.69512e-37 -2.6826e-07 -2.70795e-37 0)
(5.2008e-07 -2.58616e-08 -1.1165e-22 -2.61625e-07 -1.09201e-22 0)
(5.11634e-07 -2.43501e-08 1.09837e-22 -2.55805e-07 1.09264e-22 0)
(5.0431e-07 -2.25838e-08 1.56476e-36 -2.50926e-07 1.12449e-36 0)
(4.98142e-07 -2.05854e-08 -1.0694e-22 -2.47117e-07 -1.09896e-22 0)
(4.93113e-07 -1.83389e-08 -9.44657e-37 -2.4451e-07 -8.55307e-37 0)
(4.89386e-07 -1.57977e-08 1.0506e-22 -2.43301e-07 1.11217e-22 0)
(4.86869e-07 -1.28135e-08 1.0452e-22 -2.43674e-07 1.12198e-22 0)
(4.86203e-07 -9.40601e-09 -1.12156e-36 -2.46074e-07 -9.6092e-37 0)
(4.86788e-07 -4.79843e-09 3.16543e-20 -2.50732e-07 -9.75835e-37 -1.86731e-49)