/*--------------------------------*- C++ -*----------------------------------*\
  =========                 |
  \\      /  F ield         | OpenFOAM: The Open Source CFD Toolbox
   \\    /   O peration     | Website:  https://openfoam.org
    \\  /    A nd           | Version:  9
     \\/     M anipulation  |
\*---------------------------------------------------------------------------*/
FoamFile
{
    format      ascii;
    class       volSymmTensorField;
    location    "1";
    object      sigma;
}
// * * * * * * * * * * * * * * * * * * * * * * * * * * * * * * * * * * * * * //

dimensions      [1 -1 -2 0 0 0 0];

internalField   nonuniform List<symmTensor> 
1000
(
(123093 -84202.9 -7.17231e-11 71349 -7.69925e-11 18835.3)
(144350 -64838.3 -6.43524e-11 38884.5 -6.3319e-11 18616.6)
(155038 -49650.1 -5.70573e-11 23549.6 -5.28154e-11 18631.7)
(159588 -38174.4 -5.16877e-11 11623.6 -4.4879e-11 18274.2)
(161252 -28960.6 -4.70014e-11 4633.39 -3.85645e-11 17989.9)
(160596 -21749 -4.33336e-11 -543.318 -3.36322e-11 17599)
(158980 -15894.3 -4.02402e-11 -3880.09 -2.96477e-11 17242.1)
(156489 -11237.6 -3.77682e-11 -6278.69 -2.64865e-11 16860.1)
(153914 -7372.49 -3.56605e-11 -7853.26 -2.38722e-11 16525.4)
(150504 -4152.23 -3.39669e-11 -9360.18 -2.16923e-11 16108.6)
(156114 -93656.2 -7.67409e-11 72024.2 -8.32674e-11 22014)
(170092 -66928.2 -6.46809e-11 41022.5 -6.47102e-11 21265.4)
(175827 -47728.9 -5.47689e-11 27015 -5.15591e-11 20936)
(176398 -33914.9 -4.79286e-11 15689.5 -4.20781e-11 20258.2)
(174986 -23403.3 -4.24153e-11 9230.42 -3.49119e-11 19726.7)
(171803 -15533.6 -3.83603e-11 4271.61 -2.95485e-11 19112.4)
(168122 -9397.91 -3.51166e-11 1085.94 -2.53833e-11 18568.5)
(163921 -4731.68 -3.26964e-11 -1411.31 -2.2217e-11 18012.8)
(159750 -959.222 -3.06775e-11 -2933.31 -1.9669e-11 17525.8)
(155146 2070.21 -2.92242e-11 -4992.63 -1.76081e-11 16949.1)
(191677 -99634.6 -8.00547e-11 69394.3 -8.71435e-11 25220.9)
(196332 -66855.1 -6.37913e-11 42221.2 -6.46331e-11 23911.1)
(195985 -44412.2 -5.15628e-11 30818.7 -4.93767e-11 23217.3)
(191879 -28762.4 -4.3463e-11 20840 -3.87043e-11 22203.4)
(186973 -17332.8 -3.72993e-11 15351.8 -3.09505e-11 21414)
(181013 -9092.94 -3.30018e-11 10870.2 -2.53551e-11 20569)
(175149 -2916.75 -2.97342e-11 8000.85 -2.11735e-11 19837.1)
(169158 1594.86 -2.74513e-11 5529.2 -1.81148e-11 19107.6)
(163531 5089.75 -2.56332e-11 4066.34 -1.57567e-11 18480.9)
(157678 7943.72 -2.43757e-11 1676.35 -1.38089e-11 17755.8)
(228633 -101285 -8.10697e-11 63976.5 -8.80623e-11 28391.4)
(222480 -64354.8 -6.15133e-11 42601.4 -6.29149e-11 26508)
(215194 -39758.4 -4.74916e-11 34914.5 -4.63074e-11 25440.6)
(205836 -22977.1 -3.84833e-11 26929.2 -3.49293e-11 24077.3)
(197094 -11132.9 -3.1936e-11 22765.9 -2.69331e-11 23018.9)
(188184 -2876.52 -2.75945e-11 18932.3 -2.13458e-11 21936.2)
(180058 3076.1 -2.44652e-11 16418.3 -1.73258e-11 21009)
(172318 7265.91 -2.24203e-11 13992.1 -1.44871e-11 20109.8)
(165290 10341.6 -2.09085e-11 12478 -1.24113e-11 19338.9)
(158411 12858.8 -1.9918e-11 9905.35 -1.06873e-11 18497.1)
(265320 -97846.3 -7.92409e-11 56438.5 -8.55313e-11 31421.4)
(247756 -59079.7 -5.76195e-11 42322.8 -5.93273e-11 28995.4)
(232994 -33704.2 -4.25317e-11 39273.6 -4.23091e-11 27559.8)
(218009 -16700.5 -3.3106e-11 33825.3 -3.08456e-11 25843.3)
(205218 -5097.18 -2.65449e-11 31278.4 -2.30522e-11 24511.4)
(193287 2714.74 -2.24305e-11 28218.9 -1.77843e-11 23189.4)
(182935 8112.64 -1.96442e-11 26077.7 -1.41481e-11 22068.7)
(173533 11755.1 -1.79789e-11 23679.5 -1.16795e-11 21004.8)
(165257 14250.3 -1.68884e-11 22009.6 -9.9914e-12 20095.4)
(157489 16296.5 -1.62464e-11 19249.3 -8.58057e-12 19148.4)
(300907 -89129.9 -7.42739e-11 47964.9 -7.94506e-11 34321.8)
(271785 -50813.3 -5.18905e-11 41959.1 -5.37384e-11 31382.5)
(249251 -26181.2 -3.65907e-11 44220.8 -3.7343e-11 29586.8)
(228360 -10074.6 -2.74101e-11 41599 -2.65499e-11 27502)
(211405 490.078 -2.13245e-11 40763.6 -1.94955e-11 25885.1)
(196481 7313.08 -1.77836e-11 38442.2 -1.49106e-11 24318.8)
(184009 11801.2 -1.55762e-11 36573.1 -1.18931e-11 23004.1)
(173103 14673 -1.44431e-11 34113.4 -9.9421e-12 21782.1)
(163752 16462.9 -1.3869e-11 32162 -8.72276e-12 20740.1)
(155263 17935.1 -1.36401e-11 29190.6 -7.69303e-12 19701.8)
(333152 -74587.7 -6.57274e-11 39497.4 -6.94776e-11 36950.6)
(293390 -38954.8 -4.38749e-11 42133.2 -4.5761e-11 33607.4)
(262920 -16987.3 -2.9497e-11 50177.4 -3.12844e-11 31453.9)
(236134 -3194.31 -2.14575e-11 50352.5 -2.21094e-11 28986.5)
(215214 5351.01 -1.64935e-11 51009.3 -1.64453e-11 27078.5)
(197602 10556.7 -1.39579e-11 49165.3 -1.29584e-11 25271.9)
(183339 13771.1 -1.25911e-11 47321.2 -1.07974e-11 23773)
(171226 15674.4 -1.21353e-11 44625.1 -9.49217e-12 22406.7)
(161065 16688.8 -1.21388e-11 42243.3 -8.78449e-12 21246.2)
(152050 17542.1 -1.23557e-11 39007.8 -8.16493e-12 20130.8)
(364159 -54201.4 -5.31214e-11 33562.1 -5.56474e-11 39704.9)
(312778 -22955.8 -3.28492e-11 45121.1 -3.50747e-11 35868.1)
(273975 -6033.58 -2.09157e-11 58849 -2.41089e-11 33288.9)
(241520 3525.26 -1.5368e-11 60912.9 -1.78186e-11 30374.2)
(217031 8955.76 -1.23526e-11 62164.5 -1.42586e-11 28135.5)
(197241 11974.5 -1.12802e-11 60108.1 -1.22355e-11 26080.7)
(181628 13691.1 -1.0968e-11 57778.9 -1.10701e-11 24399.9)
(168687 14577.8 -1.12596e-11 54547.4 -1.04357e-11 22903.1)
(158012 14887.4 -1.18187e-11 51558.5 -1.01886e-11 21639.9)
(148686 15188.6 -1.24424e-11 48001.4 -9.9321e-12 20464.8)
(389849 -25526.4 -3.45174e-11 33223.7 -3.6395e-11 42442.6)
(325756 -2832.02 -1.82842e-11 54842.9 -2.17791e-11 38054)
(278440 5181.96 -1.15645e-11 72203.2 -1.6868e-11 34840.4)
(241682 8262.58 -1.0293e-11 73670.3 -1.49101e-11 31402.2)
(215336 9851.4 -9.96399e-12 73544.8 -1.3897e-11 28842.9)
(194686 10466.9 -1.06471e-11 70124.4 -1.3456e-11 26578.8)
(178681 10806.1 -1.14007e-11 66639.2 -1.31895e-11 24759.4)
(165538 10884.3 -1.2343e-11 62571.9 -1.30799e-11 23172.1)
(154751 10756.3 -1.32946e-11 58880.4 -1.31111e-11 21840.7)
(145347 10715.8 -1.4187e-11 55009.1 -1.30774e-11 20630.9)
(423073 21763.6 -6.76876e-14 57013.5 -5.16493e-12 47916.7)
(331536 24157.4 3.79127e-12 85117.8 -4.32611e-12 41163.1)
(277896 15690.7 -1.38621e-12 94057.6 -1.02854e-11 36543.3)
(240110 10062.9 -6.57132e-12 89693.4 -1.40384e-11 32482.5)
(213695 7949.33 -9.40566e-12 84483.2 -1.53989e-11 29496.3)
(193164 6836 -1.16379e-11 78226.6 -1.60565e-11 27012.6)
(177267 6499.1 -1.31327e-11 72796.2 -1.62021e-11 25049.9)
(164187 6335.12 -1.43912e-11 67719.7 -1.62336e-11 23389.7)
(153408 6205.89 -1.54511e-11 63372.4 -1.62521e-11 22009.2)
(143962 6130.39 -1.63946e-11 59330.3 -1.62385e-11 20782.2)
(-588.168 220.665 -3.34599e-11 -325.206 -1.92557e-11 2128.33)
(375.153 -673.772 -3.39341e-11 65.2503 -1.98603e-11 2243.54)
(4392.3 -2186.15 -3.48326e-11 -216.894 -2.08589e-11 2599.29)
(10884.7 -3405.99 -3.54779e-11 -454.013 -2.16574e-11 3202.02)
(18451.1 -4163.59 -3.57883e-11 -580.591 -2.21465e-11 3921.86)
(26409.3 -4596.57 -3.5875e-11 -642.817 -2.24192e-11 4687.79)
(34212.4 -4769.5 -3.57932e-11 -655.454 -2.25189e-11 5444.76)
(41675.9 -4786.47 -3.56154e-11 -629.225 -2.25157e-11 6173.07)
(48519.8 -4662.05 -3.53665e-11 -616.695 -2.2419e-11 6841.31)
(54903.5 -4565.7 -3.51314e-11 -511.462 -2.23438e-11 7471.55)
(706.121 -708.117 -3.3973e-11 -89.2546 -1.98795e-11 2263.71)
(5940.8 -4033.82 -3.55064e-11 2520.55 -2.21488e-11 2940.89)
(13554.6 -7736.92 -3.76255e-11 2648.93 -2.46148e-11 3657.77)
(21656 -10577.4 -3.93407e-11 1863.77 -2.64837e-11 4360.66)
(29799 -12334.5 -4.03704e-11 1094.11 -2.76274e-11 5078.7)
(37542.9 -13323.2 -4.09155e-11 397.622 -2.82594e-11 5770.48)
(44722.9 -13687 -4.10556e-11 -140.862 -2.84773e-11 6425.1)
(51370.3 -13672.4 -4.09455e-11 -526.222 -2.84461e-11 7042.98)
(57231.1 -13300.9 -4.06221e-11 -857.319 -2.81789e-11 7591.69)
(62793.9 -13004.9 -4.03045e-11 -890.662 -2.79689e-11 8133.35)
(2244.48 -3645.47 -3.53676e-11 2433.48 -2.18943e-11 2578.08)
(11451 -10158.8 -3.87404e-11 5450.2 -2.62978e-11 3643.52)
(21999 -14752 -4.14278e-11 5085.54 -2.93435e-11 4600.44)
(31700.7 -17833.1 -4.34429e-11 3150.04 -3.13464e-11 5369.48)
(40616.9 -19539.1 -4.45937e-11 1333.46 -3.24329e-11 6083.77)
(48468.8 -20346.4 -4.51667e-11 -248.007 -3.29251e-11 6720.5)
(55358.6 -20455.6 -4.52639e-11 -1454.21 -3.29594e-11 7298.54)
(61498.3 -20139.4 -4.50566e-11 -2325.59 -3.27174e-11 7832.89)
(66629.5 -19435.3 -4.45957e-11 -2984.28 -3.22224e-11 8288.73)
(71600.6 -18844.3 -4.4134e-11 -3179.56 -3.18128e-11 8763.2)
(5447.31 -8274.68 -3.72365e-11 8297.33 -2.51073e-11 3292.66)
(18907.6 -17522 -4.25648e-11 9229.67 -3.12892e-11 4588.8)
(31871.6 -22353.4 -4.55334e-11 7701.29 -3.44655e-11 5690.27)
(42946.1 -25060.5 -4.74794e-11 4548.76 -3.61903e-11 6503.94)
(52509.9 -26188.4 -4.84119e-11 1750.47 -3.68683e-11 7212.04)
(60471.2 -26404 -4.87488e-11 -672.125 -3.69467e-11 7800.99)
(67112.5 -25963.9 -4.86151e-11 -2541.48 -3.66002e-11 8309.53)
(72809.2 -25139.6 -4.81836e-11 -3924.8 -3.60085e-11 8766.48)
(77262.7 -23989.3 -4.75223e-11 -4971.82 -3.52081e-11 9131)
(81704.6 -23018.5 -4.68722e-11 -5395.94 -3.45406e-11 9540.06)
(10929.4 -14832.4 -3.9809e-11 16921.4 -2.96635e-11 4421)
(28917.2 -25543.2 -4.6679e-11 13386.1 -3.67237e-11 5805.15)
(43888.8 -29884.4 -4.96369e-11 9740.87 -3.95243e-11 6945.76)
(55903.9 -31683.1 -5.1243e-11 5037.33 -4.06071e-11 7741.61)
(65732.2 -31806.8 -5.17062e-11 1213.68 -4.05913e-11 8406.74)
(73531 -31106.5 -5.15989e-11 -1989.4 -4.00408e-11 8929)
(79744.7 -29882.8 -5.10762e-11 -4423.89 -3.91591e-11 9360.19)
(84877.8 -28382.5 -5.0301e-11 -6220.6 -3.81075e-11 9737.14)
(88597.7 -26696.8 -4.93699e-11 -7562.83 -3.6944e-11 10012.7)
(92467.2 -25265.1 -4.84699e-11 -8144.85 -3.5966e-11 10358.2)
(19417.1 -23469.4 -4.32708e-11 27638.3 -3.56485e-11 5981.77)
(41804.2 -33678 -5.07152e-11 18015.5 -4.22382e-11 7336.44)
(58361.4 -36658.5 -5.32236e-11 11660.4 -4.40689e-11 8438.1)
(70842.5 -37088.4 -5.42377e-11 5251.41 -4.41995e-11 9162.33)
(80514 -35941.6 -5.40651e-11 455.601 -4.33136e-11 9750.03)
(87810.5 -34164.8 -5.34038e-11 -3416.26 -4.20298e-11 10182.5)
(93342.1 -32060.4 -5.24173e-11 -6299.71 -4.05506e-11 10521.2)
(97712.7 -29826 -5.12511e-11 -8406.39 -3.90031e-11 10807.2)
(100574 -27589.1 -5.00317e-11 -9976.93 -3.74675e-11 10986.9)
(103749 -25672 -4.88607e-11 -10660.3 -3.61639e-11 11261.7)
(31508.6 -34091.9 -4.77537e-11 39201.3 -4.29726e-11 7939.29)
(57519.2 -41595.1 -5.45197e-11 22802.2 -4.76044e-11 9156.95)
(75043.7 -42270.5 -5.60424e-11 13475 -4.78292e-11 10148.2)
(87418.5 -40874.4 -5.62023e-11 5294.74 -4.67012e-11 10744.3)
(96470.3 -38247.2 -5.52621e-11 -402.937 -4.4807e-11 11216.8)
(102885 -35308.4 -5.39848e-11 -4838.23 -4.27359e-11 11531.3)
(107454 -32299.7 -5.25071e-11 -8049.07 -4.06463e-11 11759.8)
(110828 -29343.2 -5.09455e-11 -10366.4 -3.86128e-11 11939.3)
(112701 -26591.7 -4.94505e-11 -12075.6 -3.67323e-11 12017.1)
(115014 -24205.2 -4.80146e-11 -12816.6 -3.5115e-11 12207.9)
(47745.1 -46305 -5.31905e-11 50419.6 -5.13459e-11 10259.6)
(75933.9 -48982.3 -5.79281e-11 27565 -5.26102e-11 11243.2)
(93560.3 -46452.6 -5.78869e-11 15478.4 -5.06326e-11 12064.3)
(105164 -42826.6 -5.69289e-11 5677.02 -4.798e-11 12482.7)
(113117 -38577.4 -5.512e-11 -771.837 -4.4987e-11 12806)
(118278 -34462.9 -5.32055e-11 -5641.55 -4.21223e-11 12976.3)
(121620 -30595.9 -5.12557e-11 -9077.61 -3.94563e-11 13076.2)
(123782 -26998.1 -4.93404e-11 -11512.1 -3.69936e-11 13134.7)
(124558 -23822 -4.76245e-11 -13338.1 -3.48285e-11 13100.7)
(125840 -21027.7 -4.59582e-11 -14084.2 -3.29403e-11 13194.5)
(68444.3 -59392.3 -5.93201e-11 60093 -6.02635e-11 12888.8)
(96789.4 -55535.4 -6.08082e-11 31988.1 -5.70458e-11 13549)
(113411 -49082.3 -5.86744e-11 17767.7 -5.23997e-11 14146.2)
(123488 -42923.2 -5.63724e-11 6688.89 -4.80287e-11 14342.2)
(129846 -36977.4 -5.36199e-11 -272.43 -4.38926e-11 14486.9)
(133388 -31730.6 -5.10808e-11 -5432.04 -4.02673e-11 14488)
(135264 -27092.3 -4.86982e-11 -8963.14 -3.70862e-11 14445)
(135993 -22986.6 -4.65122e-11 -11481.9 -3.42845e-11 14362.3)
(135622 -19493.2 -4.463e-11 -13338.3 -3.19087e-11 14217.3)
(135660 -16368.4 -4.28211e-11 -14290.3 -2.97974e-11 14177.4)
(93660.1 -72401.6 -6.56964e-11 67288.8 -6.90689e-11 15770.4)
(119738 -60936.2 -6.30057e-11 35835.6 -6.06937e-11 16025.3)
(134065 -50139.1 -5.83888e-11 20456 -5.3121e-11 16350.9)
(141785 -41297.5 -5.4581e-11 8627.69 -4.69437e-11 16285.2)
(146025 -33665.4 -5.08545e-11 1462.8 -4.16791e-11 16223.8)
(147598 -27368.8 -4.77204e-11 -3795.57 -3.7353e-11 16035.4)
(147771 -22078.2 -4.49687e-11 -7321.57 -3.37385e-11 15833)
(146924 -17615.4 -4.25874e-11 -9778.89 -3.07025e-11 15604.8)
(145405 -13998 -4.06785e-11 -11776 -2.82431e-11 15338.5)
(144018 -10866.4 -3.88589e-11 -12476.3 -2.61354e-11 15179)
(60611 -4237.22 -3.47841e-11 -510.931 -2.21124e-11 8030.13)
(65635.8 -3782.85 -3.43559e-11 -398.689 -2.18005e-11 8531.89)
(70243.4 -3386.22 -3.39801e-11 -317.667 -2.15273e-11 8990.17)
(74381 -3026.2 -3.36417e-11 -257.139 -2.12794e-11 9400.79)
(78116.6 -2691.97 -3.333e-11 -198.204 -2.10493e-11 9771.96)
(81460 -2392.75 -3.30526e-11 -154.773 -2.08433e-11 10103.4)
(84458 -2118.13 -3.27989e-11 -113.359 -2.06543e-11 10400.9)
(87128 -1870.36 -3.25724e-11 -81.0781 -2.04837e-11 10665.5)
(89503.3 -1643.05 -3.23662e-11 -53.1504 -2.03275e-11 10900.9)
(91600.8 -1434.97 -3.21801e-11 -31.0631 -2.01842e-11 11108.6)
(93442.3 -1241.33 -3.201e-11 -13.4357 -2.00512e-11 11290.9)
(95040.2 -1059.18 -3.18541e-11 -0.586863 -1.99266e-11 11449.1)
(96405.8 -885.588 -3.17095e-11 8.43919 -1.98077e-11 11584.4)
(97547.1 -717.605 -3.15755e-11 12.8991 -1.96932e-11 11697.3)
(98466.5 -553.364 -3.14496e-11 12.7929 -1.95814e-11 11788.3)
(99170.3 -392.331 -3.13316e-11 9.18252 -1.94721e-11 11858)
(99655.6 -237.311 -3.12233e-11 1.6431 -1.93673e-11 11906.1)
(99944.9 -96.8582 -3.11288e-11 -3.98491 -1.92724e-11 11935.1)
(100038 10.7201 -3.10586e-11 -2.60445 -1.92002e-11 11945.2)
(100028 35.5767 -3.10344e-11 51.7643 -1.91849e-11 11948.6)
(67269.8 -12113.8 -3.96753e-11 -1147.43 -2.73579e-11 8557.69)
(70963.1 -10908.4 -3.8823e-11 -1122.37 -2.65443e-11 8930.15)
(74526.7 -9844.25 -3.80506e-11 -1029.03 -2.58267e-11 9293.85)
(77708.5 -8850.79 -3.73397e-11 -980.392 -2.51565e-11 9616.29)
(80659.9 -7919.07 -3.6667e-11 -890.344 -2.45288e-11 9918.97)
(83315.5 -7076.49 -3.60619e-11 -830.559 -2.39605e-11 10189.7)
(85742.3 -6296.04 -3.54995e-11 -758.776 -2.34348e-11 10438.6)
(87923.5 -5586.69 -3.49913e-11 -703.982 -2.29568e-11 10661.5)
(89893.4 -4932 -3.45224e-11 -651.525 -2.25157e-11 10863.2)
(91653.5 -4329.43 -3.40935e-11 -610.642 -2.21096e-11 11043.2)
(93223 -3767.22 -3.36956e-11 -576.555 -2.1731e-11 11203.7)
(94608.6 -3239.62 -3.33257e-11 -551.495 -2.13755e-11 11345.3)
(95820.7 -2737.67 -3.29771e-11 -533.124 -2.10374e-11 11469.3)
(96866.8 -2255.64 -3.26464e-11 -519.532 -2.0713e-11 11576.5)
(97752.3 -1788.98 -3.23291e-11 -508.064 -2.0399e-11 11667.9)
(98486.3 -1337.42 -3.20242e-11 -490.436 -2.00957e-11 11744.8)
(99067.8 -906.702 -3.17336e-11 -457.305 -1.98067e-11 11807.9)
(99515.5 -515.545 -3.14651e-11 -383.079 -1.95457e-11 11860.7)
(99809.6 -191.607 -3.12297e-11 -235.795 -1.93315e-11 11903.4)
(100000 -20.952 -3.10675e-11 71.9402 -1.92232e-11 11946.9)
(74980.7 -17511.6 -4.3269e-11 -3521.92 -3.09068e-11 9078.41)
(77328 -15872.2 -4.21674e-11 -3444.82 -2.98062e-11 9327.75)
(79859.4 -14399.3 -4.11293e-11 -3139.85 -2.88215e-11 9610.81)
(82048.2 -13030.3 -4.0182e-11 -2938.2 -2.7905e-11 9851.74)
(84189.6 -11725.6 -3.92616e-11 -2651.59 -2.70332e-11 10093.9)
(86114.7 -10539.6 -3.84325e-11 -2429.66 -2.62402e-11 10309)
(87931.3 -9429.31 -3.76509e-11 -2195.3 -2.54981e-11 10513.8)
(89580.1 -8414.07 -3.69401e-11 -2001.82 -2.48191e-11 10698.3)
(91104.5 -7470.72 -3.62806e-11 -1824.38 -2.41884e-11 10868.7)
(92486.3 -6599.13 -3.56744e-11 -1679.11 -2.3605e-11 11022.3)
(93745.1 -5785.15 -3.5112e-11 -1557.74 -2.30603e-11 11161.5)
(94878.5 -5022.07 -3.45888e-11 -1462.91 -2.25492e-11 11286)
(95895.7 -4299.63 -3.40978e-11 -1390.71 -2.2065e-11 11397.1)
(96801.1 -3610.73 -3.36336e-11 -1336.23 -2.16033e-11 11495.7)
(97599 -2948.95 -3.31912e-11 -1291.84 -2.11598e-11 11582.8)
(98296 -2312.57 -3.27656e-11 -1242.89 -2.07333e-11 11660.2)
(98887.7 -1702.92 -3.2355e-11 -1166.75 -2.03256e-11 11729.2)
(99386.6 -1129.74 -3.19586e-11 -1019.68 -1.99439e-11 11794.2)
(99747.5 -610.027 -3.1577e-11 -739.768 -1.96012e-11 11855.3)
(100015 -168.755 -3.12073e-11 -218.805 -1.9316e-11 11924.9)
(83995.9 -21313.2 -4.58194e-11 -5857.22 -3.33851e-11 9743.67)
(84912.5 -19437.8 -4.46112e-11 -5814.75 -3.21288e-11 9853.36)
(86376.9 -17706.4 -4.34099e-11 -5349 -3.09764e-11 10047.1)
(87497.3 -16125.1 -4.23415e-11 -5064.52 -2.99218e-11 10192.3)
(88767.7 -14585.6 -4.12694e-11 -4619.91 -2.88978e-11 10363.8)
(89885.6 -13186.1 -4.03048e-11 -4270.34 -2.79661e-11 10512)
(91023.5 -11859.6 -3.93813e-11 -3893.68 -2.70836e-11 10663.5)
(92069.5 -10640.3 -3.85365e-11 -3575.22 -2.62719e-11 10800.7)
(93082.2 -9499.6 -3.7746e-11 -3279.06 -2.55124e-11 10932.2)
(94023.1 -8441.59 -3.70169e-11 -3029.73 -2.48076e-11 11052.4)
(94911 -7450.94 -3.6337e-11 -2816.93 -2.41469e-11 11164.1)
(95734.3 -6521.49 -3.57047e-11 -2644.69 -2.35269e-11 11265.9)
(96499.7 -5642.55 -3.51105e-11 -2507.18 -2.29399e-11 11358.8)
(97205.3 -4806.12 -3.45499e-11 -2399.08 -2.23809e-11 11443.4)
(97851.6 -4004.42 -3.40152e-11 -2309.24 -2.18447e-11 11520.5)
(98441 -3231.33 -3.34999e-11 -2218.66 -2.13279e-11 11591.8)
(98960.6 -2483.49 -3.29975e-11 -2101.11 -2.08287e-11 11658.2)
(99419.7 -1755.57 -3.24966e-11 -1906.47 -2.03446e-11 11724.3)
(99754.2 -1054.1 -3.19927e-11 -1571.97 -1.98813e-11 11788.7)
(100021 -328.853 -3.14331e-11 -983.047 -1.94073e-11 11866)
(93668.9 -23269.4 -4.72658e-11 -8630.45 -3.46178e-11 10456.7)
(93099.1 -21388.9 -4.6098e-11 -8633.32 -3.33602e-11 10418.3)
(93518.3 -19553.3 -4.4821e-11 -7947.23 -3.21448e-11 10528)
(93547.8 -17935.3 -4.37414e-11 -7568.14 -3.10697e-11 10574.5)
(93945.2 -16309.8 -4.26055e-11 -6934.83 -2.99937e-11 10676.2)
(94235.9 -14838 -4.15908e-11 -6431.17 -2.90185e-11 10756.2)
(94676.2 -13421.7 -4.05994e-11 -5883.35 -2.80808e-11 10853.6)
(95093.5 -12112.9 -3.96887e-11 -5409.43 -2.72137e-11 10942.2)
(95565.6 -10878.2 -3.88279e-11 -4965.66 -2.63955e-11 11033.2)
(96032.7 -9726.12 -3.803e-11 -4584.12 -2.56313e-11 11118.2)
(96514 -8643.12 -3.72831e-11 -4254.51 -2.49121e-11 11200)
(96988.8 -7624.13 -3.65862e-11 -3982.99 -2.42347e-11 11276.2)
(97458.9 -6658.73 -3.59317e-11 -3763.18 -2.35922e-11 11347.5)
(97918.4 -5738.77 -3.53137e-11 -3589.14 -2.29792e-11 11413.9)
(98361.6 -4854.36 -3.47238e-11 -3448.86 -2.2389e-11 11475.8)
(98787.5 -3994.8 -3.4152e-11 -3323.24 -2.18153e-11 11534.7)
(99178.2 -3150.48 -3.35891e-11 -3184.34 -2.12525e-11 11590.9)
(99538.4 -2300.41 -3.30132e-11 -2984.92 -2.06868e-11 11649)
(99800.3 -1444.46 -3.2417e-11 -2668.9 -2.012e-11 11706.3)
(100023 -469.574 -3.17097e-11 -2130.21 -1.94778e-11 11777.8)
(103838 -23488 -4.7564e-11 -11140.1 -3.46918e-11 11253.9)
(101718 -21845.5 -4.66103e-11 -11301.3 -3.35935e-11 11050.4)
(101116 -20053.1 -4.53546e-11 -10423.7 -3.24131e-11 11074.8)
(100033 -18557.8 -4.43722e-11 -10003.5 -3.14231e-11 11015)
(99557.6 -16978.6 -4.32634e-11 -9224.05 -3.0383e-11 11042.5)
(99008.9 -15554.6 -4.22787e-11 -8597.53 -2.94437e-11 11049.7)
(98736.5 -14158.5 -4.12948e-11 -7908.58 -2.8524e-11 11088.3)
(98507.2 -12857.5 -4.03826e-11 -7297.68 -2.76663e-11 11124.3)
(98415.9 -11618.7 -3.95115e-11 -6719.8 -2.68493e-11 11170.6)
(98383.6 -10453.6 -3.86969e-11 -6212.64 -2.608e-11 11216.7)
(98428.5 -9351.53 -3.79291e-11 -5767.49 -2.53511e-11 11265)
(98522.2 -8308.49 -3.72103e-11 -5393.71 -2.46608e-11 11312.1)
(98662.3 -7316.63 -3.65328e-11 -5086.93 -2.40027e-11 11358.1)
(98837.7 -6366.47 -3.58913e-11 -4843.23 -2.33715e-11 11402.3)
(99038.5 -5447.84 -3.52778e-11 -4653.47 -2.27601e-11 11444.8)
(99259.4 -4545.52 -3.46801e-11 -4500.45 -2.21589e-11 11486.1)
(99480.3 -3645.87 -3.40862e-11 -4362.08 -2.1559e-11 11526.4)
(99701.8 -2713.62 -3.34681e-11 -4199.19 -2.09381e-11 11568.9)
(99865.9 -1745.01 -3.28172e-11 -3968.97 -2.0294e-11 11611.2)
(100018 -579.023 -3.20173e-11 -3584.57 -1.9521e-11 11665.9)
(114021 -21967.1 -4.67011e-11 -13236.7 -3.36102e-11 12099.8)
(110357 -20825.9 -4.61481e-11 -13690.5 -3.28444e-11 11719.2)
(108807 -19230.8 -4.5021e-11 -12696.4 -3.18004e-11 11658.4)
(106645 -18010.2 -4.4239e-11 -12283.9 -3.09961e-11 11490.5)
(105326 -16618.9 -4.32551e-11 -11418.3 -3.00854e-11 11440.6)
(103967 -15356.8 -4.23754e-11 -10688.2 -2.92583e-11 11375.3)
(102991 -14088.7 -4.14692e-11 -9879.02 -2.84282e-11 11353.4)
(102127 -12884.4 -4.06119e-11 -9137.08 -2.7639e-11 11336.7)
(101470 -11721.5 -3.97813e-11 -8430.29 -2.68767e-11 11337.1)
(100936 -10613.2 -3.89939e-11 -7798.46 -2.61489e-11 11343.2)
(100534 -9555.2 -3.82472e-11 -7240.23 -2.5453e-11 11356.2)
(100232 -8546.1 -3.75426e-11 -6765.67 -2.47881e-11 11372.1)
(100023 -7580.03 -3.6876e-11 -6374.79 -2.41498e-11 11390.3)
(99890.5 -6648.71 -3.62434e-11 -6066.73 -2.3533e-11 11409.4)
(99823.8 -5741.71 -3.56371e-11 -5835.88 -2.29309e-11 11428.7)
(99811.6 -4840.86 -3.50444e-11 -5670.33 -2.23314e-11 11448.3)
(99837.3 -3929.05 -3.44513e-11 -5555.12 -2.17234e-11 11468)
(99894.1 -2961.38 -3.38266e-11 -5464.64 -2.10772e-11 11489.2)
(99946.4 -1932.24 -3.3163e-11 -5370.35 -2.03904e-11 11510.9)
(100009 -649.049 -3.23296e-11 -5215.74 -1.95346e-11 11540.6)
(123805 -18818.8 -4.46933e-11 -14530.9 -3.14566e-11 12982.7)
(118705 -18436 -4.47228e-11 -15409.9 -3.11925e-11 12423)
(116298 -17204.6 -4.38551e-11 -14479.7 -3.03923e-11 12270.7)
(113158 -16360.6 -4.33415e-11 -14112 -2.98411e-11 12000.8)
(111032 -15283.3 -4.2581e-11 -13283.5 -2.91416e-11 11866.6)
(108929 -14271.7 -4.1872e-11 -12523.2 -2.84844e-11 11728.9)
(107273 -13229.6 -4.11189e-11 -11676.2 -2.78076e-11 11641.7)
(105803 -12207.5 -4.0379e-11 -10859.4 -2.71433e-11 11569.9)
(104592 -11201.5 -3.96455e-11 -10065.7 -2.64886e-11 11521.5)
(103563 -10221.2 -3.89346e-11 -9333.53 -2.58497e-11 11486)
(102714 -9270.68 -3.825e-11 -8672.82 -2.52289e-11 11462.2)
(102014 -8350.85 -3.75948e-11 -8100.36 -2.46262e-11 11446)
(101450 -7460.03 -3.69706e-11 -7622.83 -2.4041e-11 11435.5)
(101001 -6591.92 -3.63741e-11 -7245.86 -2.34685e-11 11428.4)
(100655 -5737.44 -3.58e-11 -6970.08 -2.2903e-11 11423.5)
(100397 -4877.48 -3.52369e-11 -6793.07 -2.23316e-11 11419.8)
(100216 -3994.8 -3.46722e-11 -6709.39 -2.17426e-11 11416.6)
(100096 -3037.96 -3.40742e-11 -6710.45 -2.11025e-11 11413.5)
(100031 -2002.26 -3.34363e-11 -6781.92 -2.04079e-11 11411.3)
(99996.1 -678.182 -3.26258e-11 -6907.11 -1.95192e-11 11410.6)
(132857 -14346.6 -4.16975e-11 -14766.8 -2.84402e-11 13886.9)
(126469 -14861.3 -4.24033e-11 -16137.9 -2.87691e-11 13156.3)
(123272 -14249.8 -4.20255e-11 -15697 -2.83754e-11 12884.1)
(119346 -13856.3 -4.1832e-11 -15439 -2.81251e-11 12525.2)
(116447 -13223.7 -4.13924e-11 -14744.8 -2.77219e-11 12301.6)
(113705 -12524.1 -4.08936e-11 -13974.8 -2.7275e-11 12099.5)
(111422 -11758.9 -4.03269e-11 -13107.7 -2.67853e-11 11950.2)
(109405 -10957.6 -3.97302e-11 -12236.2 -2.62711e-11 11827.4)
(107681 -10142.5 -3.91197e-11 -11380.6 -2.57465e-11 11732.1)
(106190 -9325.74 -3.85113e-11 -10579.1 -2.52192e-11 11655.3)
(104916 -8517.9 -3.79154e-11 -9848.76 -2.46962e-11 11594.2)
(103831 -7723.83 -3.7338e-11 -9209.29 -2.418e-11 11544.4)
(102915 -6944.99 -3.67829e-11 -8673.14 -2.36716e-11 11503.1)
(102149 -6177.37 -3.625e-11 -8251.78 -2.3168e-11 11467.6)
(101520 -5413.36 -3.57362e-11 -7952.76 -2.26641e-11 11436)
(101009 -4635.06 -3.52318e-11 -7783.07 -2.21475e-11 11406.4)
(100615 -3824.28 -3.47258e-11 -7747.6 -2.16066e-11 11378.1)
(100309 -2929.98 -3.41891e-11 -7856.87 -2.10063e-11 11348.2)
(100124 -1946.8 -3.36178e-11 -8112.25 -2.03434e-11 11319.9)
(99983.4 -663.749 -3.28848e-11 -8541.15 -1.9476e-11 11285.4)
(140381 -8610.25 -3.78157e-11 -14216.1 -2.45966e-11 14713.7)
(133907 -9726.39 -3.88579e-11 -15317.9 -2.5334e-11 13989.6)
(129815 -9997.67 -3.92105e-11 -15815.3 -2.55135e-11 13551)
(125451 -10116.1 -3.94093e-11 -15919 -2.55995e-11 13117.3)
(121786 -10079.9 -3.9434e-11 -15656.3 -2.55881e-11 12780.8)
(118442 -9863.63 -3.92936e-11 -15126.9 -2.54609e-11 12497.5)
(115524 -9521.92 -3.90315e-11 -14401.8 -2.5253e-11 12271.8)
(112949 -9074.37 -3.86784e-11 -13577.1 -2.49756e-11 12087.8)
(110707 -8553.18 -3.82634e-11 -12706.5 -2.46493e-11 11940.5)
(108752 -7981.61 -3.78111e-11 -11847.9 -2.42883e-11 11820.7)
(107060 -7379.44 -3.73415e-11 -11037 -2.39053e-11 11723.1)
(105599 -6759.9 -3.68684e-11 -10307.9 -2.35085e-11 11641.9)
(104344 -6131.4 -3.64021e-11 -9684.27 -2.31033e-11 11572.9)
(103273 -5495.82 -3.59475e-11 -9187.63 -2.26904e-11 11512.2)
(102370 -4850.22 -3.55064e-11 -8836.04 -2.22672e-11 11456.9)
(101613 -4180.56 -3.50731e-11 -8648.61 -2.18245e-11 11403.6)
(101007 -3471.74 -3.46414e-11 -8640.86 -2.13514e-11 11351.7)
(100516 -2676.07 -3.41863e-11 -8845.38 -2.08154e-11 11295.7)
(100210 -1789.38 -3.37081e-11 -9278.74 -2.02138e-11 11241.1)
(99964.7 -612.566 -3.30951e-11 -10014.8 -1.94113e-11 11172.1)
(144628 -3900.45 -3.44894e-11 -12627.1 -2.14683e-11 15290.8)
(138677 -4499.02 -3.52005e-11 -13773.8 -2.18572e-11 14619)
(133996 -5595.11 -3.6189e-11 -14894.8 -2.25772e-11 14068.3)
(129501 -6121.38 -3.67112e-11 -15388.3 -2.29282e-11 13588.4)
(125521 -6496.63 -3.70504e-11 -15418.3 -2.3187e-11 13195.3)
(121873 -6672.77 -3.72063e-11 -15144.1 -2.33178e-11 12859.5)
(118630 -6692.14 -3.72108e-11 -14612.4 -2.33483e-11 12584)
(115719 -6580.82 -3.71013e-11 -13934 -2.32936e-11 12353.2)
(113144 -6363.8 -3.69022e-11 -13164.6 -2.31695e-11 12163)
(110865 -6066.85 -3.66416e-11 -12371.8 -2.29916e-11 12004.1)
(108863 -5709.64 -3.63398e-11 -11599.1 -2.27725e-11 11871.2)
(107108 -5308.99 -3.60149e-11 -10888 -2.25226e-11 11758)
(105581 -4876.68 -3.5679e-11 -10271.3 -2.22489e-11 11660.2)
(104256 -4418.43 -3.53431e-11 -9778.57 -2.1955e-11 11572.9)
(103123 -3935.33 -3.50108e-11 -9436.21 -2.16409e-11 11493)
(102157 -3418.69 -3.46836e-11 -9275.23 -2.13005e-11 11415.9)
(101371 -2857.81 -3.43579e-11 -9322.06 -2.09256e-11 11341)
(100721 -2215.95 -3.40203e-11 -9626.5 -2.04909e-11 11260.5)
(100306 -1490.3 -3.36725e-11 -10221 -1.99939e-11 11181.6)
(99960.1 -511.001 -3.32293e-11 -11220.6 -1.93186e-11 11081)
(142408 710.313 -3.13527e-11 -10840.2 -1.84235e-11 15252.8)
(137745 32.7703 -3.22858e-11 -13231.1 -1.8837e-11 14611.1)
(133450 -1301.2 -3.34216e-11 -14397.8 -1.97145e-11 14092.2)
(129371 -2179.47 -3.41838e-11 -15063.4 -2.0297e-11 13636.6)
(125689 -2875.05 -3.47358e-11 -15211.2 -2.07669e-11 13260.7)
(122266 -3372.05 -3.51054e-11 -15046.2 -2.11098e-11 12935.5)
(119172 -3697.86 -3.53157e-11 -14614.4 -2.1343e-11 12664)
(116348 -3880.01 -3.54029e-11 -14023.7 -2.14828e-11 12432.4)
(113808 -3940.41 -3.53894e-11 -13329.7 -2.15426e-11 12237.3)
(111522 -3903.26 -3.53025e-11 -12599.5 -2.15372e-11 12070.5)
(109481 -3787.66 -3.51624e-11 -11877.2 -2.14792e-11 11927.9)
(107666 -3610.99 -3.49859e-11 -11208.2 -2.13782e-11 11803.6)
(106062 -3385.28 -3.47884e-11 -10626.4 -2.12425e-11 11693.7)
(104652 -3119.34 -3.45802e-11 -10166.9 -2.10767e-11 11593.8)
(103430 -2816.25 -3.43694e-11 -9859.8 -2.08825e-11 11501)
(102375 -2472.94 -3.41606e-11 -9742.57 -2.06573e-11 11410.4)
(101509 -2082.18 -3.39534e-11 -9848.12 -2.03954e-11 11321.7)
(100786 -1620.59 -3.37447e-11 -10236.2 -2.00798e-11 11226)
(100326 -1090.72 -3.35405e-11 -10951.5 -1.97114e-11 11131.8)
(99941.6 -372.285 -3.32904e-11 -12124.6 -1.92071e-11 11011.9)
(140728 5330.97 -2.81459e-11 -8749.07 -1.5377e-11 15290.3)
(136437 4271.62 -2.93732e-11 -11524.4 -1.60376e-11 14652.3)
(132809 2705.26 -3.06836e-11 -12963.3 -1.70638e-11 14175.5)
(129055 1544.21 -3.16637e-11 -13925.8 -1.78286e-11 13726.4)
(125673 579.616 -3.24193e-11 -14326.4 -1.84728e-11 13357.9)
(122432 -190.672 -3.29937e-11 -14389.1 -1.89936e-11 13030.7)
(119472 -782.286 -3.33989e-11 -14148.8 -1.94005e-11 12755.4)
(116726 -1224.49 -3.36743e-11 -13719.9 -1.97109e-11 12516.6)
(114227 -1534.8 -3.38395e-11 -13158.2 -1.99353e-11 12313.1)
(111949 -1735.79 -3.39189e-11 -12534.3 -2.00871e-11 12137)
(109895 -1845.11 -3.39333e-11 -11896.8 -2.01774e-11 11984.4)
(108047 -1879.58 -3.39016e-11 -11293.9 -2.02167e-11 11850)
(106398 -1852.06 -3.38385e-11 -10765.5 -2.02126e-11 11730)
(104935 -1773.21 -3.37572e-11 -10350.8 -2.01711e-11 11619.8)
(103655 -1648.39 -3.36669e-11 -10086.6 -2.00957e-11 11516.4)
(102543 -1480.28 -3.35769e-11 -10013.8 -1.99871e-11 11415.2)
(101622 -1265.79 -3.3491e-11 -10175.6 -1.98419e-11 11315.3)
(100850 -998.779 -3.3417e-11 -10630.8 -1.96553e-11 11207.9)
(100362 -677.915 -3.33582e-11 -11430 -1.94251e-11 11102.7)
(99937.9 -230.763 -3.33013e-11 -12733.8 -1.90996e-11 10966.6)
(137785 8906.04 -2.56828e-11 -6990.68 -1.30263e-11 15170.2)
(134073 7827.19 -2.69583e-11 -10074.4 -1.36922e-11 14564.9)
(131065 6192.26 -2.83249e-11 -11685.7 -1.47596e-11 14134.7)
(127736 4900.25 -2.94093e-11 -12845.1 -1.56072e-11 13710.8)
(124733 3761.26 -3.02938e-11 -13420.2 -1.63637e-11 13364.5)
(121774 2796.53 -3.101e-11 -13645.1 -1.70108e-11 13050.5)
(119042 1996.84 -3.15645e-11 -13551.4 -1.75534e-11 12784.4)
(116465 1342.15 -3.19909e-11 -13253.8 -1.80031e-11 12550.1)
(114093 818.961 -3.23046e-11 -12807.4 -1.83671e-11 12348.3)
(111904 409.495 -3.25304e-11 -12282.6 -1.86565e-11 12171.4)
(109909 98.2527 -3.26842e-11 -11729.3 -1.88801e-11 12016.4)
(108096 -130.268 -3.27857e-11 -11197.9 -1.90478e-11 11878.2)
(106465 -288.762 -3.28485e-11 -10729.8 -1.91667e-11 11753.5)
(105005 -388.723 -3.28876e-11 -10367.1 -1.9244e-11 11638)
(103717 -437.902 -3.29146e-11 -10148 -1.9284e-11 11528.9)
(102593 -446.989 -3.29433e-11 -10119.5 -1.9293e-11 11421.5)
(101656 -409.704 -3.29764e-11 -10321.5 -1.9266e-11 11315.3)
(100874 -347.562 -3.30384e-11 -10822.2 -1.92154e-11 11201.8)
(100378 -233.703 -3.31223e-11 -11694.5 -1.91223e-11 11088.2)
(99935.1 -73.7389 -3.32573e-11 -13065.9 -1.89877e-11 10942.5)
(134086 11867.3 -2.3629e-11 -5259.38 -1.10874e-11 14968.9)
(130962 10778.6 -2.49162e-11 -8465.12 -1.17562e-11 14411.4)
(128571 9158.08 -2.62767e-11 -10188.5 -1.28103e-11 14032.9)
(125706 7811.69 -2.74119e-11 -11521.3 -1.36897e-11 13640.5)
(123123 6574.47 -2.8375e-11 -12262.5 -1.45078e-11 13321.5)
(120496 5483.45 -2.91899e-11 -12655.3 -1.52351e-11 13025.9)
(118044 4535.42 -2.9856e-11 -12715.6 -1.58734e-11 12774)