/*--------------------------------*- C++ -*----------------------------------*\
  =========                 |
  \\      /  F ield         | OpenFOAM: The Open Source CFD Toolbox
   \\    /   O peration     | Website:  https://openfoam.org
    \\  /    A nd           | Version:  9
     \\/     M anipulation  |
\*---------------------------------------------------------------------------*/
FoamFile
{
    format      ascii;
    class       volScalarField;
    location    "1";
    object      sigmaEq;
}
// * * * * * * * * * * * * * * * * * * * * * * * * * * * * * * * * * * * * * //

dimensions      [1 -1 -2 0 0 0 0];

internalField   nonuniform List<scalar> 
1000
(
171531
162122
159234
159140
158531
157450
155845
153757
151599
148948
200230
181763
172976
169011
165796
162863
159848
156741
153489
150416
228226
200788
185770
177496
171323
166254
161635
157305
153022
149251
254977
218940
197586
184689
175266
167843
161481
155866
150569
146109
279651
235774
208187
190510
177639
167706
159520
152573
146311
141141
302405
251214
217505
194976
178548
166037
156012
147750
140579
134706
321990
264381
224631
197412
177627
162744
151087
141673
133753
127247
340756
275288
229217
197748
175078
158302
145427
135199
126796
119834
354871
279728
227411
193186
169507
152199
139103
128712
120255
113106
372603
274292
220037
186568
164359
147852
135309
125171
116863
109652
2623.03
2351.14
5525.67
11631
18676
26065.5
33294.5
40211.3
46570
52485.3
2408.7
7697.55
16986.1
26157.1
34378.6
41732.4
48200.6
54023.4
59039
63795.3
6320.79
18966.3
30779.3
41361.3
50244.2
57657.1
63736.4
68884.9
72949.2
76856.7
14977.2
32881.2
46215.6
57334
66231.6
73373.9
78968.2
83494.4
86764.8
89990.1
27879.4
48721.6
62837.7
73950
82373
88886.6
93771.6
97552.8
100019
102560
44844.1
65852.9
79833.5
90485.5
98117.4
103771
107791
110726
112369
114189
65442.9
83997.9
96783.2
106483
113059
117681
120728
122741
123551
124602
89134.9
102923
113351
121529
126781
130225
132233
133282
133308
133539
115215
122420
129361
135403
139033
141149
142040
142093
141364
140821
142948
142246
144679
147940
149607
150194
149870
148840
147536
145882
57798.4
62398
66656.8
70503.6
73983.4
77111.3
79919.5
82427
84660.8
86636.7
88373.8
89883.4
91175.2
92257.1
93131
93802.2
94268.1
94546.6
94633.7
94590.4
67463.6
70211.8
72979.5
75534.1
77935.3
80155.6
82208
84085.3
85798.3
87346.9
88739.6
89979.8
91072.1
92020
92825.3
93490.4
94007.7
94378.5
94562.6
94551.6
79071
80071.8
81333.7
82514.6
83722.7
84898.1
86056
87165.6
88231.3
89236
90181.1
91058.3
91867
92603.5
93263.3
93841.2
94316.5
94672.4
94825.1
94747.6
90983.1
90492.5
90437.9
90378.8
90469.2
90629.1
90892.3
91209.9
91590.2
92003.4
92446.9
92903.3
93366.6
93825.2
94267.5
94679.8
95030.2
95293.6
95368
95233.8
102476
100731
99543.9
98407.8
97510.8
96744.8
96175.4
95733.9
95441.7
95258.5
95183.6
95193.4
95277.1
95418.8
95599.9
95802.4
95988.2
96128.7
96124
95961.6
113145
110356
108220
106161
104424
102844
101536
100403
99486.9
98736.7
98155.7
97717.4
97410.4
97215.7
97113.1
97081.9
97085.9
97097
97035
96887.1
122718
119091
116218
113379
110958
108676
106722
104971
103482
102206
101147
100279
99590.7
99061.8
98675
98407.8
98232.2
98122.2
98030.2
97934.6
130959
126682
123321
119830
116880
114037
111553
109287
107302
105556
104056
102782
101726
100871
100203
99702.5
99354.8
99136.2
99039.4
99030.3
137845
132966
129485
125522
122144
118842
115887
113175
110755
108600
106713
105080
103693
102541
101615
100900
100397
100085
100004
100102
143134
137976
134513
130502
126868
123312
119995
116907
114088
111540
109272
107280
105562
104109
102920
101986
101323
100918
100855
101071
145478
140640
137073
133216
129524
125915
122490
119259
116266
113525
111052
108850
106926
105279
103915
102833
102065
101601
101565
101881
142017
139160
135880
132491
129138
125816
122615
119552
116677
114010
111573
109381
107444
105771
104378
103270
102490
102037
102062
102478
139331
136965
134357
131383
128419
125381
122414
119526
116783
114204
111826
109665
107741
106067
104665
103551
102775
102339
102408
102890
135944
134230
132188
129642
127066
124336
121633
118958
116388
113947
111675
109594
107728
106097
104726
103638
102882
102477
102597
103115
132023
130852
129350
127258
125099
122717
120318
117898
115544
113283
111159
109199
107431
105879
104567
103533
102796
102467
102443
103147
127781
127107
126096
124441
122683
120654
118570
116425
114313
112262
110320
108515
106880
105439
104224
103257
102600
102269
102409
102911
123313
123067
122492
121252
119880
118205
116444
114591
112742
110925
109192
107571
106096
104793
103694
102820
102229
101921
102049
102521
118711
118834
118645
117788
116776
115446
114006
112451
110877
109311
107807
106392
105103
103960
102998
102232
101715
101447
101559
101963
114025
114456
114602
114096
113420
112421
111298
110045
108754
107454
106195
105006
103920
102959
102151
101510
101079
100853
100941
101266
109277
109968
110405
110216
109853
109173
108360
107409
106408
105384
104384
103436
102571
101807
101171
100670
100336
100163
100226
100460
104469
105377
106067
106169
106100
105728
105220
104575
103870
103131
102402
101709
101078
100528
100077
99730.4
99507.4
99395.6
99439.3
99582
99583.3
100676
101592
101966
102179
102110
101908
101572
101170
100726
100280
99852.8
99469.7
99145.1
98892.1
98713.6
98614.5
98577.7
98612.7
98672.1
94582.6
95842.3
96969.5
97607.2
98100
98336.4
98447.7
98430.1
98343.1
98206.7
98054.2
97905.5
97780.5
97691.2
97647.2
97646.7
97684
97736.9
97779.3
97770.9
89422.6
90848.9
92186.5
93094.1
93876.8
94432.3
94871.3
95187.9
95431.3
95616.7
95771.5
95912
96053.9
96207.8
96378.6
96562.9
96746.1
96902
96972.3
96918.3
84044.4
85656.7
87223.1
88425.4
89523.5
90424
91216.7
91891.7
92487.7
93013.7
93491.3
93931.9
94348.5
94748.9
95136.2
95505.8
95839.2
96106.1
96225.2
96153.6
78404.4
80247.8
82083.9
83624.8
85079.9
86364.7
87546.8
88611.4
89586.2
90473.9
91289.8
92040.7
92736.4
93382.2
93980.9
94529.3
95007.3
95385.9
95571.2
95510.9
72442
74595.7
76772.7
78721.5
80596.7
82321.7
83940.8
85435.2
86820.2
88094.3
89265.1
90336.2
91313.2
92200.1
92998.6
93707.9
94312
94786.7
95044.9
95023.2
66200.5
68778.2
71392.3
73836.5
76205.4
78431.2
80535.6
82496.7
84319.8
85998.4
87535.2
88929.7
90184.6
91301.7
92282.1
93126
93824.7
94363.1
94677.6
94705.2
59697.6
62868.2
66058.1
69111.4
72064.7
74860.2
77501.7
79965.7
82251.1
84349.2
86259.4
87978.9
89507.6
90843.5
91985.3
92930.4
93673.7
94212.3
94518.3
94574.2
53387.1
57312.6
61195.9
64932.5
68522.5
71914.1
75103
78067.2
80804
83305.1
85569.5
87595.2
89378.7
90915.8
92198.3
93218.6
93962.2
94434.2
94623.2
94606.4
103562
106935
113429
120768
128351
135074
140451
144092
146019
145764
97960.6
101154
107265
114359
121994
129132
135287
139913
142887
143499
92911.7
95960.3
101680
108360
115685
122704
129020
134194
138150
140429
88281.2
91244.8
96675.6
103032
110118
117047
123425
128843
133093
136312
83934
86828
91987.2
97998
104769
111503
117843
123481
127991
131852
79844.1
82698.3
87647.3
93366.1
99841.4
106347
112532
118203
122775
127053
75931.6
78754
83519.3
88967.9
95153.7
101422
107430
113082
117652
122128
72176.4
74975
79587.2
84796.6
90708.9
96726.5
102518
108073
112593
117145
68540.8
71314
75787.9
80778.7
86433.3
92204.1
97774.5
103190
107628
112161
65013.5
67753.9
72097.2
76880.6
82287.1
87806.6
93147.3
98389.6
102729
107187
61584.6
64276.3
68483.2
73059.5
78219.9
83485
88593.2
93638.5
97864.5
102212
58260.8
60878.3
64927.7
69281.7
74184.5
79183
84051.2
88882.7
92985.4
97203.5
55066
57566.8
61412.8
65507
70125.1
74836.9
79453.5
84058.1
88030.8
92111.4
52045.8
54359.6
57925.1
61696.5
65982.4
70376.1
74724.3
79090.8
82930.5
86875.4
49293.9
51297.1
54435.5
57777.2
61657.4
65692.9
69754.6
73880
77592.7
81416.3
46944.5
48398.9
50896.9
53671.9
57055.7
60687.7
64447.3
68335.6
71938.9
75667.7
45266.1
45716
47162.7
49153.5
51936.3
55135.4
58605.7
62293.6
65838.8
69532.1
44433.9
43018.7
42995.7
44043.5
46165.4
48933
52158.4
55712.1
59280.3
63022.5
45145.8
39950.2
37612.2
37528.6
39084.5
41585.3
44750.8
48356.9
52126
56082.6
45419.7
34269.3
30536.4
29508.7
30823
33307.9
36670.6
40578.6
44777.3
49155.7
)
;

boundaryField
{
    left
    {
        type            calculated;
        value           nonuniform List<scalar> 
30
(
102699
97106.7
92065.5
87435.7
83092.9
79010.8
75114
71384.6
67787.6
64315.4
60961.2
57736
54668.2
51809.2
49261.5
47199.8
45973
46159.7
49495.6
57026.1
395533
267027
213022
182265
161976
146370
134295
124331
116092
108834
)
;
    }
    right
    {
        type            calculated;
        value           nonuniform List<scalar> 
30
(
94570.8
94551.8
94737.5
95218.5
95943.4
96871.2
97923.9
99028.2
100109
101091
101906
102516
102932
103158
103157
102947
102558
101995
101290
100476
99589.6
98671.9
97764.5
96907.6
96141.2
95499.4
95016.2
94703.4
94578.1
94584.8
)
;
    }
    down
    {
        type            calculated;
        value           nonuniform List<scalar> 
30
(
2418.88
2089.55
3913.92
9872.96
17067.7
24659.6
32099.3
39204.9
45728.6
51775.3
57221.5
61968.8
66331.5
70255.2
73795.3
76967.9
79811.7
82346.7
84602
86594.6
88344.6
89864
91164.1
92250.9
93128.6
93801.5
94267.8
94545.4
94632.9
94600.9
)
;
    }
    up
    {
        type            calculated;
        value           nonuniform List<scalar> 
30
(
44075.2
33881.3
30408.5
29385.8
30673.1
33127.2
36468.9
40367.6
44562.2
48947.1
53186.7
57133
61040.7
64797.7
68408.7
71818.5
75024.6
78003.3
80753.4
83266.2
85541
87575.2
89365.8
90908.7
92195.4
93218.1
93962.7
94434.3
94622.2
94612.7
)
;
    }
    hole
    {
        type            calculated;
        value           nonuniform List<scalar> 
20
(
170661
200214
228999
256456
281739
305023
325049
344316
358987
375957
2252.97
2273.15
3056.08
10575.1
23128.5
40243.8
61304.3
85681.1
112576
141190
)
;
    }
    frontAndBack
    {
        type            empty;
    }
}


// ************************************************************************* //
