/*--------------------------------*- C++ -*----------------------------------*\
  =========                 |
  \\      /  F ield         | OpenFOAM: The Open Source CFD Toolbox
   \\    /   O peration     | Website:  https://openfoam.org
    \\  /    A nd           | Version:  9
     \\/     M anipulation  |
\*---------------------------------------------------------------------------*/
FoamFile
{
    format      ascii;
    class       volVectorField;
    location    "15";
    object      D;
}
// * * * * * * * * * * * * * * * * * * * * * * * * * * * * * * * * * * * * * //

dimensions      [0 1 0 0 0 0 0];

internalField   nonuniform List<vector> 
1000
(
(1.01621e-05 3.42091e-06 0)
(9.4817e-06 3.7767e-06 0)
(8.98628e-06 4.07692e-06 0)
(8.62853e-06 4.31074e-06 0)
(8.37324e-06 4.51279e-06 0)
(8.19293e-06 4.68661e-06 0)
(8.07074e-06 4.84326e-06 0)
(7.99297e-06 4.98598e-06 0)
(7.94892e-06 5.11914e-06 0)
(7.93309e-06 5.24542e-06 0)
(9.15538e-06 3.08829e-06 0)
(8.45102e-06 3.34293e-06 0)
(7.94094e-06 3.57089e-06 0)
(7.57353e-06 3.74559e-06 0)
(7.31196e-06 3.89929e-06 0)
(7.12636e-06 4.03146e-06 0)
(6.99912e-06 4.15127e-06 0)
(6.91564e-06 4.26091e-06 0)
(6.86496e-06 4.3626e-06 0)
(6.83966e-06 4.46187e-06 0)
(8.12265e-06 2.7537e-06 0)
(7.41959e-06 2.90307e-06 0)
(6.90767e-06 3.05433e-06 0)
(6.54121e-06 3.16984e-06 0)
(6.28105e-06 3.27559e-06 0)
(6.09635e-06 3.36792e-06 0)
(5.96891e-06 3.45316e-06 0)
(5.88376e-06 3.53232e-06 0)
(5.82989e-06 3.6055e-06 0)
(5.79947e-06 3.67895e-06 0)
(7.08244e-06 2.41601e-06 0)
(6.39329e-06 2.46524e-06 0)
(5.89386e-06 2.53904e-06 0)
(5.53934e-06 2.59714e-06 0)
(5.28892e-06 2.65722e-06 0)
(5.11187e-06 2.71264e-06 0)
(4.98961e-06 2.76654e-06 0)
(4.90715e-06 2.81843e-06 0)
(4.85406e-06 2.86668e-06 0)
(4.82179e-06 2.91707e-06 0)
(6.03311e-06 2.09454e-06 0)
(5.37478e-06 2.04228e-06 0)
(4.90376e-06 2.04018e-06 0)
(4.57256e-06 2.04353e-06 0)
(4.34107e-06 2.06193e-06 0)
(4.17866e-06 2.08476e-06 0)
(4.06703e-06 2.11184e-06 0)
(3.9915e-06 2.14079e-06 0)
(3.94252e-06 2.16845e-06 0)
(3.91129e-06 2.19938e-06 0)
(4.9711e-06 1.7851e-06 0)
(4.36656e-06 1.63674e-06 0)
(3.93866e-06 1.56562e-06 0)
(3.64373e-06 1.52159e-06 0)
(3.44101e-06 1.50517e-06 0)
(3.3005e-06 1.5021e-06 0)
(3.20487e-06 1.50846e-06 0)
(3.14025e-06 1.52007e-06 0)
(3.09832e-06 1.53245e-06 0)
(3.07049e-06 1.54859e-06 0)
(3.8866e-06 1.48272e-06 0)
(3.36196e-06 1.25077e-06 0)
(2.9972e-06 1.12339e-06 0)
(2.7529e-06 1.04441e-06 0)
(2.58921e-06 1.00359e-06 0)
(2.47759e-06 9.83612e-07 0)
(2.40269e-06 9.76797e-07 0)
(2.35223e-06 9.77522e-07 0)
(2.31951e-06 9.80409e-07 0)
(2.29689e-06 9.86877e-07 0)
(2.80299e-06 1.16712e-06 0)
(2.37084e-06 8.81292e-07 0)
(2.08714e-06 7.19326e-07 0)
(1.90611e-06 6.25437e-07 0)
(1.78949e-06 5.74641e-07 0)
(1.71154e-06 5.49124e-07 0)
(1.66012e-06 5.37718e-07 0)
(1.62551e-06 5.34453e-07 0)
(1.60302e-06 5.33671e-07 0)
(1.58669e-06 5.35665e-07 0)
(1.69045e-06 8.24028e-07 0)
(1.38581e-06 5.2761e-07 0)
(1.20701e-06 3.62308e-07 0)
(1.10085e-06 2.81145e-07 0)
(1.03641e-06 2.38161e-07 0)
(9.94429e-07 2.18899e-07 0)
(9.67132e-07 2.10599e-07 0)
(9.48552e-07 2.08677e-07 0)
(9.36215e-07 2.08334e-07 0)
(9.26512e-07 2.09526e-07 0)
(5.9006e-07 4.27642e-07 0)
(4.41513e-07 2.0389e-07 0)
(3.8529e-07 9.55593e-08 0)
(3.5701e-07 5.61692e-08 0)
(3.39517e-07 3.74623e-08 0)
(3.27952e-07 3.17012e-08 0)
(3.20064e-07 3.016e-08 0)
(3.14452e-07 3.10839e-08 0)
(3.10514e-07 3.21354e-08 0)
(3.07084e-07 3.35022e-08 0)
(1.79048e-05 5.53509e-06 0)
(1.78751e-05 6.22269e-06 0)
(1.78547e-05 6.86336e-06 0)
(1.78553e-05 7.44991e-06 0)
(1.78822e-05 7.9884e-06 0)
(1.79372e-05 8.48553e-06 0)
(1.80207e-05 8.94903e-06 0)
(1.8131e-05 9.38562e-06 0)
(1.8267e-05 9.80059e-06 0)
(1.84253e-05 1.01998e-05 0)
(1.73432e-05 5.4896e-06 0)
(1.72636e-05 6.17518e-06 0)
(1.72094e-05 6.80802e-06 0)
(1.71853e-05 7.38274e-06 0)
(1.71941e-05 7.90679e-06 0)
(1.72341e-05 8.38729e-06 0)
(1.73039e-05 8.83272e-06 0)
(1.74004e-05 9.25017e-06 0)
(1.75221e-05 9.64517e-06 0)
(1.76645e-05 1.00244e-05 0)
(1.67477e-05 5.3974e-06 0)
(1.66089e-05 6.08117e-06 0)
(1.65087e-05 6.70111e-06 0)
(1.64483e-05 7.25728e-06 0)
(1.64284e-05 7.76099e-06 0)
(1.64442e-05 8.22029e-06 0)
(1.64928e-05 8.6443e-06 0)
(1.65694e-05 9.04019e-06 0)
(1.66721e-05 9.41371e-06 0)
(1.67945e-05 9.77176e-06 0)
(1.61041e-05 5.26342e-06 0)
(1.58989e-05 5.94384e-06 0)
(1.57453e-05 6.54796e-06 0)
(1.56419e-05 7.08147e-06 0)
(1.55867e-05 7.56068e-06 0)
(1.55726e-05 7.99487e-06 0)
(1.55952e-05 8.39398e-06 0)
(1.56478e-05 8.76526e-06 0)
(1.57282e-05 9.1147e-06 0)
(1.58282e-05 9.44911e-06 0)
(1.54053e-05 5.08889e-06 0)
(1.51273e-05 5.76053e-06 0)
(1.49165e-05 6.34386e-06 0)
(1.47677e-05 6.84949e-06 0)
(1.46754e-05 7.2994e-06 0)
(1.46297e-05 7.70414e-06 0)
(1.46246e-05 8.07465e-06 0)
(1.46521e-05 8.41814e-06 0)
(1.47093e-05 8.74089e-06 0)
(1.47862e-05 9.04926e-06 0)
(1.46501e-05 4.87796e-06 0)
(1.42952e-05 5.53152e-06 0)
(1.40261e-05 6.08804e-06 0)
(1.3832e-05 6.56097e-06 0)
(1.37029e-05 6.97762e-06 0)
(1.3626e-05 7.3494e-06 0)
(1.35938e-05 7.68824e-06 0)
(1.35965e-05 8.00115e-06 0)
(1.36309e-05 8.29483e-06 0)
(1.36855e-05 8.57483e-06 0)
(1.38408e-05 4.63365e-06 0)
(1.34078e-05 5.25672e-06 0)
(1.30816e-05 5.77883e-06 0)
(1.28443e-05 6.21383e-06 0)
(1.26806e-05 6.59339e-06 0)
(1.25748e-05 6.92913e-06 0)
(1.25173e-05 7.23376e-06 0)
(1.24973e-05 7.5139e-06 0)
(1.25106e-05 7.77659e-06 0)
(1.25447e-05 8.02643e-06 0)
(1.29812e-05 4.36097e-06 0)
(1.24731e-05 4.93901e-06 0)
(1.20933e-05 5.41814e-06 0)
(1.18166e-05 5.80997e-06 0)
(1.16219e-05 6.14904e-06 0)
(1.14904e-05 6.44629e-06 0)
(1.14106e-05 6.71487e-06 0)
(1.13706e-05 6.96066e-06 0)
(1.13652e-05 7.19105e-06 0)
(1.13816e-05 7.40916e-06 0)
(1.20777e-05 4.06389e-06 0)
(1.15006e-05 4.58191e-06 0)
(1.10734e-05 5.00947e-06 0)
(1.07623e-05 5.35303e-06 0)
(1.05414e-05 5.64863e-06 0)
(1.03884e-05 5.90557e-06 0)
(1.02901e-05 6.13688e-06 0)
(1.02334e-05 6.34767e-06 0)
(1.0212e-05 6.54482e-06 0)
(1.02139e-05 6.73077e-06 0)
(1.11355e-05 3.75015e-06 0)
(1.05004e-05 4.19252e-06 0)
(1.00339e-05 4.55974e-06 0)
(9.69526e-06 4.8502e-06 0)
(9.4537e-06 5.09984e-06 0)
(9.28412e-06 5.31533e-06 0)
(9.17139e-06 5.5091e-06 0)
(9.10186e-06 5.68483e-06 0)
(9.06758e-06 5.84926e-06 0)
(9.05918e-06 6.00098e-06 0)
(1.86146e-05 1.05839e-05 0)
(1.88319e-05 1.09652e-05 0)
(1.90659e-05 1.13403e-05 0)
(1.93147e-05 1.17111e-05 0)
(1.9577e-05 1.20795e-05 0)
(1.98513e-05 1.24465e-05 0)
(2.01365e-05 1.28134e-05 0)
(2.04313e-05 1.3181e-05 0)
(2.07347e-05 1.35501e-05 0)
(2.10458e-05 1.39215e-05 0)
(2.13636e-05 1.42955e-05 0)
(2.16873e-05 1.46728e-05 0)
(2.20161e-05 1.50536e-05 0)
(2.23492e-05 1.54383e-05 0)
(2.26859e-05 1.58272e-05 0)
(2.30253e-05 1.62202e-05 0)
(2.33669e-05 1.66174e-05 0)
(2.37098e-05 1.70184e-05 0)
(2.40534e-05 1.74226e-05 0)
(2.43969e-05 1.78287e-05 0)
(1.78617e-05 1.0394e-05 0)
(1.81058e-05 1.07689e-05 0)
(1.8363e-05 1.1138e-05 0)
(1.86312e-05 1.15035e-05 0)
(1.891e-05 1.18674e-05 0)
(1.91982e-05 1.22306e-05 0)
(1.9495e-05 1.25944e-05 0)
(1.97995e-05 1.29595e-05 0)
(2.01112e-05 1.33269e-05 0)
(2.04291e-05 1.36969e-05 0)
(2.07527e-05 1.40703e-05 0)
(2.10812e-05 1.44473e-05 0)
(2.14143e-05 1.48285e-05 0)
(2.17512e-05 1.52141e-05 0)
(2.20914e-05 1.56043e-05 0)
(2.24343e-05 1.59992e-05 0)
(2.27796e-05 1.63987e-05 0)
(2.31264e-05 1.68026e-05 0)
(2.34745e-05 1.72101e-05 0)
(2.3823e-05 1.76203e-05 0)
(1.70027e-05 1.01304e-05 0)
(1.72813e-05 1.05059e-05 0)
(1.75694e-05 1.08759e-05 0)
(1.78642e-05 1.12421e-05 0)
(1.81665e-05 1.1607e-05 0)
(1.8475e-05 1.19713e-05 0)
(1.87898e-05 1.23364e-05 0)
(1.911e-05 1.27031e-05 0)
(1.94354e-05 1.30722e-05 0)
(1.97655e-05 1.34444e-05 0)
(2.01e-05 1.38201e-05 0)
(2.04384e-05 1.41999e-05 0)
(2.07803e-05 1.4584e-05 0)
(2.11255e-05 1.49729e-05 0)
(2.14735e-05 1.53668e-05 0)
(2.1824e-05 1.57657e-05 0)
(2.21767e-05 1.61698e-05 0)
(2.25311e-05 1.65789e-05 0)
(2.28868e-05 1.69927e-05 0)
(2.32428e-05 1.74106e-05 0)
(1.605e-05 9.79892e-06 0)
(1.63696e-05 1.01805e-05 0)
(1.66951e-05 1.05568e-05 0)
(1.70228e-05 1.09286e-05 0)
(1.73547e-05 1.12991e-05 0)
(1.76894e-05 1.16686e-05 0)
(1.80276e-05 1.20389e-05 0)
(1.83687e-05 1.24108e-05 0)
(1.87129e-05 1.2785e-05 0)
(1.906e-05 1.31623e-05 0)
(1.94098e-05 1.35433e-05 0)
(1.97622e-05 1.39285e-05 0)
(2.01171e-05 1.43182e-05 0)
(2.04743e-05 1.47128e-05 0)
(2.08337e-05 1.51127e-05 0)
(2.11951e-05 1.55181e-05 0)
(2.15583e-05 1.59292e-05 0)
(2.19229e-05 1.6346e-05 0)
(2.22887e-05 1.67686e-05 0)
(2.26546e-05 1.71969e-05 0)
(1.50242e-05 9.39325e-06 0)
(1.53897e-05 9.78706e-06 0)
(1.57577e-05 1.01759e-05 0)
(1.61229e-05 1.05588e-05 0)
(1.64889e-05 1.094e-05 0)
(1.68542e-05 1.13195e-05 0)
(1.72201e-05 1.16994e-05 0)
(1.75861e-05 1.20803e-05 0)
(1.7953e-05 1.24634e-05 0)
(1.83206e-05 1.28493e-05 0)
(1.86892e-05 1.32387e-05 0)
(1.90589e-05 1.36322e-05 0)
(1.94298e-05 1.40302e-05 0)
(1.98019e-05 1.44332e-05 0)
(2.01753e-05 1.48415e-05 0)
(2.055e-05 1.52557e-05 0)
(2.09259e-05 1.5676e-05 0)
(2.13029e-05 1.61027e-05 0)
(2.16807e-05 1.65365e-05 0)
(2.20585e-05 1.69775e-05 0)
(1.39421e-05 8.91573e-06 0)
(1.43569e-05 9.32749e-06 0)
(1.47711e-05 9.73468e-06 0)
(1.51773e-05 1.01339e-05 0)
(1.5581e-05 1.05307e-05 0)
(1.59801e-05 1.09248e-05 0)
(1.63769e-05 1.13184e-05 0)
(1.67711e-05 1.17123e-05 0)
(1.71636e-05 1.21078e-05 0)
(1.75546e-05 1.25055e-05 0)
(1.79447e-05 1.29064e-05 0)
(1.83342e-05 1.33111e-05 0)
(1.87234e-05 1.37201e-05 0)
(1.91126e-05 1.41339e-05 0)
(1.95021e-05 1.45532e-05 0)
(1.98919e-05 1.49783e-05 0)
(2.02823e-05 1.54099e-05 0)
(2.06732e-05 1.58486e-05 0)
(2.10646e-05 1.62953e-05 0)
(2.14559e-05 1.67505e-05 0)
(1.28215e-05 8.36723e-06 0)
(1.32874e-05 8.80271e-06 0)
(1.37501e-05 9.23391e-06 0)
(1.41994e-05 9.65482e-06 0)
(1.46431e-05 1.0072e-05 0)
(1.50785e-05 1.0485e-05 0)
(1.55085e-05 1.08964e-05 0)
(1.5933e-05 1.13071e-05 0)
(1.63533e-05 1.17185e-05 0)
(1.67698e-05 1.21315e-05 0)
(1.71833e-05 1.2547e-05 0)
(1.75944e-05 1.29657e-05 0)
(1.80037e-05 1.33884e-05 0)
(1.84116e-05 1.38156e-05 0)
(1.88185e-05 1.42481e-05 0)
(1.92248e-05 1.46864e-05 0)
(1.96309e-05 1.51312e-05 0)
(2.00369e-05 1.55835e-05 0)
(2.0443e-05 1.60446e-05 0)
(2.08489e-05 1.65151e-05 0)
(1.16792e-05 7.75266e-06 0)
(1.21963e-05 8.21729e-06 0)
(1.2708e-05 8.67703e-06 0)
(1.32017e-05 9.12451e-06 0)
(1.36864e-05 9.5663e-06 0)
(1.41594e-05 1.00026e-05 0)
(1.46241e-05 1.04357e-05 0)
(1.50804e-05 1.0867e-05 0)
(1.55299e-05 1.12977e-05 0)
(1.59734e-05 1.17291e-05 0)
(1.64118e-05 1.21622e-05 0)
(1.68459e-05 1.25977e-05 0)
(1.72764e-05 1.30366e-05 0)
(1.7704e-05 1.34796e-05 0)
(1.81294e-05 1.39274e-05 0)
(1.85531e-05 1.43808e-05 0)
(1.89756e-05 1.48406e-05 0)
(1.93974e-05 1.53079e-05 0)
(1.98188e-05 1.57843e-05 0)
(2.02403e-05 1.62707e-05 0)
(1.05322e-05 7.07774e-06 0)
(1.10993e-05 7.57722e-06 0)
(1.16588e-05 8.06903e-06 0)
(1.2197e-05 8.5476e-06 0)
(1.27225e-05 9.01757e-06 0)
(1.32337e-05 9.48056e-06 0)
(1.37333e-05 9.93865e-06 0)
(1.42221e-05 1.03935e-05 0)
(1.47015e-05 1.08467e-05 0)
(1.51727e-05 1.12995e-05 0)
(1.56366e-05 1.17529e-05 0)
(1.60943e-05 1.22081e-05 0)
(1.65467e-05 1.26658e-05 0)
(1.69947e-05 1.31269e-05 0)
(1.74391e-05 1.35922e-05 0)
(1.78807e-05 1.40625e-05 0)
(1.83201e-05 1.4539e-05 0)
(1.87581e-05 1.50225e-05 0)
(1.91953e-05 1.55151e-05 0)
(1.96326e-05 1.60176e-05 0)
(9.39394e-06 6.35282e-06 0)
(1.00084e-05 6.89073e-06 0)
(1.06107e-05 7.41565e-06 0)
(1.11925e-05 7.92864e-06 0)
(1.17581e-05 8.43059e-06 0)
(1.23076e-05 8.92393e-06 0)
(1.28428e-05 9.41046e-06 0)
(1.33646e-05 9.8921e-06 0)
(1.38746e-05 1.03705e-05 0)
(1.4374e-05 1.08472e-05 0)
(1.4864e-05 1.13234e-05 0)
(1.53458e-05 1.18003e-05 0)
(1.58204e-05 1.22789e-05 0)
(1.6289e-05 1.276e-05 0)
(1.67526e-05 1.32446e-05 0)
(1.72121e-05 1.37335e-05 0)
(1.76684e-05 1.42278e-05 0)
(1.81226e-05 1.47287e-05 0)
(1.85755e-05 1.52378e-05 0)
(1.90286e-05 1.57564e-05 0)
(8.5156e-06 5.80919e-06 0)
(9.15644e-06 6.37504e-06 0)
(9.78124e-06 6.91872e-06 0)
(1.03866e-05 7.45134e-06 0)
(1.0975e-05 7.97287e-06 0)
(1.15466e-05 8.48556e-06 0)
(1.21029e-05 8.99113e-06 0)
(1.26447e-05 9.49122e-06 0)
(1.31735e-05 9.98739e-06 0)
(1.36903e-05 1.0481e-05 0)
(1.41965e-05 1.09733e-05 0)
(1.46932e-05 1.14654e-05 0)
(1.51815e-05 1.19582e-05 0)
(1.56627e-05 1.24527e-05 0)
(1.61377e-05 1.29496e-05 0)
(1.66078e-05 1.34498e-05 0)
(1.70738e-05 1.39543e-05 0)
(1.75372e-05 1.4464e-05 0)
(1.79988e-05 1.49806e-05 0)
(1.84609e-05 1.5505e-05 0)
(7.92924e-06 5.48387e-06 0)
(8.57021e-06 6.04971e-06 0)
(9.19523e-06 6.59788e-06 0)
(9.80262e-06 7.13655e-06 0)
(1.03941e-05 7.66552e-06 0)
(1.09694e-05 8.18638e-06 0)
(1.153e-05 8.70047e-06 0)
(1.20764e-05 9.20912e-06 0)
(1.26097e-05 9.71362e-06 0)
(1.3131e-05 1.02151e-05 0)
(1.36414e-05 1.07147e-05 0)
(1.4142e-05 1.12133e-05 0)
(1.46338e-05 1.17119e-05 0)
(1.5118e-05 1.22111e-05 0)
(1.55957e-05 1.27117e-05 0)
(1.60679e-05 1.32144e-05 0)
(1.65358e-05 1.37201e-05 0)
(1.70008e-05 1.42296e-05 0)
(1.74638e-05 1.47442e-05 0)
(1.79275e-05 1.52645e-05 0)
(7.41153e-06 5.17147e-06 0)
(8.041e-06 5.73569e-06 0)
(8.65967e-06 6.28547e-06 0)
(9.26241e-06 6.82782e-06 0)
(9.85148e-06 7.36217e-06 0)
(1.04258e-05 7.88948e-06 0)
(1.09864e-05 8.41077e-06 0)
(1.15336e-05 8.92696e-06 0)
(1.20683e-05 9.43906e-06 0)
(1.25913e-05 9.94795e-06 0)
(1.31035e-05 1.04545e-05 0)
(1.36059e-05 1.09595e-05 0)
(1.40995e-05 1.14636e-05 0)
(1.45854e-05 1.19676e-05 0)
(1.50645e-05 1.24719e-05 0)
(1.55381e-05 1.29772e-05 0)
(1.60071e-05 1.3484e-05 0)
(1.64732e-05 1.39931e-05 0)
(1.69372e-05 1.45052e-05 0)
(1.74019e-05 1.50207e-05 0)
(6.94745e-06 4.87055e-06 0)
(7.56185e-06 5.43026e-06 0)
(8.16943e-06 5.97958e-06 0)
(8.7632e-06 6.52411e-06 0)
(9.34565e-06 7.06254e-06 0)
(9.91495e-06 7.59532e-06 0)
(1.0472e-05 8.12295e-06 0)
(1.10168e-05 8.64599e-06 0)
(1.15499e-05 9.1651e-06 0)
(1.20719e-05 9.68092e-06 0)
(1.25837e-05 1.01941e-05 0)
(1.3086e-05 1.07052e-05 0)
(1.35798e-05 1.12147e-05 0)
(1.40659e-05 1.17232e-05 0)
(1.45454e-05 1.22311e-05 0)
(1.50194e-05 1.27388e-05 0)
(1.54888e-05 1.32466e-05 0)
(1.59553e-05 1.37551e-05 0)
(1.64198e-05 1.42645e-05 0)
(1.68851e-05 1.47749e-05 0)
(6.53168e-06 4.58429e-06 0)
(7.12762e-06 5.13779e-06 0)
(7.72029e-06 5.68486e-06 0)
(8.30144e-06 6.22973e-06 0)
(8.87372e-06 6.77057e-06 0)
(9.43471e-06 7.30732e-06 0)
(9.98515e-06 7.84001e-06 0)
(1.05246e-05 8.3688e-06 0)
(1.10536e-05 8.89403e-06 0)
(1.15724e-05 9.41604e-06 0)
(1.20818e-05 9.93521e-06 0)
(1.25822e-05 1.04519e-05 0)
(1.30746e-05 1.09665e-05 0)
(1.35597e-05 1.14793e-05 0)
(1.40385e-05 1.19905e-05 0)
(1.4512e-05 1.25004e-05 0)
(1.49812e-05 1.30091e-05 0)
(1.54472e-05 1.35168e-05 0)
(1.5912e-05 1.40231e-05 0)
(1.63777e-05 1.45282e-05 0)
(6.15624e-06 4.31255e-06 0)
(6.73185e-06 4.85826e-06 0)
(7.30711e-06 5.40152e-06 0)
(7.87311e-06 5.94526e-06 0)
(8.43255e-06 6.48713e-06 0)
(8.98261e-06 7.0266e-06 0)
(9.52389e-06 7.56321e-06 0)
(1.00557e-05 8.09676e-06 0)
(1.05783e-05 8.62722e-06 0)
(1.10919e-05 9.15465e-06 0)
(1.1597e-05 9.67918e-06 0)
(1.20941e-05 1.02009e-05 0)
(1.25837e-05 1.07201e-05 0)
(1.30667e-05 1.12368e-05 0)
(1.35438e-05 1.17511e-05 0)
(1.4016e-05 1.22629e-05 0)
(1.44842e-05 1.27723e-05 0)
(1.49498e-05 1.32789e-05 0)
(1.54136e-05 1.37823e-05 0)
(1.58784e-05 1.42824e-05 0)
(5.81467e-06 4.05553e-06 0)
(6.36877e-06 4.59253e-06 0)
(6.92485e-06 5.13085e-06 0)
(7.47385e-06 5.67219e-06 0)
(8.01839e-06 6.21381e-06 0)
(8.55548e-06 6.75476e-06 0)
(9.08556e-06 7.29414e-06 0)
(9.60775e-06 7.83138e-06 0)
(1.01222e-05 8.36612e-06 0)
(1.06289e-05 8.89811e-06 0)
(1.11282e-05 9.42724e-06 0)
(1.16204e-05 9.95343e-06 0)
(1.21061e-05 1.04766e-05 0)
(1.25859e-05 1.09967e-05 0)
(1.30605e-05 1.15136e-05 0)
(1.35307e-05 1.20272e-05 0)
(1.39973e-05 1.2537e-05 0)
(1.44617e-05 1.30427e-05 0)
(1.49244e-05 1.35433e-05 0)
(1.53881e-05 1.40385e-05 0)
(5.50057e-06 3.81261e-06 0)
(6.03259e-06 4.3403e-06 0)
(6.56843e-06 4.87283e-06 0)
(7.09918e-06 5.4108e-06 0)
(7.62737e-06 5.95115e-06 0)
(8.14995e-06 6.49255e-06 0)
(8.66725e-06 7.03368e-06 0)
(9.17827e-06 7.57363e-06 0)
(9.68306e-06 8.11172e-06 0)
(1.01814e-05 8.64743e-06 0)
(1.06737e-05 9.18039e-06 0)
(1.11599e-05 9.71029e-06 0)
(1.16407e-05 1.02369e-05 0)
(1.21164e-05 1.07599e-05 0)
(1.25876e-05 1.12791e-05 0)
(1.30552e-05 1.1794e-05 0)
(1.35197e-05 1.23042e-05 0)
(1.39823e-05 1.28089e-05 0)
(1.44436e-05 1.33069e-05 0)
(1.49058e-05 1.37976e-05 0)
(5.20828e-06 3.58307e-06 0)
(5.71801e-06 4.10127e-06 0)
(6.23295e-06 4.62752e-06 0)
(6.74464e-06 5.16142e-06 0)
(7.25544e-06 5.69969e-06 0)
(7.76238e-06 6.24063e-06 0)
(8.2657e-06 6.78258e-06 0)
(8.76435e-06 7.32433e-06 0)
(9.25828e-06 7.86487e-06 0)
(9.74723e-06 8.40346e-06 0)
(1.02313e-05 8.93945e-06 0)
(1.07107e-05 9.47236e-06 0)
(1.11856e-05 1.00017e-05 0)
(1.16564e-05 1.05271e-05 0)
(1.21238e-05 1.10481e-05 0)
(1.25881e-05 1.15641e-05 0)
(1.30501e-05 1.20744e-05 0)
(1.35106e-05 1.25782e-05 0)
(1.397e-05 1.3074e-05 0)
(1.44303e-05 1.35609e-05 0)
(4.93253e-06 3.36605e-06 0)
(5.41995e-06 3.87487e-06 0)
(5.91367e-06 4.39459e-06 0)
(6.40578e-06 4.92396e-06 0)
(6.8985e-06 5.45953e-06 0)
(7.389e-06 5.9993e-06 0)
(7.87748e-06 6.54128e-06 0)
(8.36286e-06 7.084e-06 0)
(8.84504e-06 7.62618e-06 0)
(9.32369e-06 8.16682e-06 0)
(9.79883e-06 8.70508e-06 0)
(1.02705e-05 9.24027e-06 0)
(1.07389e-05 9.77176e-06 0)
(1.12044e-05 1.0299e-05 0)
(1.16672e-05 1.08213e-05 0)
(1.21279e-05 1.13381e-05 0)
(1.25869e-05 1.18484e-05 0)
(1.3045e-05 1.23514e-05 0)
(1.35023e-05 1.28453e-05 0)
(1.39605e-05 1.33291e-05 0)
(4.66849e-06 3.1607e-06 0)
(5.13368e-06 3.66049e-06 0)
(5.60602e-06 4.17366e-06 0)
(6.07824e-06 4.69826e-06 0)
(6.55243e-06 5.2307e-06 0)
(7.02596e-06 5.76871e-06 0)
(7.49899e-06 6.31005e-06 0)
(7.97049e-06 6.853e-06 0)
(8.44029e-06 7.39604e-06 0)
(8.90802e-06 7.93797e-06 0)
(9.37362e-06 8.47775e-06 0)
(9.83708e-06 9.01451e-06 0)
(1.02985e-05 9.54746e-06 0)
(1.07581e-05 1.00759e-05 0)
(1.12161e-05 1.05991e-05 0)
(1.16728e-05 1.11163e-05 0)
(1.21286e-05 1.16266e-05 0)
(1.25839e-05 1.21289e-05 0)
(1.3039e-05 1.26214e-05 0)
(1.34947e-05 1.3103e-05 0)
(4.41162e-06 2.9663e-06 0)
(4.85466e-06 3.45758e-06 0)
(5.30553e-06 3.96434e-06 0)
(5.75769e-06 4.48408e-06 0)
(6.21308e-06 5.01309e-06 0)
(6.66932e-06 5.54888e-06 0)
(7.12653e-06 6.089e-06 0)
(7.58375e-06 6.63151e-06 0)
(8.04077e-06 7.17471e-06 0)
(8.4972e-06 7.7172e-06 0)
(8.95291e-06 8.25778e-06 0)
(9.4078e-06 8.79541e-06 0)
(9.86191e-06 9.3292e-06 0)
(1.03153e-05 9.85831e-06 0)
(1.07682e-05 1.03819e-05 0)
(1.12207e-05 1.08993e-05 0)
(1.16731e-05 1.14093e-05 0)
(1.21255e-05 1.1911e-05 0)
(1.25782e-05 1.24025e-05 0)
(1.30313e-05 1.28829e-05 0)
(4.15754e-06 2.78218e-06 0)
(4.57842e-06 3.26557e-06 0)
(5.00777e-06 3.76619e-06 0)
(5.43977e-06 4.28108e-06 0)
(5.87622e-06 4.80646e-06 0)
(6.31502e-06 5.33967e-06 0)
(6.75625e-06 5.87806e-06 0)
(7.19903e-06 6.41954e-06 0)
(7.64311e-06 6.96225e-06 0)
(8.08808e-06 7.50462e-06 0)
(8.53375e-06 8.0453e-06 0)
(8.97995e-06 8.58315e-06 0)
(9.42662e-06 9.11715e-06 0)
(9.87375e-06 9.64638e-06 0)
(1.03214e-05 1.017e-05 0)
(1.07696e-05 1.06871e-05 0)
(1.12185e-05 1.11967e-05 0)
(1.1668e-05 1.16979e-05 0)
(1.21182e-05 1.2189e-05 0)
(1.25688e-05 1.26689e-05 0)
(3.90194e-06 2.60808e-06 0)
(4.30055e-06 3.08421e-06 0)
(4.70828e-06 3.57897e-06 0)
(5.12007e-06 4.08907e-06 0)
(5.53757e-06 4.61066e-06 0)
(5.95893e-06 5.14094e-06 0)
(6.38422e-06 5.67714e-06 0)
(6.8126e-06 6.21704e-06 0)
(7.24381e-06 6.75862e-06 0)
(7.6774e-06 7.30021e-06 0)
(8.11311e-06 7.84034e-06 0)
(8.55071e-06 8.37776e-06 0)
(8.99003e-06 8.91136e-06 0)
(9.43096e-06 9.44017e-06 0)
(9.87342e-06 9.96327e-06 0)
(1.03174e-05 1.04798e-05 0)
(1.07628e-05 1.09889e-05 0)
(1.12094e-05 1.14896e-05 0)
(1.16571e-05 1.19806e-05 0)
(1.21053e-05 1.2461e-05 0)
(3.64032e-06 2.44351e-06 0)
(4.01642e-06 2.913e-06 0)
(4.40242e-06 3.4022e-06 0)
(4.794e-06 3.90757e-06 0)
(5.19263e-06 4.42524e-06 0)
(5.59671e-06 4.95229e-06 0)
(6.00628e-06 5.48586e-06 0)
(6.42055e-06 6.02364e-06 0)
(6.8392e-06 6.56352e-06 0)
(7.26175e-06 7.10371e-06 0)
(7.68786e-06 7.64268e-06 0)
(8.1172e-06 8.17907e-06 0)
(8.54949e-06 8.71171e-06 0)
(8.98452e-06 9.23959e-06 0)
(9.42207e-06 9.76178e-06 0)
(9.86199e-06 1.02774e-05 0)
(1.03041e-05 1.07858e-05 0)
(1.0748e-05 1.1286e-05 0)
(1.11934e-05 1.17772e-05 0)
(1.16393e-05 1.22587e-05 0)
(3.36806e-06 2.28902e-06 0)
(3.72131e-06 2.75233e-06 0)
(4.08542e-06 3.2361e-06 0)
(4.45684e-06 3.73669e-06 0)
(4.83681e-06 4.25017e-06 0)
(5.22396e-06 4.77359e-06 0)
(5.61825e-06 5.30403e-06 0)
(6.01893e-06 5.83911e-06 0)
(6.42561e-06 6.37666e-06 0)
(6.83773e-06 6.91482e-06 0)
(7.25487e-06 7.45199e-06 0)
(7.67657e-06 7.98675e-06 0)
(8.10243e-06 8.5179e-06 0)
(8.53211e-06 9.04436e-06 0)
(8.96525e-06 9.56522e-06 0)
(9.40154e-06 1.00797e-05 0)
(9.84065e-06 1.0587e-05 0)
(1.02821e-05 1.10867e-05 0)
(1.07255e-05 1.15782e-05 0)
(1.11695e-05 1.20613e-05 0)
(3.07976e-06 2.14378e-06 0)
(3.40975e-06 2.60129e-06 0)
(3.75185e-06 3.07972e-06 0)
(4.10329e-06 3.57542e-06 0)
(4.46498e-06 4.08445e-06 0)
(4.83578e-06 4.60386e-06 0)
(5.21553e-06 5.1307e-06 0)
(5.60344e-06 5.66255e-06 0)
(5.99905e-06 6.19719e-06 0)
(6.4017e-06 6.73275e-06 0)
(6.81083e-06 7.26755e-06 0)
(7.22586e-06 7.80017e-06 0)
(7.64624e-06 8.32934e-06 0)
(8.07145e-06 8.85398e-06 0)
(8.50099e-06 9.37315e-06 0)
(8.93437e-06 9.8861e-06 0)
(9.3711e-06 1.03923e-05 0)
(9.8106e-06 1.08913e-05 0)
(1.02523e-05 1.1383e-05 0)
(1.06949e-05 1.18678e-05 0)
(2.7701e-06 2.01011e-06 0)
(3.0764e-06 2.46167e-06 0)
(3.39645e-06 2.93438e-06 0)
(3.72822e-06 3.42467e-06 0)
(4.07226e-06 3.92864e-06 0)
(4.42755e-06 4.44334e-06 0)
(4.79375e-06 4.96583e-06 0)
(5.17005e-06 5.49369e-06 0)
(5.55582e-06 6.02469e-06 0)
(5.95029e-06 6.55692e-06 0)
(6.35273e-06 7.08871e-06 0)
(6.76241e-06 7.61859e-06 0)
(7.1786e-06 8.14527e-06 0)
(7.60059e-06 8.66766e-06 0)
(8.02768e-06 9.18483e-06 0)
(8.45919e-06 9.69605e-06 0)
(8.89444e-06 1.02008e-05 0)
(9.3327e-06 1.0699e-05 0)
(9.77323e-06 1.11908e-05 0)
(1.02149e-05 1.16771e-05 0)
(2.43127e-06 1.88476e-06 0)
(2.71355e-06 2.33028e-06 0)
(3.0118e-06 2.797e-06 0)
(3.32456e-06 3.28151e-06 0)
(3.65197e-06 3.77996e-06 0)
(3.99302e-06 4.28945e-06 0)
(4.34717e-06 4.80707e-06 0)
(4.71348e-06 5.33039e-06 0)
(5.09113e-06 5.85721e-06 0)
(5.4792e-06 6.38561e-06 0)
(5.87678e-06 6.91392e-06 0)
(6.28293e-06 7.44064e-06 0)
(6.69675e-06 7.96449e-06 0)
(7.11731e-06 8.48436e-06 0)
(7.54368e-06 8.99932e-06 0)
(7.97494e-06 9.50866e-06 0)
(8.41016e-06 1.00119e-05 0)
(8.84836e-06 1.05091e-05 0)
(9.28866e-06 1.10006e-05 0)
(9.72987e-06 1.1488e-05 0)
(2.05886e-06 1.77513e-06 0)
(2.31697e-06 2.21317e-06 0)
(2.59394e-06 2.67241e-06 0)
(2.88861e-06 3.14967e-06 0)
(3.2007e-06 3.6412e-06 0)
(3.52908e-06 4.14412e-06 0)
(3.87294e-06 4.65558e-06 0)
(4.23116e-06 5.17318e-06 0)
(4.6027e-06 5.69473e-06 0)
(4.98641e-06 6.21833e-06 0)
(5.38121e-06 6.74228e-06 0)
(5.78594e-06 7.26511e-06 0)
(6.19949e-06 7.78553e-06 0)
(6.62071e-06 8.30244e-06 0)
(7.04844e-06 8.81492e-06 0)
(7.48146e-06 9.32225e-06 0)
(7.91856e-06 9.82403e-06 0)
(8.35839e-06 1.03202e-05 0)
(8.79979e-06 1.08114e-05 0)
(9.2413e-06 1.1299e-05 0)
(2.96826e-07 3.19409e-08 0)
(8.96597e-07 1.97408e-07 0)
(1.53425e-06 5.06178e-07 0)
(2.21794e-06 9.37487e-07 0)
(2.96082e-06 1.47961e-06 0)
(3.76695e-06 2.11317e-06 0)
(4.6395e-06 2.81752e-06 0)
(5.5769e-06 3.57108e-06 0)
(6.57631e-06 4.35201e-06 0)
(7.63246e-06 5.14241e-06 0)
(2.79577e-07 2.85261e-08 0)
(8.45113e-07 1.7718e-07 0)
(1.44483e-06 4.57481e-07 0)
(2.08503e-06 8.52634e-07 0)
(2.77771e-06 1.35381e-06 0)
(3.52667e-06 1.94472e-06 0)
(4.33514e-06 2.60745e-06 0)
(5.20173e-06 3.32294e-06 0)
(6.12318e-06 4.07021e-06 0)
(7.09396e-06 4.83509e-06 0)
(2.64063e-07 2.44754e-08 0)
(7.98902e-07 1.56669e-07 0)
(1.36503e-06 4.10362e-07 0)
(1.96666e-06 7.71775e-07 0)
(2.6145e-06 1.23428e-06 0)
(3.31175e-06 1.7841e-06 0)
(4.06193e-06 2.40561e-06 0)
(4.86446e-06 3.08239e-06 0)
(5.71809e-06 3.79541e-06 0)
(6.61688e-06 4.53457e-06 0)
(2.4987e-07 1.97987e-08 0)
(7.56807e-07 1.36113e-07 0)
(1.29321e-06 3.65792e-07 0)
(1.86138e-06 6.97213e-07 0)
(2.47088e-06 1.12537e-06 0)
(3.12407e-06 1.63839e-06 0)
(3.82424e-06 2.22233e-06 0)
(4.5704e-06 2.86252e-06 0)
(5.36268e-06 3.54092e-06 0)
(6.19387e-06 4.24878e-06 0)
(2.36598e-07 1.44284e-08 0)
(7.17509e-07 1.14758e-07 0)
(1.22663e-06 3.21674e-07 0)
(1.76449e-06 6.25156e-07 0)
(2.33965e-06 1.0214e-06 0)
(2.95369e-06 1.50005e-06 0)
(3.60988e-06 2.04866e-06 0)
(4.30683e-06 2.65422e-06 0)
(5.04609e-06 3.30019e-06 0)
(5.81815e-06 3.97773e-06 0)
(2.24143e-07 8.46607e-09 0)
(6.80683e-07 9.27668e-08 0)
(1.16468e-06 2.78265e-07 0)
(1.67506e-06 5.56114e-07 0)
(2.21955e-06 9.23364e-07 0)
(2.79883e-06 1.37078e-06 0)
(3.41605e-06 1.88698e-06 0)
(4.06922e-06 2.46001e-06 0)
(4.76117e-06 3.07482e-06 0)
(5.4809e-06 3.72196e-06 0)
(2.1225e-07 1.87653e-09 0)
(6.45548e-07 6.98078e-08 0)
(1.10587e-06 2.34627e-07 0)
(1.59073e-06 4.88358e-07 0)
(2.10713e-06 8.28683e-07 0)
(2.655e-06 1.24722e-06 0)
(3.2374e-06 1.73356e-06 0)
(3.85177e-06 2.27653e-06 0)
(4.50182e-06 2.86252e-06 0)
(5.17547e-06 3.48106e-06 0)
(2.00829e-07 -5.25104e-09 0)
(6.11813e-07 4.59867e-08 0)
(1.04964e-06 1.90798e-07 0)
(1.51055e-06 4.21849e-07 0)
(2.00092e-06 7.3726e-07 0)
(2.51999e-06 1.12924e-06 0)
(3.07071e-06 1.58813e-06 0)
(3.6501e-06 2.10325e-06 0)
(4.26244e-06 2.66236e-06 0)
(4.8953e-06 3.25411e-06 0)
(1.8973e-07 -1.29209e-08 0)
(5.79039e-07 2.11713e-08 0)
(9.95171e-07 1.46361e-07 0)
(1.43322e-06 3.55796e-07 0)
(1.89906e-06 6.47898e-07 0)
(2.39131e-06 1.01531e-06 0)
(2.91285e-06 1.44896e-06 0)
(3.46039e-06 1.93852e-06 0)
(4.03848e-06 2.47289e-06 0)
(4.63483e-06 3.04006e-06 0)
(1.78876e-07 -2.10811e-08 0)
(5.46981e-07 -4.58858e-09 0)
(9.42001e-07 1.01278e-07 0)
(1.35798e-06 2.90041e-07 0)
(1.80031e-06 5.60291e-07 0)
(2.26716e-06 9.04929e-07 0)
(2.76129e-06 1.31534e-06 0)
(3.27931e-06 1.78144e-06 0)
(3.82579e-06 2.29305e-06 0)
(4.38904e-06 2.83778e-06 0)
(1.68177e-07 -2.9731e-08 0)
(5.15379e-07 -3.13552e-08 0)
(8.89649e-07 5.53474e-08 0)
(1.28402e-06 2.24208e-07 0)
(1.70349e-06 4.73865e-07 0)
(2.14586e-06 7.97359e-07 0)
(2.61378e-06 1.18639e-06 0)
(3.10394e-06 1.63103e-06 0)
(3.62075e-06 2.12182e-06 0)
(4.15343e-06 2.64623e-06 0)
(1.57575e-07 -3.8853e-08 0)
(4.84071e-07 -5.91298e-08 0)
(8.37793e-07 8.51411e-09 0)
(1.21078e-06 1.58187e-07 0)
(1.60765e-06 3.88428e-07 0)
(2.02596e-06 6.92292e-07 0)
(2.4683e-06 1.06165e-06 0)
(2.93159e-06 1.48669e-06 0)
(3.42003e-06 1.9585e-06 0)
(3.92387e-06 2.46459e-06 0)
(1.47033e-07 -4.84707e-08 0)
(4.52988e-07 -8.80013e-08 0)
(7.86224e-07 -3.93753e-08 0)
(1.13779e-06 9.17778e-08 0)
(1.51193e-06 3.0372e-07 0)
(1.90614e-06 5.89391e-07 0)
(2.32298e-06 9.40699e-07 0)
(2.75976e-06 1.34789e-06 0)
(3.22043e-06 1.80246e-06 0)
(3.6964e-06 2.29212e-06 0)
(1.3655e-07 -5.86633e-08 0)
(4.22177e-07 -1.18069e-07 0)
(7.34867e-07 -8.83669e-08 0)
(1.0647e-06 2.50432e-08 0)
(1.41559e-06 2.19868e-07 0)
(1.78515e-06 4.88791e-07 0)
(2.17601e-06 8.23612e-07 0)
(2.586e-06 1.21463e-06 0)
(3.01885e-06 1.6536e-06 0)
(3.4672e-06 2.12857e-06 0)
(1.2622e-07 -6.95805e-08 0)
(3.92011e-07 -1.49595e-07 0)
(6.83993e-07 -1.38699e-07 0)
(9.91447e-07 -4.21773e-08 0)
(1.31803e-06 1.3678e-07 0)
(1.66177e-06 3.90406e-07 0)
(2.02551e-06 7.10272e-07 0)
(2.40774e-06 1.08668e-06 0)
(2.81201e-06 1.51162e-06 0)
(3.23224e-06 1.97349e-06 0)
(1.16241e-07 -8.17271e-08 0)
(3.63099e-07 -1.82951e-07 0)
(6.34052e-07 -1.90279e-07 0)
(9.18041e-07 -1.09279e-07 0)
(1.21867e-06 5.53946e-08 0)
(1.53475e-06 2.95336e-07 0)
(1.86953e-06 6.01794e-07 0)
(2.22232e-06 9.65102e-07 0)
(2.59654e-06 1.37743e-06 0)
(2.98742e-06 1.82762e-06 0)
(1.07352e-07 -9.57022e-08 0)
(3.37346e-07 -2.18892e-07 0)
(5.86624e-07 -2.43608e-07 0)
(8.45153e-07 -1.76608e-07 0)
(1.1171e-06 -2.4505e-08 0)
(1.40266e-06 2.03367e-07 0)
(1.70571e-06 4.97912e-07 0)
(2.02648e-06 8.49499e-07 0)
(2.36833e-06 1.25051e-06 0)
(2.72782e-06 1.69026e-06 0)
(1.01123e-07 -1.14093e-07 0)
(3.16965e-07 -2.58572e-07 0)
(5.43232e-07 -2.97612e-07 0)
(7.73104e-07 -2.41477e-07 0)
(1.01262e-06 -9.94762e-08 0)
(1.26379e-06 1.18213e-07 0)
(1.53147e-06 4.02291e-07 0)
(1.81684e-06 7.43347e-07 0)
(2.12326e-06 1.13401e-06 0)
(2.44856e-06 1.56421e-06 0)
(1.052e-07 -1.38806e-07 0)
(3.10195e-07 -3.03423e-07 0)
(5.09125e-07 -3.53318e-07 0)
(7.03736e-07 -3.05434e-07 0)
(9.04394e-07 -1.71393e-07 0)
(1.11541e-06 3.76393e-08 0)
(1.34263e-06 3.12411e-07 0)
(1.58801e-06 6.43846e-07 0)
(1.85494e-06 1.02495e-06 0)
(2.14226e-06 1.44627e-06 0)
(1.35761e-07 -1.83538e-07 0)
(3.22222e-07 -3.5448e-07 0)
(4.868e-07 -4.03637e-07 0)
(6.36819e-07 -3.57475e-07 0)
(7.91212e-07 -2.28555e-07 0)
(9.55446e-07 -2.67644e-08 0)
(1.13655e-06 2.39299e-07 0)
(1.33682e-06 5.6135e-07 0)
(1.55973e-06 9.32847e-07 0)
(1.80472e-06 1.34506e-06 0)
)
;

boundaryField
{
    left
    {
        type            fixedDisplacement;
        value           uniform (0 0 0);
    }
    right
    {
        type            solidTraction;
        tractionSeries  
{
        file            "$FOAM_CASE/constant/timeVsTraction";
        outOfBounds     clamp;
}
        pressure        uniform 0;
        secondOrder     false;
        setEffectiveTraction false;
        relaxationFactor 1;
        value           nonuniform List<vector> 
30
(
(2.45679e-05 1.80313e-05 -1.01419e-20)
(2.39951e-05 1.78249e-05 -1.02032e-20)
(2.34172e-05 1.762e-05 -1.03086e-20)
(2.28326e-05 1.74127e-05 -1.04499e-20)
(2.22415e-05 1.72007e-05 -1.06278e-20)
(2.16452e-05 1.69819e-05 -1.08437e-20)
(2.10457e-05 1.6755e-05 -1.11003e-20)
(2.04456e-05 1.65193e-05 -1.14002e-20)
(1.98473e-05 1.62749e-05 -1.17463e-20)
(1.92536e-05 1.60222e-05 -1.21417e-20)
(1.86921e-05 1.57737e-05 -1.23384e-20)
(1.81595e-05 1.55294e-05 -1.22822e-20)
(1.76345e-05 1.52814e-05 -1.22449e-20)
(1.7118e-05 1.50311e-05 -1.22258e-20)
(1.66106e-05 1.478e-05 -1.2228e-20)
(1.61111e-05 1.45299e-05 -1.22501e-20)
(1.56202e-05 1.42817e-05 -1.2289e-20)
(1.51371e-05 1.40371e-05 -1.23446e-20)
(1.46607e-05 1.37973e-05 -1.24136e-20)
(1.41897e-05 1.35631e-05 -1.24934e-20)
(1.37226e-05 1.33354e-05 -1.25804e-20)
(1.3258e-05 1.31144e-05 -1.2671e-20)
(1.27941e-05 1.29005e-05 -1.2761e-20)
(1.23294e-05 1.26935e-05 -1.28466e-20)
(1.18623e-05 1.24927e-05 -1.29234e-20)
(1.13915e-05 1.22975e-05 -1.2988e-20)