/*--------------------------------*- C++ -*----------------------------------*\
  =========                 |
  \\      /  F ield         | OpenFOAM: The Open Source CFD Toolbox
   \\    /   O peration     | Website:  https://openfoam.org
    \\  /    A nd           | Version:  9
     \\/     M anipulation  |
\*---------------------------------------------------------------------------*/
FoamFile
{
    format      ascii;
    class       volVectorField;
    location    "15";
    object      D_0;
}
// * * * * * * * * * * * * * * * * * * * * * * * * * * * * * * * * * * * * * //

dimensions      [0 1 0 0 0 0 0];

internalField   nonuniform List<vector> 
1000
(
(9.46852e-06 3.18666e-06 0)
(8.836e-06 3.51644e-06 0)
(8.37501e-06 3.79583e-06 0)
(8.04175e-06 4.01375e-06 0)
(7.80404e-06 4.20199e-06 0)
(7.6362e-06 4.36396e-06 0)
(7.52257e-06 4.50989e-06 0)
(7.45036e-06 4.64282e-06 0)
(7.40958e-06 4.76683e-06 0)
(7.39512e-06 4.8844e-06 0)
(8.5318e-06 2.87392e-06 0)
(7.87606e-06 3.11276e-06 0)
(7.40024e-06 3.32418e-06 0)
(7.05809e-06 3.48711e-06 0)
(6.81438e-06 3.63013e-06 0)
(6.64169e-06 3.75324e-06 0)
(6.52336e-06 3.86483e-06 0)
(6.44586e-06 3.96695e-06 0)
(6.39893e-06 4.06165e-06 0)
(6.37566e-06 4.15409e-06 0)
(7.57302e-06 2.5565e-06 0)
(6.91366e-06 2.70086e-06 0)
(6.43626e-06 2.84176e-06 0)
(6.09524e-06 2.94973e-06 0)
(5.85293e-06 3.04845e-06 0)
(5.68124e-06 3.13451e-06 0)
(5.56279e-06 3.21403e-06 0)
(5.4838e-06 3.28779e-06 0)
(5.43393e-06 3.35601e-06 0)
(5.40591e-06 3.42444e-06 0)
(6.60291e-06 2.24619e-06 0)
(5.95602e-06 2.29246e-06 0)
(5.49119e-06 2.36194e-06 0)
(5.1612e-06 2.41561e-06 0)
(4.92806e-06 2.47208e-06 0)
(4.7635e-06 2.52367e-06 0)
(4.64991e-06 2.5741e-06 0)
(4.57342e-06 2.62249e-06 0)
(4.52429e-06 2.66754e-06 0)
(4.49454e-06 2.71452e-06 0)
(5.62306e-06 1.95069e-06 0)
(5.00592e-06 1.89708e-06 0)
(4.56825e-06 1.89736e-06 0)
(4.25974e-06 1.89939e-06 0)
(4.04455e-06 1.91732e-06 0)
(3.8936e-06 1.93849e-06 0)
(3.78999e-06 1.96406e-06 0)
(3.71996e-06 1.99111e-06 0)
(3.67465e-06 2.01704e-06 0)
(3.64585e-06 2.04592e-06 0)
(4.63033e-06 1.66037e-06 0)
(4.06517e-06 1.51929e-06 0)
(3.66835e-06 1.45471e-06 0)
(3.39394e-06 1.413e-06 0)
(3.20573e-06 1.39855e-06 0)
(3.07524e-06 1.39568e-06 0)
(2.98653e-06 1.40202e-06 0)
(2.92664e-06 1.41296e-06 0)
(2.88786e-06 1.42469e-06 0)
(2.86219e-06 1.43983e-06 0)
(3.62081e-06 1.37398e-06 0)
(3.12961e-06 1.15833e-06 0)
(2.79082e-06 1.04205e-06 0)
(2.564e-06 9.68274e-07 0)
(2.41207e-06 9.31434e-07 0)
(2.30851e-06 9.12896e-07 0)
(2.23906e-06 9.07058e-07 0)
(2.1923e-06 9.07867e-07 0)
(2.16205e-06 9.10788e-07 0)
(2.14117e-06 9.16913e-07 0)
(2.60891e-06 1.08309e-06 0)
(2.20582e-06 8.12499e-07 0)
(1.94322e-06 6.66328e-07 0)
(1.77574e-06 5.78173e-07 0)
(1.66729e-06 5.32454e-07 0)
(1.595e-06 5.08689e-07 0)
(1.54724e-06 4.98616e-07 0)
(1.51515e-06 4.9568e-07 0)
(1.49433e-06 4.95173e-07 0)
(1.47922e-06 4.97115e-07 0)
(1.57278e-06 7.7765e-07 0)
(1.28785e-06 4.85021e-07 0)
(1.12488e-06 3.38208e-07 0)
(1.02583e-06 2.59247e-07 0)
(9.6609e-07 2.20808e-07 0)
(9.26918e-07 2.02244e-07 0)
(9.01565e-07 1.94934e-07 0)
(8.84269e-07 1.93063e-07 0)
(8.72834e-07 1.92886e-07 0)
(8.63838e-07 1.94013e-07 0)
(5.47498e-07 4.02989e-07 0)
(4.1006e-07 1.89582e-07 0)
(3.59187e-07 9.00592e-08 0)
(3.32512e-07 5.18207e-08 0)
(3.16497e-07 3.47507e-08 0)
(3.05642e-07 2.90384e-08 0)
(2.98365e-07 2.77135e-08 0)
(2.93129e-07 2.85107e-08 0)
(2.89491e-07 2.95343e-08 0)
(2.86307e-07 3.08045e-08 0)
(1.66931e-05 5.15607e-06 0)
(1.66653e-05 5.7971e-06 0)
(1.66462e-05 6.39434e-06 0)
(1.66467e-05 6.94109e-06 0)
(1.66717e-05 7.44298e-06 0)
(1.6723e-05 7.90627e-06 0)
(1.68009e-05 8.33817e-06 0)
(1.69038e-05 8.74495e-06 0)
(1.70307e-05 9.13156e-06 0)
(1.71784e-05 9.5035e-06 0)
(1.61696e-05 5.11369e-06 0)
(1.60953e-05 5.75285e-06 0)
(1.60447e-05 6.3428e-06 0)
(1.60222e-05 6.87851e-06 0)
(1.60304e-05 7.36693e-06 0)
(1.60677e-05 7.8147e-06 0)
(1.61329e-05 8.22974e-06 0)
(1.62229e-05 8.61866e-06 0)
(1.63366e-05 8.98664e-06 0)
(1.64694e-05 9.33991e-06 0)
(1.56144e-05 5.02778e-06 0)
(1.54849e-05 5.66526e-06 0)
(1.53914e-05 6.24317e-06 0)
(1.53351e-05 6.76158e-06 0)
(1.53166e-05 7.23101e-06 0)
(1.53314e-05 7.65902e-06 0)
(1.53768e-05 8.05407e-06 0)
(1.54483e-05 8.4229e-06 0)
(1.55442e-05 8.77084e-06 0)
(1.56585e-05 9.10434e-06 0)
(1.50144e-05 4.90289e-06 0)
(1.48229e-05 5.53727e-06 0)
(1.46796e-05 6.10044e-06 0)
(1.45832e-05 6.5977e-06 0)
(1.45319e-05 7.04428e-06 0)
(1.45188e-05 7.44886e-06 0)
(1.45399e-05 7.8207e-06 0)
(1.4589e-05 8.16657e-06 0)
(1.46642e-05 8.49205e-06 0)
(1.47575e-05 8.80351e-06 0)
(1.43627e-05 4.74023e-06 0)
(1.41033e-05 5.36641e-06 0)
(1.39067e-05 5.9102e-06 0)
(1.3768e-05 6.38144e-06 0)
(1.3682e-05 6.8007e-06 0)
(1.36395e-05 7.17781e-06 0)
(1.36349e-05 7.52297e-06 0)
(1.36605e-05 7.84292e-06 0)
(1.3714e-05 8.14352e-06 0)
(1.37858e-05 8.4307e-06 0)
(1.36584e-05 4.54358e-06 0)
(1.33272e-05 5.1529e-06 0)
(1.30762e-05 5.67169e-06 0)
(1.28954e-05 6.11243e-06 0)
(1.2775e-05 6.50067e-06 0)
(1.27034e-05 6.84704e-06 0)
(1.26735e-05 7.16268e-06 0)
(1.26761e-05 7.45412e-06 0)
(1.27084e-05 7.72762e-06 0)
(1.27594e-05 7.98836e-06 0)
(1.29033e-05 4.31594e-06 0)
(1.24994e-05 4.89674e-06 0)
(1.21952e-05 5.3834e-06 0)
(1.1974e-05 5.78874e-06 0)
(1.18215e-05 6.14239e-06 0)
(1.1723e-05 6.45516e-06 0)
(1.16695e-05 6.7389e-06 0)
(1.16509e-05 6.9998e-06 0)
(1.16635e-05 7.24442e-06 0)
(1.16955e-05 7.47704e-06 0)
(1.21013e-05 4.06159e-06 0)
(1.16273e-05 4.60036e-06 0)
(1.12733e-05 5.04696e-06 0)
(1.10153e-05 5.41207e-06 0)
(1.08339e-05 5.72799e-06 0)
(1.07115e-05 6.00489e-06 0)
(1.06373e-05 6.25504e-06 0)
(1.06001e-05 6.48394e-06 0)
(1.05953e-05 6.69846e-06 0)
(1.06108e-05 6.90153e-06 0)
(1.12577e-05 3.785e-06 0)
(1.07198e-05 4.26747e-06 0)
(1.03217e-05 4.66583e-06 0)
(1.00319e-05 4.98592e-06 0)
(9.82608e-06 5.26129e-06 0)
(9.68368e-06 5.50064e-06 0)
(9.59221e-06 5.71608e-06 0)
(9.53961e-06 5.91238e-06 0)
(9.51983e-06 6.09594e-06 0)
(9.52185e-06 6.26905e-06 0)
(1.03783e-05 3.49153e-06 0)
(9.78635e-06 3.90377e-06 0)
(9.35191e-06 4.24611e-06 0)
(9.03651e-06 4.51685e-06 0)
(8.81159e-06 4.74946e-06 0)
(8.65376e-06 4.95022e-06 0)
(8.54892e-06 5.13071e-06 0)
(8.48437e-06 5.29437e-06 0)
(8.45267e-06 5.44747e-06 0)
(8.44512e-06 5.58871e-06 0)
(1.73549e-05 9.86128e-06 0)
(1.75577e-05 1.02164e-05 0)
(1.7776e-05 1.05658e-05 0)
(1.80081e-05 1.09112e-05 0)
(1.82528e-05 1.12543e-05 0)
(1.85087e-05 1.15961e-05 0)
(1.87747e-05 1.19379e-05 0)
(1.90498e-05 1.22803e-05 0)
(1.93329e-05 1.26241e-05 0)
(1.96231e-05 1.29699e-05 0)
(1.99196e-05 1.33183e-05 0)
(2.02216e-05 1.36697e-05 0)
(2.05284e-05 1.40245e-05 0)
(2.08392e-05 1.43829e-05 0)
(2.11533e-05 1.47451e-05 0)
(2.147e-05 1.51112e-05 0)
(2.17887e-05 1.54812e-05 0)
(2.21086e-05 1.58549e-05 0)
(2.24292e-05 1.62314e-05 0)
(2.27497e-05 1.66098e-05 0)
(1.66534e-05 9.68414e-06 0)
(1.68811e-05 1.00333e-05 0)
(1.7121e-05 1.03771e-05 0)
(1.73712e-05 1.07176e-05 0)
(1.76313e-05 1.10565e-05 0)
(1.79001e-05 1.13948e-05 0)
(1.8177e-05 1.17336e-05 0)
(1.84611e-05 1.20737e-05 0)
(1.87518e-05 1.24158e-05 0)
(1.90484e-05 1.27605e-05 0)
(1.93503e-05 1.31082e-05 0)
(1.96568e-05 1.34594e-05 0)
(1.99675e-05 1.38145e-05 0)
(2.02819e-05 1.41737e-05 0)
(2.05993e-05 1.45371e-05 0)
(2.09192e-05 1.4905e-05 0)
(2.12413e-05 1.52772e-05 0)
(2.1565e-05 1.56534e-05 0)
(2.18898e-05 1.60331e-05 0)
(2.22149e-05 1.64153e-05 0)
(1.58527e-05 9.43836e-06 0)
(1.61126e-05 9.78814e-06 0)
(1.63813e-05 1.01327e-05 0)
(1.66563e-05 1.04738e-05 0)
(1.69383e-05 1.08137e-05 0)
(1.72261e-05 1.11529e-05 0)
(1.75197e-05 1.1493e-05 0)
(1.78184e-05 1.18345e-05 0)
(1.8122e-05 1.21783e-05 0)
(1.84299e-05 1.2525e-05 0)
(1.8742e-05 1.28749e-05 0)
(1.90576e-05 1.32286e-05 0)
(1.93767e-05 1.35864e-05 0)
(1.96987e-05 1.39487e-05 0)
(2.00234e-05 1.43156e-05 0)
(2.03504e-05 1.46872e-05 0)
(2.06795e-05 1.50637e-05 0)
(2.10101e-05 1.54448e-05 0)
(2.1342e-05 1.58303e-05 0)
(2.16742e-05 1.62196e-05 0)
(1.49644e-05 9.12932e-06 0)
(1.52625e-05 9.48474e-06 0)
(1.55662e-05 9.83522e-06 0)
(1.58719e-05 1.01815e-05 0)
(1.61815e-05 1.05265e-05 0)
(1.64937e-05 1.08707e-05 0)
(1.68092e-05 1.12156e-05 0)
(1.71274e-05 1.15619e-05 0)
(1.74485e-05 1.19105e-05 0)
(1.77723e-05 1.22619e-05 0)
(1.80986e-05 1.26168e-05 0)
(1.84274e-05 1.29755e-05 0)
(1.87585e-05 1.33385e-05 0)
(1.90918e-05 1.37061e-05 0)
(1.94271e-05 1.40786e-05 0)
(1.97642e-05 1.44562e-05 0)
(2.01031e-05 1.48391e-05 0)
(2.04433e-05 1.52275e-05 0)
(2.07845e-05 1.56212e-05 0)
(2.11259e-05 1.60202e-05 0)
(1.40079e-05 8.75108e-06 0)
(1.43489e-05 9.1179e-06 0)
(1.46921e-05 9.48007e-06 0)
(1.50328e-05 9.83673e-06 0)
(1.53743e-05 1.01918e-05 0)
(1.5715e-05 1.05452e-05 0)
(1.60563e-05 1.0899e-05 0)
(1.63978e-05 1.12538e-05 0)
(1.67401e-05 1.16106e-05 0)
(1.7083e-05 1.197e-05 0)
(1.74269e-05 1.23327e-05 0)
(1.77718e-05 1.26991e-05 0)
(1.81178e-05 1.30699e-05 0)
(1.84649e-05 1.34452e-05 0)
(1.88133e-05 1.38256e-05 0)
(1.91629e-05 1.42114e-05 0)
(1.95136e-05 1.46029e-05 0)
(1.98653e-05 1.50005e-05 0)
(2.02178e-05 1.54046e-05 0)
(2.05703e-05 1.58155e-05 0)
(1.29989e-05 8.30587e-06 0)
(1.33858e-05 8.68942e-06 0)
(1.37722e-05 9.06871e-06 0)
(1.41511e-05 9.44059e-06 0)
(1.45277e-05 9.81017e-06 0)
(1.49001e-05 1.01771e-05 0)
(1.52703e-05 1.05437e-05 0)
(1.56379e-05 1.09106e-05 0)
(1.60041e-05 1.12789e-05 0)
(1.63689e-05 1.16494e-05 0)
(1.67328e-05 1.20228e-05 0)
(1.70962e-05 1.23997e-05 0)
(1.74593e-05 1.27807e-05 0)
(1.78224e-05 1.31661e-05 0)
(1.81857e-05 1.35567e-05 0)
(1.85495e-05 1.39527e-05 0)
(1.89137e-05 1.43548e-05 0)
(1.92784e-05 1.47634e-05 0)
(1.96436e-05 1.51796e-05 0)
(2.00086e-05 1.56037e-05 0)
(1.19538e-05 7.79448e-06 0)
(1.23885e-05 8.20015e-06 0)
(1.28201e-05 8.60183e-06 0)
(1.32393e-05 8.9939e-06 0)
(1.36532e-05 9.38246e-06 0)
(1.40594e-05 9.76713e-06 0)
(1.44606e-05 1.01503e-05 0)
(1.48566e-05 1.05328e-05 0)
(1.52486e-05 1.0916e-05 0)
(1.56372e-05 1.13007e-05 0)
(1.6023e-05 1.16876e-05 0)
(1.64065e-05 1.20776e-05 0)
(1.67883e-05 1.24713e-05 0)
(1.71689e-05 1.28693e-05 0)
(1.75485e-05 1.32721e-05 0)
(1.79276e-05 1.36803e-05 0)
(1.83065e-05 1.40948e-05 0)
(1.86852e-05 1.45161e-05 0)
(1.90641e-05 1.49456e-05 0)
(1.94429e-05 1.5384e-05 0)
(1.08885e-05 7.2215e-06 0)
(1.1371e-05 7.65436e-06 0)
(1.18484e-05 8.08266e-06 0)
(1.23089e-05 8.49949e-06 0)
(1.27611e-05 8.91101e-06 0)
(1.32024e-05 9.31739e-06 0)
(1.36358e-05 9.72082e-06 0)
(1.40616e-05 1.01225e-05 0)
(1.4481e-05 1.05237e-05 0)
(1.48947e-05 1.09255e-05 0)
(1.53037e-05 1.13288e-05 0)
(1.57086e-05 1.17345e-05 0)
(1.61103e-05 1.21433e-05 0)
(1.65092e-05 1.25559e-05 0)
(1.69061e-05 1.2973e-05 0)
(1.73014e-05 1.33953e-05 0)
(1.76956e-05 1.38237e-05 0)
(1.80891e-05 1.4259e-05 0)
(1.84823e-05 1.47028e-05 0)
(1.88755e-05 1.5156e-05 0)
(9.81893e-06 6.59229e-06 0)
(1.0348e-05 7.05765e-06 0)
(1.08699e-05 7.51585e-06 0)
(1.1372e-05 7.96168e-06 0)
(1.18623e-05 8.39948e-06 0)
(1.23392e-05 8.83074e-06 0)
(1.28053e-05 9.25743e-06 0)
(1.32613e-05 9.68113e-06 0)
(1.37086e-05 1.01032e-05 0)
(1.41481e-05 1.05249e-05 0)
(1.45809e-05 1.09473e-05 0)
(1.50079e-05 1.13712e-05 0)
(1.543e-05 1.17975e-05 0)
(1.5848e-05 1.22269e-05 0)
(1.62626e-05 1.26603e-05 0)
(1.66745e-05 1.30985e-05 0)
(1.70845e-05 1.35423e-05 0)
(1.74932e-05 1.39927e-05 0)
(1.79011e-05 1.44516e-05 0)
(1.83091e-05 1.49197e-05 0)
(8.75753e-06 5.9165e-06 0)
(9.33078e-06 6.41769e-06 0)
(9.89263e-06 6.90676e-06 0)
(1.04353e-05 7.38468e-06 0)
(1.0963e-05 7.85228e-06 0)
(1.14757e-05 8.31184e-06 0)
(1.19749e-05 8.76504e-06 0)
(1.24618e-05 9.21366e-06 0)
(1.29376e-05 9.65928e-06 0)
(1.34035e-05 1.01033e-05 0)
(1.38606e-05 1.05468e-05 0)
(1.43101e-05 1.0991e-05 0)
(1.47529e-05 1.14367e-05 0)
(1.51901e-05 1.18848e-05 0)
(1.56226e-05 1.23362e-05 0)
(1.60513e-05 1.27916e-05 0)
(1.64771e-05 1.32521e-05 0)
(1.69009e-05 1.37186e-05 0)
(1.73234e-05 1.41929e-05 0)
(1.77462e-05 1.4676e-05 0)
(7.9387e-06 5.40965e-06 0)
(8.53648e-06 5.9369e-06 0)
(9.11932e-06 6.44345e-06 0)
(9.68403e-06 6.93966e-06 0)
(1.0233e-05 7.4255e-06 0)
(1.07662e-05 7.9031e-06 0)
(1.12851e-05 8.37404e-06 0)
(1.17906e-05 8.83986e-06 0)
(1.22839e-05 9.30201e-06 0)
(1.27661e-05 9.76179e-06 0)
(1.32384e-05 1.02203e-05 0)
(1.37018e-05 1.06787e-05 0)
(1.41574e-05 1.11377e-05 0)
(1.46063e-05 1.15982e-05 0)
(1.50495e-05 1.2061e-05 0)
(1.54881e-05 1.25269e-05 0)
(1.59229e-05 1.29968e-05 0)
(1.63553e-05 1.34716e-05 0)
(1.67859e-05 1.39528e-05 0)
(1.72171e-05 1.44414e-05 0)
(7.39226e-06 5.10629e-06 0)
(7.99014e-06 5.63349e-06 0)
(8.57317e-06 6.14421e-06 0)
(9.13975e-06 6.64604e-06 0)
(9.6915e-06 7.13882e-06 0)
(1.02283e-05 7.62402e-06 0)
(1.07512e-05 8.1029e-06 0)
(1.12609e-05 8.57669e-06 0)
(1.17585e-05 9.04661e-06 0)
(1.22448e-05 9.51373e-06 0)
(1.2721e-05 9.97906e-06 0)
(1.3188e-05 1.04435e-05 0)
(1.36469e-05 1.09078e-05 0)
(1.40987e-05 1.13728e-05 0)
(1.45443e-05 1.1839e-05 0)
(1.49849e-05 1.23073e-05 0)
(1.54215e-05 1.27783e-05 0)
(1.58554e-05 1.32529e-05 0)
(1.62874e-05 1.37322e-05 0)
(1.672e-05 1.42169e-05 0)
(6.9099e-06 4.81499e-06 0)
(7.49702e-06 5.34066e-06 0)
(8.07411e-06 5.85286e-06 0)
(8.63635e-06 6.35811e-06 0)
(9.18587e-06 6.85588e-06 0)
(9.72161e-06 7.34709e-06 0)
(1.02446e-05 7.83267e-06 0)
(1.07551e-05 8.31349e-06 0)
(1.12539e-05 8.79048e-06 0)
(1.17418e-05 9.26448e-06 0)
(1.22197e-05 9.7363e-06 0)
(1.26884e-05 1.02067e-05 0)
(1.3149e-05 1.06762e-05 0)
(1.36023e-05 1.11456e-05 0)
(1.40493e-05 1.16153e-05 0)
(1.44912e-05 1.20859e-05 0)
(1.49288e-05 1.2558e-05 0)
(1.53637e-05 1.30322e-05 0)
(1.57966e-05 1.35091e-05 0)
(1.62302e-05 1.39894e-05 0)
(6.47755e-06 4.53443e-06 0)
(7.05062e-06 5.05586e-06 0)
(7.61735e-06 5.5676e-06 0)
(8.17121e-06 6.07486e-06 0)
(8.71454e-06 6.57643e-06 0)
(9.24562e-06 7.07272e-06 0)
(9.7653e-06 7.5642e-06 0)
(1.02735e-05 8.05139e-06 0)
(1.07709e-05 8.53492e-06 0)
(1.12579e-05 9.01538e-06 0)
(1.17354e-05 9.49335e-06 0)
(1.2204e-05 9.96939e-06 0)
(1.26647e-05 1.0444e-05 0)
(1.31182e-05 1.09176e-05 0)
(1.35656e-05 1.13906e-05 0)
(1.40078e-05 1.18635e-05 0)
(1.44459e-05 1.23365e-05 0)
(1.48811e-05 1.28101e-05 0)
(1.53145e-05 1.32845e-05 0)
(1.57487e-05 1.37599e-05 0)
(6.09027e-06 4.26756e-06 0)
(6.6461e-06 4.78317e-06 0)
(7.19892e-06 5.29279e-06 0)
(7.74101e-06 5.80034e-06 0)
(8.27486e-06 6.30414e-06 0)
(8.79818e-06 6.80411e-06 0)
(9.31168e-06 7.30029e-06 0)
(9.81495e-06 7.79284e-06 0)
(1.03085e-05 8.28206e-06 0)
(1.07925e-05 8.76828e-06 0)
(1.12677e-05 9.25185e-06 0)
(1.17346e-05 9.73312e-06 0)
(1.2194e-05 1.02124e-05 0)
(1.26466e-05 1.069e-05 0)
(1.30934e-05 1.11662e-05 0)
(1.35351e-05 1.16411e-05 0)
(1.39729e-05 1.21149e-05 0)
(1.44077e-05 1.25877e-05 0)
(1.48414e-05 1.30592e-05 0)
(1.52759e-05 1.35297e-05 0)
(5.74059e-06 4.01424e-06 0)
(6.27747e-06 4.52256e-06 0)
(6.81405e-06 5.02859e-06 0)
(7.34202e-06 5.53507e-06 0)
(7.86388e-06 6.0398e-06 0)
(8.37701e-06 6.5423e-06 0)
(8.88197e-06 7.04213e-06 0)
(9.37808e-06 7.5391e-06 0)
(9.86568e-06 8.03319e-06 0)
(1.03449e-05 8.52445e-06 0)
(1.08161e-05 9.013e-06 0)
(1.12798e-05 9.49899e-06 0)
(1.17367e-05 9.98254e-06 0)
(1.21873e-05 1.04638e-05 0)
(1.26324e-05 1.09427e-05 0)
(1.3073e-05 1.14195e-05 0)
(1.35099e-05 1.18939e-05 0)
(1.39443e-05 1.23657e-05 0)
(1.43771e-05 1.28345e-05 0)
(1.48108e-05 1.33003e-05 0)
(5.42249e-06 3.77464e-06 0)
(5.93932e-06 4.27481e-06 0)
(6.45802e-06 4.77621e-06 0)
(6.97014e-06 5.28043e-06 0)
(7.47811e-06 5.78492e-06 0)
(7.97915e-06 6.28878e-06 0)
(8.47366e-06 6.79118e-06 0)
(8.96082e-06 7.29158e-06 0)
(9.44079e-06 7.78964e-06 0)
(9.91353e-06 8.28515e-06 0)
(1.03794e-05 8.77798e-06 0)
(1.08386e-05 9.26807e-06 0)
(1.12918e-05 9.75536e-06 0)
(1.17394e-05 1.02398e-05 0)
(1.21822e-05 1.07212e-05 0)
(1.26209e-05 1.11995e-05 0)
(1.30563e-05 1.16743e-05 0)
(1.34896e-05 1.21453e-05 0)
(1.39213e-05 1.26115e-05 0)
(1.4354e-05 1.30726e-05 0)
(5.13e-06 3.54818e-06 0)
(5.62626e-06 4.03965e-06 0)
(6.12609e-06 4.53564e-06 0)
(6.6212e-06 5.03669e-06 0)
(7.11394e-06 5.53998e-06 0)
(7.60145e-06 6.04424e-06 0)
(8.08405e-06 6.54825e-06 0)
(8.5608e-06 7.05116e-06 0)
(9.03175e-06 7.55234e-06 0)
(9.49673e-06 8.05131e-06 0)
(9.95596e-06 8.5477e-06 0)
(1.04096e-05 9.04125e-06 0)
(1.08582e-05 9.53171e-06 0)
(1.1302e-05 1.00188e-05 0)
(1.17417e-05 1.05024e-05 0)
(1.2178e-05 1.09819e-05 0)
(1.26114e-05 1.14571e-05 0)
(1.30431e-05 1.19271e-05 0)
(1.34735e-05 1.23909e-05 0)
(1.39047e-05 1.28478e-05 0)
(4.85785e-06 3.33419e-06 0)
(5.33334e-06 3.81679e-06 0)
(5.8137e-06 4.30691e-06 0)
(6.29104e-06 4.80415e-06 0)
(6.76757e-06 5.30547e-06 0)
(7.24051e-06 5.8093e-06 0)
(7.71008e-06 6.31406e-06 0)
(8.1753e-06 6.81864e-06 0)
(8.63613e-06 7.3221e-06 0)
(9.09232e-06 7.82373e-06 0)
(9.54397e-06 8.32295e-06 0)
(9.99121e-06 8.81929e-06 0)
(1.04343e-05 9.31232e-06 0)
(1.08737e-05 9.80166e-06 0)
(1.13097e-05 1.02869e-05 0)
(1.1743e-05 1.07674e-05 0)
(1.2174e-05 1.12427e-05 0)
(1.26037e-05 1.17119e-05 0)
(1.30324e-05 1.21735e-05 0)
(1.34619e-05 1.26268e-05 0)
(4.60112e-06 3.13186e-06 0)
(5.05584e-06 3.6057e-06 0)
(5.51643e-06 4.0897e-06 0)
(5.97553e-06 4.58271e-06 0)
(6.4352e-06 5.08151e-06 0)
(6.89282e-06 5.58422e-06 0)
(7.34856e-06 6.089e-06 0)
(7.80142e-06 6.59447e-06 0)
(8.2513e-06 7.09944e-06 0)
(8.69788e-06 7.60299e-06 0)
(9.1412e-06 8.10431e-06 0)
(9.58129e-06 8.60277e-06 0)
(1.00183e-05 9.09777e-06 0)
(1.04526e-05 9.58879e-06 0)
(1.08845e-05 1.00752e-05 0)
(1.13144e-05 1.05565e-05 0)
(1.17426e-05 1.10318e-05 0)
(1.217e-05 1.15002e-05 0)
(1.25968e-05 1.19601e-05 0)
(1.30242e-05 1.24106e-05 0)
(4.35532e-06 2.94039e-06 0)
(4.78933e-06 3.4058e-06 0)
(5.23e-06 3.88368e-06 0)
(5.67057e-06 4.37223e-06 0)
(6.11298e-06 4.8681e-06 0)
(6.55479e-06 5.36916e-06 0)
(6.99613e-06 5.87333e-06 0)
(7.43605e-06 6.379e-06 0)
(7.87439e-06 6.88477e-06 0)
(8.3108e-06 7.38951e-06 0)
(8.74523e-06 7.89224e-06 0)
(9.17766e-06 8.39215e-06 0)
(9.60819e-06 8.88852e-06 0)
(1.0037e-05 9.38068e-06 0)
(1.04643e-05 9.86795e-06 0)
(1.08905e-05 1.03496e-05 0)
(1.13158e-05 1.08248e-05 0)
(1.17406e-05 1.12925e-05 0)
(1.21652e-05 1.17511e-05 0)
(1.25904e-05 1.21995e-05 0)
(4.11621e-06 2.75911e-06 0)
(4.52958e-06 3.21657e-06 0)
(4.95026e-06 3.68848e-06 0)
(5.37214e-06 4.17248e-06 0)
(5.79704e-06 4.66514e-06 0)
(6.22274e-06 5.16412e-06 0)
(6.64934e-06 5.66714e-06 0)
(7.07595e-06 6.1724e-06 0)
(7.50238e-06 6.67831e-06 0)
(7.92826e-06 7.18356e-06 0)
(8.35347e-06 7.68702e-06 0)
(8.77792e-06 8.18775e-06 0)
(9.20163e-06 8.68488e-06 0)
(9.6247e-06 9.17766e-06 0)
(1.00472e-05 9.66532e-06 0)
(1.04695e-05 1.01471e-05 0)
(1.08916e-05 1.06221e-05 0)
(1.13138e-05 1.10892e-05 0)
(1.17361e-05 1.15469e-05 0)
(1.21589e-05 1.19941e-05 0)
(3.87971e-06 2.5874e-06 0)
(4.27244e-06 3.03749e-06 0)
(4.67308e-06 3.50366e-06 0)
(5.07618e-06 3.98313e-06 0)
(5.48344e-06 4.4724e-06 0)
(5.89288e-06 4.96897e-06 0)
(6.3046e-06 5.47038e-06 0)
(6.71775e-06 5.97468e-06 0)
(7.13213e-06 6.48011e-06 0)
(7.54732e-06 6.98524e-06 0)
(7.96317e-06 7.4888e-06 0)
(8.37951e-06 7.98972e-06 0)
(8.7963e-06 8.48704e-06 0)
(9.21351e-06 8.97992e-06 0)
(9.63119e-06 9.46754e-06 0)
(1.00494e-05 9.94911e-06 0)
(1.04682e-05 1.04237e-05 0)
(1.08877e-05 1.08904e-05 0)
(1.13077e-05 1.13476e-05 0)
(1.17282e-05 1.17945e-05 0)
(3.64182e-06 2.42501e-06 0)
(4.01381e-06 2.86832e-06 0)
(4.39431e-06 3.32902e-06 0)
(4.77859e-06 3.80403e-06 0)
(5.16819e-06 4.28976e-06 0)
(5.56138e-06 4.78359e-06 0)
(5.95824e-06 5.28295e-06 0)
(6.35797e-06 5.78576e-06 0)
(6.76035e-06 6.29015e-06 0)
(7.16494e-06 6.79454e-06 0)
(7.57151e-06 7.29759e-06 0)
(7.97983e-06 7.7981e-06 0)
(8.38976e-06 8.29505e-06 0)
(8.80118e-06 8.78753e-06 0)
(9.21404e-06 9.27469e-06 0)
(9.62829e-06 9.75572e-06 0)
(1.00439e-05 1.02298e-05 0)
(1.04606e-05 1.06961e-05 0)
(1.08784e-05 1.11532e-05 0)
(1.12966e-05 1.16005e-05 0)
(3.39834e-06 2.27148e-06 0)
(3.74937e-06 2.70861e-06 0)
(4.10962e-06 3.16412e-06 0)
(4.47507e-06 3.63471e-06 0)
(4.84709e-06 4.11677e-06 0)
(5.22418e-06 4.60759e-06 0)
(5.60639e-06 5.1045e-06 0)
(5.99297e-06 5.60533e-06 0)
(6.38364e-06 6.10812e-06 0)
(6.77793e-06 6.61122e-06 0)
(7.17555e-06 7.11317e-06 0)
(7.57617e-06 7.61272e-06 0)
(7.97954e-06 8.10877e-06 0)
(8.38546e-06 8.60038e-06 0)
(8.79375e-06 9.08667e-06 0)
(9.20422e-06 9.56688e-06 0)
(9.61671e-06 1.00402e-05 0)
(1.00309e-05 1.05061e-05 0)
(1.04465e-05 1.09634e-05 0)
(1.08626e-05 1.14117e-05 0)
(3.14497e-06 2.12733e-06 0)
(3.47472e-06 2.5587e-06 0)
(3.81457e-06 3.00915e-06 0)
(4.16124e-06 3.47527e-06 0)
(4.51586e-06 3.95343e-06 0)
(4.87717e-06 4.44087e-06 0)
(5.24514e-06 4.93486e-06 0)
(5.61905e-06 5.43317e-06 0)
(5.99856e-06 5.93379e-06 0)
(6.38313e-06 6.43498e-06 0)
(6.77238e-06 6.93525e-06 0)
(7.16587e-06 7.43328e-06 0)
(7.56325e-06 7.92794e-06 0)
(7.96418e-06 8.41822e-06 0)
(8.36834e-06 8.90327e-06 0)
(8.77544e-06 9.38234e-06 0)
(9.18516e-06 9.85478e-06 0)
(9.59709e-06 1.03201e-05 0)
(1.00108e-05 1.07777e-05 0)
(1.04251e-05 1.12275e-05 0)
(2.87669e-06 1.99179e-06 0)
(3.18476e-06 2.41775e-06 0)
(3.50411e-06 2.86322e-06 0)
(3.83214e-06 3.32479e-06 0)
(4.16973e-06 3.79881e-06 0)
(4.5158e-06 4.2825e-06 0)
(4.8702e-06 4.77313e-06 0)
(5.23221e-06 5.26842e-06 0)
(5.60139e-06 5.76633e-06 0)
(5.97713e-06 6.2651e-06 0)
(6.35891e-06 6.76317e-06 0)
(6.74618e-06 7.25919e-06 0)
(7.13845e-06 7.752e-06 0)
(7.53521e-06 8.24058e-06 0)
(7.93601e-06 8.72406e-06 0)
(8.34038e-06 9.20173e-06 0)
(8.74788e-06 9.67305e-06 0)
(9.15797e-06 1.01377e-05 0)
(9.57007e-06 1.05956e-05 0)
(9.98304e-06 1.1047e-05 0)
(2.58854e-06 1.86702e-06 0)
(2.87452e-06 2.28744e-06 0)
(3.17331e-06 2.72758e-06 0)
(3.48301e-06 3.18412e-06 0)
(3.80413e-06 3.65341e-06 0)
(4.13574e-06 4.13272e-06 0)
(4.47751e-06 4.61929e-06 0)
(4.82869e-06 5.11087e-06 0)
(5.18869e-06 5.60538e-06 0)
(5.55679e-06 6.10104e-06 0)
(5.93232e-06 6.59629e-06 0)
(6.3146e-06 7.08976e-06 0)
(6.70295e-06 7.58025e-06 0)
(7.09671e-06 8.06673e-06 0)
(7.49522e-06 8.54834e-06 0)
(7.89785e-06 9.02439e-06 0)
(8.30397e-06 9.49442e-06 0)
(8.71289e-06 9.95827e-06 0)
(9.12393e-06 1.04162e-05 0)
(9.53599e-06 1.0869e-05 0)
(2.27323e-06 1.75001e-06 0)
(2.53682e-06 2.1648e-06 0)
(2.81527e-06 2.59936e-06 0)
(3.10724e-06 3.05051e-06 0)
(3.41285e-06 3.51466e-06 0)
(3.73117e-06 3.98911e-06 0)
(4.0617e-06 4.47113e-06 0)
(4.40355e-06 4.95849e-06 0)
(4.75597e-06 5.4491e-06 0)
(5.11809e-06 5.9412e-06 0)
(5.48908e-06 6.4332e-06 0)
(5.86807e-06 6.92372e-06 0)
(6.2542e-06 7.41157e-06 0)
(6.64662e-06 7.8957e-06 0)
(7.04445e-06 8.37525e-06 0)
(7.44685e-06 8.84954e-06 0)
(7.85294e-06 9.31816e-06 0)
(8.2618e-06 9.78106e-06 0)
(8.67262e-06 1.02388e-05 0)
(9.08429e-06 1.06926e-05 0)
(1.92666e-06 1.64765e-06 0)
(2.1677e-06 2.05547e-06 0)
(2.4263e-06 2.48306e-06 0)
(2.70139e-06 2.92746e-06 0)
(2.9927e-06 3.38516e-06 0)
(3.29919e-06 3.85348e-06 0)
(3.6201e-06 4.32977e-06 0)
(3.95439e-06 4.81179e-06 0)
(4.3011e-06 5.29749e-06 0)
(4.65916e-06 5.7851e-06 0)
(5.02754e-06 6.27304e-06 0)
(5.40519e-06 6.75994e-06 0)
(5.79106e-06 7.24458e-06 0)
(6.18409e-06 7.72595e-06 0)
(6.58319e-06 8.20318e-06 0)
(6.98722e-06 8.67561e-06 0)
(7.39507e-06 9.14284e-06 0)
(7.80545e-06 9.60484e-06 0)
(8.2173e-06 1.00622e-05 0)
(8.62925e-06 1.05162e-05 0)
(2.76767e-07 2.93816e-08 0)
(8.36011e-07 1.82815e-07 0)
(1.43047e-06 4.69786e-07 0)
(2.06779e-06 8.71051e-07 0)
(2.76023e-06 1.37569e-06 0)
(3.51163e-06 1.96568e-06 0)
(4.32495e-06 2.62178e-06 0)
(5.19877e-06 3.32387e-06 0)
(6.13046e-06 4.05159e-06 0)
(7.11512e-06 4.78824e-06 0)
(2.60699e-07 2.62223e-08 0)
(7.88056e-07 1.64037e-07 0)
(1.3472e-06 4.24536e-07 0)
(1.94404e-06 7.92134e-07 0)
(2.58975e-06 1.25862e-06 0)
(3.2879e-06 1.80884e-06 0)
(4.04153e-06 2.4261e-06 0)
(4.84935e-06 3.09265e-06 0)
(5.70834e-06 3.78892e-06 0)
(6.61336e-06 4.50169e-06 0)
(2.46251e-07 2.24743e-08 0)
(7.4502e-07 1.44998e-07 0)
(1.2729e-06 3.80745e-07 0)
(1.83384e-06 7.16925e-07 0)
(2.4378e-06 1.14738e-06 0)
(3.08781e-06 1.65928e-06 0)
(3.78713e-06 2.23809e-06 0)
(4.53524e-06 2.86851e-06 0)
(5.33103e-06 3.5328e-06 0)
(6.1689e-06 4.22153e-06 0)
(2.33031e-07 1.81342e-08 0)
(7.05813e-07 1.25894e-07 0)
(1.20602e-06 3.39295e-07 0)
(1.73581e-06 6.47545e-07 0)
(2.30409e-06 1.046e-06 0)
(2.91307e-06 1.5236e-06 0)
(3.56582e-06 2.06737e-06 0)
(4.26141e-06 2.66365e-06 0)
(5.00001e-06 3.29562e-06 0)
(5.77487e-06 3.95512e-06 0)
(2.2067e-07 1.31467e-08 0)
(6.69213e-07 1.06038e-07 0)
(1.14402e-06 2.98251e-07 0)
(1.64559e-06 5.8048e-07 0)
(2.18191e-06 9.49195e-07 0)
(2.75444e-06 1.39477e-06 0)
(3.36622e-06 1.9056e-06 0)
(4.01599e-06 2.46956e-06 0)
(4.70518e-06 3.07128e-06 0)
(5.42493e-06 3.70246e-06 0)
(2.09069e-07 7.60297e-09 0)
(6.34915e-07 8.55769e-08 0)
(1.08633e-06 2.57848e-07 0)
(1.56233e-06 5.16201e-07 0)
(2.07009e-06 8.57902e-07 0)
(2.61025e-06 1.27436e-06 0)
(3.18575e-06 1.75497e-06 0)
(3.79474e-06 2.2886e-06 0)
(4.43987e-06 2.86125e-06 0)
(5.11086e-06 3.46406e-06 0)
(1.97993e-07 1.47345e-09 0)
(6.02193e-07 6.42063e-08 0)
(1.03156e-06 2.17219e-07 0)
(1.4838e-06 4.53103e-07 0)
(1.96542e-06 7.69715e-07 0)
(2.47634e-06 1.15926e-06 0)
(3.01942e-06 1.61203e-06 0)
(3.59228e-06 2.11763e-06 0)
(4.19838e-06 2.6634e-06 0)
(4.82644e-06 3.23953e-06 0)
(1.87355e-07 -5.16115e-09 0)
(5.70776e-07 4.20232e-08 0)
(9.79202e-07 1.76397e-07 0)
(1.40914e-06 3.91149e-07 0)
(1.86653e-06 6.84543e-07 0)
(2.35064e-06 1.04933e-06 0)
(2.86424e-06 1.47652e-06 0)
(3.40452e-06 1.95615e-06 0)
(3.9755e-06 2.47684e-06 0)
(4.56557e-06 3.02799e-06 0)
(1.7702e-07 -1.23079e-08 0)
(5.40254e-07 1.89057e-08 0)
(9.28485e-07 1.34997e-07 0)
(1.33715e-06 3.29604e-07 0)
(1.77169e-06 6.01275e-07 0)
(2.23084e-06 9.43157e-07 0)
(2.71727e-06 1.34681e-06 0)
(3.2279e-06 1.80262e-06 0)
(3.76698e-06 2.30024e-06 0)
(4.32306e-06 2.82845e-06 0)
(1.66911e-07 -1.99158e-08 0)
(5.10396e-07 -5.10081e-09 0)
(8.78978e-07 9.29826e-08 0)
(1.26709e-06 2.68321e-07 0)
(1.67976e-06 5.19623e-07 0)
(2.11527e-06 8.40279e-07 0)
(2.57618e-06 1.22227e-06 0)
(3.05933e-06 1.6562e-06 0)
(3.56898e-06 2.13259e-06 0)
(4.09424e-06 2.63988e-06 0)
(1.56945e-07 -2.79814e-08 0)
(4.80964e-07 -3.00539e-08 0)
(8.30236e-07 5.01655e-08 0)
(1.19824e-06 2.0695e-07 0)
(1.58963e-06 4.39054e-07 0)
(2.00235e-06 7.39998e-07 0)
(2.43886e-06 1.10206e-06 0)
(2.89608e-06 1.51598e-06 0)
(3.37812e-06 1.97295e-06 0)
(3.87491e-06 2.46129e-06 0)
(1.4707e-07 -3.64898e-08 0)
(4.51812e-07 -5.59586e-08 0)
(7.81962e-07 6.49322e-09 0)
(1.13006e-06 1.45387e-07 0)
(1.50042e-06 3.59388e-07 0)
(1.89075e-06 6.42031e-07 0)
(2.30345e-06 9.8575e-07 0)
(2.73566e-06 1.38139e-06 0)
(3.19128e-06 1.82066e-06 0)
(3.66122e-06 2.29192e-06 0)
(1.37254e-07 -4.54624e-08 0)
(4.22876e-07 -8.28962e-08 0)
(7.3396e-07 -3.81784e-08 0)
(1.06212e-06 8.34461e-08 0)
(1.41133e-06 2.80383e-07 0)
(1.77923e-06 5.46063e-07 0)
(2.1682e-06 8.72949e-07 0)
(2.57574e-06 1.25195e-06 0)
(3.0055e-06 1.67515e-06 0)
(3.44951e-06 2.13107e-06 0)
(1.27495e-07 -5.49745e-08 0)
(3.94198e-07 -1.10959e-07 0)
(6.86165e-07 -8.3893e-08 0)
(9.94116e-07 2.11825e-08 0)
(1.32169e-06 2.02155e-07 0)
(1.66664e-06 4.52218e-07 0)
(2.03143e-06 7.63732e-07 0)
(2.41404e-06 1.12765e-06 0)
(2.81791e-06 1.5363e-06 0)
(3.2362e-06 1.97852e-06 0)
(1.17881e-07 -6.51657e-08 0)
(3.66129e-07 -1.40391e-07 0)
(6.3884e-07 -1.30877e-07 0)
(9.2598e-07 -4.1556e-08 0)
(1.23094e-06 1.24618e-07 0)
(1.55187e-06 3.60417e-07 0)
(1.89141e-06 6.57985e-07 0)
(2.24817e-06 1.00829e-06 0)
(2.62543e-06 1.40385e-06 0)
(3.01755e-06 1.83385e-06 0)
(1.08599e-07 -7.65122e-08 0)
(3.39248e-07 -1.71549e-07 0)
(5.92416e-07 -1.79051e-07 0)
(8.57732e-07 -1.04207e-07 0)
(1.13854e-06 4.86442e-08 0)
(1.43373e-06 2.71683e-07 0)
(1.74631e-06 5.56751e-07 0)
(2.07565e-06 8.94835e-07 0)
(2.42494e-06 1.27864e-06 0)
(2.78973e-06 1.69775e-06 0)
(1.00342e-07 -8.95745e-08 0)
(3.15347e-07 -2.05136e-07 0)
(5.48376e-07 -2.28882e-07 0)
(7.90015e-07 -1.67098e-07 0)
(1.04414e-06 -2.59648e-08 0)
(1.31091e-06 1.85819e-07 0)
(1.59395e-06 4.5978e-07 0)
(1.89348e-06 7.86938e-07 0)
(2.21262e-06 1.16018e-06 0)
(2.54818e-06 1.56956e-06 0)
(9.45813e-08 -1.06788e-07 0)
(2.96501e-07 -2.4225e-07 0)
(5.08159e-07 -2.79377e-07 0)
(7.23145e-07 -2.27732e-07 0)
(9.47078e-07 -9.60114e-08 0)
(1.18184e-06 1.06289e-07 0)
(1.43194e-06 3.70496e-07 0)
(1.69849e-06 6.87835e-07 0)
(1.98464e-06 1.05144e-06 0)
(2.28834e-06 1.4519e-06 0)
(9.84773e-08 -1.29928e-07 0)
(2.90432e-07 -2.84223e-07 0)
(4.7669e-07 -3.31489e-07 0)
(6.58858e-07 -2.87538e-07 0)
(8.46608e-07 -1.63234e-07 0)
(1.04396e-06 3.10034e-08 0)
(1.25637e-06 2.86544e-07 0)
(1.48568e-06 5.94922e-07 0)
(1.73503e-06 9.49611e-07 0)
(2.00336e-06 1.34179e-06 0)
(1.27188e-07 -1.71869e-07 0)
(3.02002e-07 -3.32073e-07 0)
(4.56305e-07 -3.78627e-07 0)
(5.96933e-07 -3.3626e-07 0)
(7.41577e-07 -2.16714e-07 0)
(8.9534e-07 -2.92173e-08 0)
(1.06478e-06 2.18209e-07 0)
(1.25206e-06 5.17844e-07 0)
(1.46041e-06 8.63584e-07 0)
(1.6893e-06 1.24728e-06 0)
)
;

boundaryField
{
    left
    {
        type            fixedDisplacement;
        value           uniform (0 0 0);
    }
    right
    {
        type            solidTraction;
        tractionSeries  
{
        file            "$FOAM_CASE/constant/timeVsTraction";
        outOfBounds     clamp;
}
        pressure        uniform 0;
        secondOrder     false;
        setEffectiveTraction false;
        relaxationFactor 1;
        value           nonuniform List<vector> 
30
(
(2.29093e-05 1.67986e-05 -8.73917e-21)
(2.23755e-05 1.6606e-05 -8.792e-21)
(2.18369e-05 1.64147e-05 -8.88123e-21)
(2.12921e-05 1.62213e-05 -8.99923e-21)
(2.07411e-05 1.60235e-05 -9.14676e-21)
(2.01853e-05 1.58193e-05 -9.32511e-21)
(1.96265e-05 1.56076e-05 -9.53709e-21)
(1.90671e-05 1.53876e-05 -9.7854e-21)
(1.85095e-05 1.51594e-05 -1.00732e-20)
(1.79562e-05 1.49236e-05 -1.04037e-20)
(1.74328e-05 1.46916e-05 -1.0565e-20)
(1.69365e-05 1.44636e-05 -1.05115e-20)
(1.64472e-05 1.42322e-05 -1.04761e-20)
(1.5966e-05 1.39985e-05 -1.04579e-20)
(1.54932e-05 1.37642e-05 -1.04599e-20)
(1.50278e-05 1.35307e-05 -1.0481e-20)
(1.45706e-05 1.32991e-05 -1.0518e-20)
(1.41206e-05 1.30708e-05 -1.05707e-20)
(1.36768e-05 1.2847e-05 -1.06363e-20)
(1.32381e-05 1.26284e-05 -1.07122e-20)
(1.28031e-05 1.24159e-05 -1.07951e-20)
(1.23704e-05 1.22097e-05 -1.08814e-20)
(1.19384e-05 1.20101e-05 -1.09671e-20)
(1.15056e-05 1.18169e-05 -1.10486e-20)
(1.10706e-05 1.16295e-05 -1.11215e-20)
(1.06322e-05 1.14474e-05 -1.1183e-20)