/*--------------------------------*- C++ -*----------------------------------*\
  =========                 |
  \\      /  F ield         | OpenFOAM: The Open Source CFD Toolbox
   \\    /   O peration     | Website:  https://openfoam.org
    \\  /    A nd           | Version:  9
     \\/     M anipulation  |
\*---------------------------------------------------------------------------*/
FoamFile
{
    format      ascii;
    class       volSymmTensorField;
    location    "15";
    object      epsilon;
}
// * * * * * * * * * * * * * * * * * * * * * * * * * * * * * * * * * * * * * //

dimensions      [0 0 0 0 0 0 0];

internalField   nonuniform List<symmTensor> 
1000
(
(6.24554e-06 -8.24804e-06 5.55004e-19 1.31513e-06 6.14179e-19 1.67029e-33)
(8.7041e-06 -6.33801e-06 -1.30651e-20 -1.57024e-06 7.30111e-21 0)
(9.8842e-06 -4.85885e-06 1.52315e-20 -2.91825e-06 -2.91666e-21 0)
(1.05512e-05 -3.7402e-06 3.91367e-21 -3.87457e-06 -2.78674e-21 0)
(1.08692e-05 -2.83875e-06 -1.65333e-20 -4.4002e-06 1.20674e-21 0)
(1.09768e-05 -2.13581e-06 -1.79345e-21 -4.73726e-06 1.9592e-21 0)
(1.09649e-05 -1.56369e-06 -1.50068e-20 -4.9199e-06 -8.05493e-21 0)
(1.08655e-05 -1.10921e-06 1.03033e-20 -5.01276e-06 4.81519e-21 0)
(1.07365e-05 -7.31209e-07 -5.30315e-21 -5.0468e-06 -6.04342e-21 0)
(1.05483e-05 -4.16809e-07 0 -5.0515e-06 0 0)
(8.44959e-06 -9.28379e-06 5.16977e-19 4.93651e-07 6.7224e-19 9.12201e-35)
(1.04331e-05 -6.5465e-06 0 -2.20373e-06 0 0)
(1.1214e-05 -4.66628e-06 1.21784e-20 -3.29185e-06 5.80584e-21 0)
(1.15828e-05 -3.32602e-06 -2.0896e-20 -4.08929e-06 -1.11448e-20 0)
(1.16738e-05 -2.29675e-06 -8.88056e-21 -4.48825e-06 -5.35695e-21 0)
(1.16013e-05 -1.53126e-06 6.17583e-21 -4.73587e-06 6.30223e-21 0)
(1.14444e-05 -9.31231e-07 6.92188e-21 -4.84833e-06 4.64024e-21 0)
(1.12316e-05 -4.7579e-07 1.62813e-20 -4.89819e-06 9.50401e-21 0)
(1.09926e-05 -1.06135e-07 0 -4.882e-06 0 0)
(1.07396e-05 1.89442e-07 0 -4.88985e-06 0 0)
(1.09007e-05 -9.81635e-06 5.15206e-19 -7.02705e-07 7.71058e-19 0)
(1.22146e-05 -6.50803e-06 0 -2.90651e-06 0 0)
(1.2476e-05 -4.33789e-06 1.16065e-20 -3.62945e-06 6.00799e-21 0)
(1.24868e-05 -2.82231e-06 -3.48781e-21 -4.18758e-06 1.22868e-21 0)
(1.23132e-05 -1.70574e-06 -1.70957e-22 -4.42305e-06 7.58232e-23 0)
(1.20376e-05 -9.03976e-07 -5.75778e-21 -4.55385e-06 -5.9634e-21 0)
(1.17234e-05 -2.99338e-07 7.87738e-21 -4.58201e-06 3.64502e-21 0)
(1.13881e-05 1.41839e-07 -5.84393e-21 -4.57709e-06 -4.31743e-21 0)
(1.10484e-05 4.85278e-07 -4.77009e-22 -4.51429e-06 8.11666e-22 0)
(1.07203e-05 7.64251e-07 -1.23708e-21 -4.50831e-06 -5.32606e-22 0)
(1.35746e-05 -9.86289e-06 5.09417e-19 -2.18855e-06 9.21709e-19 -5.89421e-35)
(1.39673e-05 -6.26209e-06 6.60791e-21 -3.59453e-06 -6.80193e-22 0)
(1.36555e-05 -3.88893e-06 -5.30146e-21 -3.90903e-06 -2.9963e-21 0)
(1.32602e-05 -2.25891e-06 -3.36857e-21 -4.17282e-06 6.52726e-22 0)
(1.27883e-05 -1.10267e-06 6.01281e-21 -4.21422e-06 5.81656e-21 0)
(1.22943e-05 -2.9677e-07 -7.24694e-21 -4.21206e-06 -4.7935e-21 0)
(1.18157e-05 2.87061e-07 -6.26091e-21 -4.15081e-06 -4.45775e-21 0)
(1.13598e-05 6.98088e-07 -1.39547e-20 -4.09028e-06 -1.02143e-20 0)
(1.09256e-05 1.00135e-06 -1.99498e-21 -3.98958e-06 -2.44129e-21 0)
(1.05327e-05 1.24811e-06 3.41488e-21 -3.9655e-06 3.0237e-21 0)
(1.63711e-05 -9.53928e-06 4.817e-19 -3.91808e-06 1.05175e-18 -1.22919e-33)
(1.56724e-05 -5.77751e-06 3.46925e-25 -4.34534e-06 1.6926e-26 0)
(1.47471e-05 -3.31208e-06 -1.71758e-20 -4.15388e-06 -8.41781e-21 0)
(1.3897e-05 -1.65277e-06 1.56716e-21 -4.06576e-06 -5.71641e-23 0)
(1.31012e-05 -5.13515e-07 -2.19745e-21 -3.87892e-06 2.21659e-22 0)
(1.2378e-05 2.52122e-07 5.21255e-21 -3.72931e-06 4.81841e-21 0)
(1.17349e-05 7.83789e-07 -5.88433e-22 -3.57593e-06 1.69632e-22 0)
(1.11636e-05 1.14242e-06 5.51065e-21 -3.46182e-06 3.68576e-21 0)
(1.06475e-05 1.38945e-06 -1.17913e-21 -3.33388e-06 -2.5427e-21 0)
(1.01985e-05 1.59058e-06 -2.17771e-21 -3.29528e-06 -1.76075e-21 0)
(1.8993e-05 -8.9789e-06 3.95057e-19 -5.62665e-06 1.10133e-18 -1.43775e-33)
(1.73588e-05 -4.97002e-06 3.17077e-25 -5.10362e-06 6.76577e-26 0)
(1.57382e-05 -2.57485e-06 -1.72813e-25 -4.32839e-06 -2.78015e-26 0)
(1.4396e-05 -9.95525e-07 1.3865e-21 -3.84829e-06 1.72521e-22 0)
(1.32593e-05 4.53682e-08 -7.44181e-21 -3.42174e-06 -4.53155e-21 0)
(1.23056e-05 7.14084e-07 8.5207e-23 -3.12385e-06 -4.36895e-25 0)
(1.15066e-05 1.15629e-06 5.53663e-21 -2.88789e-06 3.75461e-21 0)
(1.08318e-05 1.43865e-06 1.17684e-20 -2.72988e-06 8.61726e-21 0)
(1.02487e-05 1.6155e-06 2.13176e-21 -2.58832e-06 1.56634e-21 0)
(9.75514e-06 1.7598e-06 -3.71993e-21 -2.54145e-06 -2.93387e-21 0)
(2.14e-05 -7.65207e-06 2.86186e-19 -7.16065e-06 9.50534e-19 -3.01206e-33)
(1.88758e-05 -3.74358e-06 4.94728e-21 -5.73786e-06 2.00145e-21 0)
(1.65181e-05 -1.62769e-06 5.26924e-21 -4.34317e-06 2.41637e-21 0)
(1.46826e-05 -2.90494e-07 -1.13787e-21 -3.47075e-06 -3.38784e-22 0)
(1.32252e-05 5.47751e-07 5.37913e-21 -2.83008e-06 3.59988e-21 0)
(1.20696e-05 1.05252e-06 -4.94743e-21 -2.41175e-06 -3.41588e-21 0)
(1.11448e-05 1.36621e-06 1.41271e-21 -2.12192e-06 9.88037e-23 0)
(1.03927e-05 1.55067e-06 -4.41735e-21 -1.94205e-06 -2.90098e-21 0)
(9.76551e-06 1.64876e-06 -3.08147e-22 -1.80616e-06 3.51775e-23 0)
(9.24282e-06 1.73057e-06 -2.23904e-21 -1.76125e-06 -1.46451e-21 0)
(2.36602e-05 -5.59977e-06 1.48441e-19 -8.30829e-06 6.16803e-19 -9.83942e-35)
(2.0087e-05 -2.15451e-06 -1.32849e-20 -5.9619e-06 -4.81651e-21 0)
(1.69982e-05 -5.10183e-07 1.03458e-22 -4.04159e-06 5.72296e-23 0)
(1.47188e-05 4.02464e-07 1.66232e-21 -2.852e-06 8.19238e-22 0)
(1.30092e-05 9.2956e-07 1.22947e-20 -2.0925e-06 6.14945e-21 0)
(1.17113e-05 1.21365e-06 -7.27468e-22 -1.62222e-06 -2.23793e-22 0)
(1.07103e-05 1.37491e-06 1.81082e-26 -1.33225e-06 3.73579e-27 0)
(9.91764e-06 1.45563e-06 -4.32128e-21 -1.16548e-06 -2.28672e-21 0)
(9.27364e-06 1.48087e-06 1.0551e-22 -1.05854e-06 5.43116e-24 0)
(8.73921e-06 1.50616e-06 3.24034e-22 -1.02745e-06 1.60075e-22 0)
(2.55051e-05 -2.5461e-06 2.32014e-21 -9.13091e-06 -8.27719e-20 -1.97215e-34)
(2.06673e-05 -2.09482e-07 -1.46046e-20 -5.48013e-06 -6.01192e-21 0)
(1.6899e-05 5.65662e-07 1.5327e-21 -3.23058e-06 1.33416e-21 0)
(1.43252e-05 8.76053e-07 1.44077e-21 -1.90823e-06 1.07147e-21 0)
(1.25343e-05 1.01894e-06 -6.01959e-22 -1.21956e-06 -3.71775e-22 0)
(1.12197e-05 1.07375e-06 4.78298e-21 -8.19669e-07 1.75628e-21 0)
(1.02288e-05 1.09582e-06 2.62555e-22 -6.06592e-07 8.14521e-23 0)
(9.44942e-06 1.09649e-06 7.71673e-21 -4.95603e-07 2.96277e-21 0)
(8.82044e-06 1.07623e-06 1.70367e-21 -4.37909e-07 6.60644e-22 0)
(8.29144e-06 1.06665e-06 9.53345e-22 -4.28818e-07 3.84024e-22 0)
(2.72901e-05 2.1704e-06 -1.61553e-20 -8.43578e-06 -6.22315e-19 -2.71137e-33)
(2.01581e-05 2.55276e-06 -1.15315e-21 -3.59975e-06 -1.82583e-21 0)
(1.61931e-05 1.55238e-06 5.08051e-21 -1.68927e-06 2.17431e-21 0)
(1.37392e-05 1.07496e-06 2.6045e-22 -7.47051e-07 3.45951e-22 0)
(1.2078e-05 8.19534e-07 9.06132e-27 -3.82843e-07 8.79349e-27 0)
(1.08623e-05 7.15359e-07 4.85363e-21 -1.93731e-07 8.7925e-22 0)
(9.93457e-06 6.65015e-07 7.61568e-23 -1.15546e-07 2.36346e-23 0)
(9.19232e-06 6.43522e-07 3.71848e-21 -8.17799e-08 7.05812e-22 0)
(8.58425e-06 6.21915e-07 -4.16188e-23 -7.11209e-08 -3.36149e-24 0)
(8.05894e-06 6.09034e-07 -6.2626e-23 -7.54012e-08 -1.30725e-23 0)
(-2.73597e-08 2.07086e-08 3.30918e-20 -7.4698e-09 2.84678e-20 1.83454e-34)
(3.14749e-08 -6.7373e-08 -2.77952e-22 -1.15316e-08 2.35269e-20 1.40412e-36)
(3.19087e-07 -2.14768e-07 -3.5494e-21 -1.50571e-07 1.25381e-20 1.76427e-35)
(7.71871e-07 -3.32806e-07 -1.97652e-24 -3.57596e-07 1.63877e-20 0)
(1.29313e-06 -4.05705e-07 -4.75459e-22 -5.87603e-07 1.07138e-20 -1.43356e-36)
(1.83784e-06 -4.47353e-07 -4.86831e-21 -8.24113e-07 1.58172e-20 3.00928e-35)
(2.36988e-06 -4.63862e-07 1.09606e-21 -1.0525e-06 2.15848e-20 1.44218e-36)
(2.87711e-06 -4.65342e-07 -3.23143e-21 -1.26829e-06 1.81833e-20 2.74736e-35)
(3.3426e-06 -4.53056e-07 2.61529e-21 -1.46695e-06 1.79137e-20 -1.09595e-35)
(3.77408e-06 -4.43267e-07 5.01107e-21 -1.64601e-06 8.85027e-21 -1.65198e-35)
(5.42093e-08 -7.28187e-08 3.37626e-20 -2.70318e-08 8.27661e-21 5.35824e-35)
(3.39279e-07 -3.98965e-07 3.92883e-21 -6.00192e-09 4.31107e-21 0)
(8.58254e-07 -7.58719e-07 -3.67695e-21 -2.21882e-07 -3.69425e-21 0)
(1.43487e-06 -1.03369e-06 3.55282e-23 -5.12973e-07 -3.05862e-21 0)
(2.01324e-06 -1.20283e-06 0 -8.03014e-07 0 0)
(2.56164e-06 -1.29774e-06 -5.58012e-21 -1.07633e-06 -8.28645e-22 0)
(3.06705e-06 -1.33198e-06 9.39629e-22 -1.32236e-06 4.8049e-21 0)
(3.53182e-06 -1.32954e-06 7.01667e-23 -1.54263e-06 2.58531e-22 0)
(3.94147e-06 -1.29258e-06 -3.00492e-21 -1.73635e-06 -8.73937e-21 0)
(4.32181e-06 -1.26309e-06 2.20451e-21 -1.90107e-06 3.42365e-22 0)
(8.59281e-08 -3.62544e-07 3.98688e-20 1.03582e-07 7.81629e-21 -2.41973e-36)
(6.31111e-07 -9.97211e-07 4.01796e-21 3.17188e-08 4.25832e-21 0)
(1.36325e-06 -1.44263e-06 4.20273e-21 -3.03751e-07 8.80693e-22 0)
(2.08135e-06 -1.74126e-06 2.16009e-22 -7.19819e-07 -2.94975e-21 0)
(2.7423e-06 -1.90586e-06 0 -1.10328e-06 0 0)
(3.32408e-06 -1.98318e-06 -6.24388e-21 -1.43999e-06 -1.63043e-21 0)
(3.82977e-06 -1.99239e-06 -8.51683e-21 -1.72304e-06 -2.38586e-21 0)
(4.27446e-06 -1.96038e-06 5.63407e-21 -1.96157e-06 3.44656e-21 0)
(4.64414e-06 -1.89079e-06 3.41731e-23 -2.15627e-06 1.10086e-22 0)
(4.98906e-06 -1.83226e-06 -5.0675e-21 -2.31466e-06 -3.20561e-21 0)
(1.34002e-07 -8.16059e-07 7.0106e-20 4.12945e-07 1.55855e-20 -5.43895e-35)
(1.0305e-06 -1.71371e-06 9.89833e-22 7.09287e-08 -3.57562e-21 0)
(1.95998e-06 -2.18202e-06 4.61788e-21 -4.13875e-07 9.03255e-22 0)
(2.80677e-06 -2.44497e-06 0 -9.52927e-07 0 0)
(3.5408e-06 -2.55367e-06 -7.87123e-21 -1.42236e-06 2.93254e-21 0)
(4.15503e-06 -2.57368e-06 9.33856e-23 -1.82e-06 7.26022e-21 0)
(4.6632e-06 -2.52964e-06 -3.90669e-22 -2.14116e-06 -3.90078e-21 0)
(5.09247e-06 -2.44832e-06 -1.12597e-21 -2.40165e-06 -6.02177e-21 0)
(5.42725e-06 -2.3353e-06 2.57093e-21 -2.60297e-06 8.34503e-22 0)
(5.74266e-06 -2.23977e-06 4.79907e-21 -2.76139e-06 1.80068e-21 0)
(2.57417e-07 -1.45662e-06 8.12117e-20 8.43297e-07 3.9048e-20 1.84348e-34)
(1.59203e-06 -2.4934e-06 -8.10425e-21 6.20368e-08 5.43115e-21 0)
(2.71936e-06 -2.91447e-06 -4.91616e-21 -6.25344e-07 -1.44688e-21 0)
(3.67615e-06 -3.08969e-06 -1.32687e-21 -1.29832e-06 5.32062e-21 0)
(4.45879e-06 -3.10105e-06 -5.20753e-23 -1.8459e-06 3.28253e-22 0)
(5.08485e-06 -3.03248e-06 7.5812e-21 -2.2924e-06 -2.03622e-21 0)
(5.58029e-06 -2.91256e-06 3.3024e-21 -2.63974e-06 8.66953e-22 0)
(5.98307e-06 -2.76569e-06 0 -2.91206e-06 0 0)
(6.27632e-06 -2.60064e-06 -3.52553e-21 -3.11213e-06 -4.643e-21 0)
(6.55707e-06 -2.46029e-06 1.40662e-21 -3.26451e-06 3.4129e-22 0)
(5.25334e-07 -2.29729e-06 1.5051e-19 1.32592e-06 6.3876e-20 -3.38591e-34)
(2.33476e-06 -3.28348e-06 3.30535e-21 2.35325e-09 -6.44479e-21 0)
(3.64896e-06 -3.57307e-06 -4.05956e-21 -9.15507e-07 -4.38042e-21 0)
(4.68839e-06 -3.61577e-06 8.92477e-22 -1.71952e-06 -2.47745e-21 0)
(5.4891e-06 -3.5041e-06 8.5879e-21 -2.32924e-06 2.87434e-21 0)
(6.10049e-06 -3.33136e-06 -8.286e-21 -2.8072e-06 9.24594e-22 0)
(6.56257e-06 -3.126e-06 -9.4777e-24 -3.16561e-06 2.20099e-22 0)
(6.92226e-06 -2.90791e-06 -6.45419e-21 -3.43708e-06 -4.44781e-21 0)
(7.16349e-06 -2.6893e-06 1.35347e-23 -3.6278e-06 8.6404e-23 0)
(7.39961e-06 -2.50188e-06 -7.04873e-21 -3.76686e-06 -3.22265e-21 0)
(1.01391e-06 -3.33113e-06 2.7152e-19 1.76157e-06 1.45287e-19 -4.05869e-34)
(3.26373e-06 -4.05292e-06 1.82977e-22 -1.26342e-07 -2.77197e-22 0)
(4.73131e-06 -4.11874e-06 -1.34133e-25 -1.27552e-06 2.29008e-25 0)
(5.81636e-06 -3.98475e-06 -8.77135e-21 -2.19901e-06 -6.1493e-21 0)
(6.60155e-06 -3.72969e-06 -1.49033e-21 -2.853e-06 3.98528e-21 0)
(7.16954e-06 -3.44429e-06 -8.03963e-21 -3.34454e-06 -3.27223e-21 0)
(7.57565e-06 -3.15113e-06 1.44535e-20 -3.69773e-06 6.44409e-21 0)
(7.87344e-06 -2.86294e-06 -1.88802e-24 -3.95487e-06 1.72881e-22 0)
(8.05132e-06 -2.59438e-06 2.84616e-21 -4.12648e-06 -1.3505e-23 0)
(8.23018e-06 -2.3614e-06 -3.85589e-21 -4.24448e-06 -1.83607e-21 0)
(1.79431e-06 -4.51404e-06 4.20418e-19 2.04714e-06 2.63199e-19 -8.76554e-34)
(4.37708e-06 -4.77093e-06 4.71228e-21 -3.37357e-07 -5.6302e-21 0)
(5.93187e-06 -4.52675e-06 -1.82052e-21 -1.67585e-06 2.42522e-21 0)
(7.01319e-06 -4.17668e-06 1.11343e-21 -2.68908e-06 -1.73443e-21 0)
(7.74582e-06 -3.76401e-06 9.93529e-26 -3.3629e-06 -1.94859e-25 0)
(8.24149e-06 -3.3643e-06 9.3333e-21 -3.84853e-06 7.87556e-22 0)
(8.57066e-06 -2.98765e-06 7.03234e-22 -4.18193e-06 -3.04082e-21 0)
(8.78933e-06 -2.63706e-06 -2.36575e-22 -4.41221e-06 2.50268e-21 0)
(8.89584e-06 -2.32714e-06 3.10785e-23 -4.56021e-06 1.24998e-21 0)
(9.00458e-06 -2.05453e-06 2.94582e-21 -4.64875e-06 2.75505e-21 0)
(2.91972e-06 -5.78932e-06 5.42171e-19 2.10732e-06 4.28102e-19 1.24159e-33)
(5.66108e-06 -5.41165e-06 -1.52514e-21 -6.36198e-07 1.03229e-20 0)
(7.21262e-06 -4.78611e-06 -1.76094e-25 -2.09221e-06 1.84501e-25 0)
(8.22999e-06 -4.18996e-06 1.20726e-20 -3.15189e-06 2.83234e-21 0)
(8.86978e-06 -3.61132e-06 9.22047e-21 -3.81545e-06 4.60255e-21 0)
(9.26425e-06 -3.10128e-06 8.3203e-21 -4.27499e-06 4.15434e-21 0)
(9.49647e-06 -2.64925e-06 -9.13378e-22 -4.57275e-06 2.61323e-21 0)
(9.6202e-06 -2.24915e-06 -1.00213e-20 -4.76772e-06 -5.59947e-21 0)
(9.64951e-06 -1.90827e-06 6.15775e-21 -4.88471e-06 1.45623e-21 0)
(9.67971e-06 -1.60349e-06 2.76025e-21 -4.9516e-06 1.64037e-21 0)
(4.41679e-06 -7.04501e-06 6.31209e-19 1.84384e-06 5.84831e-19 1.82014e-34)
(7.10909e-06 -5.94656e-06 -3.05889e-21 -1.05161e-06 2.25299e-21 0)
(8.54059e-06 -4.8991e-06 -5.92705e-21 -2.51178e-06 -2.76115e-21 0)
(9.41965e-06 -4.03943e-06 2.5694e-20 -3.55392e-06 6.0149e-21 0)
(9.92149e-06 -3.29384e-06 1.5762e-22 -4.16916e-06 -1.78714e-22 0)
(1.01845e-05 -2.6805e-06 -8.18435e-21 -4.57821e-06 -4.64553e-21 0)
(1.03006e-05 -2.16409e-06 -8.77729e-21 -4.82637e-06 -1.38115e-21 0)
(1.03151e-05 -1.72877e-06 -3.30508e-21 -4.97138e-06 -1.97649e-21 0)
(1.02705e-05 -1.37565e-06 3.74414e-22 -5.06523e-06 -2.73672e-21 0)
(1.01963e-05 -1.06933e-06 1.64729e-21 -5.07356e-06 3.46058e-21 0)
(4.16261e-06 -4.11031e-07 3.90681e-21 -1.81258e-06 5.40669e-21 -4.65424e-37)
(4.50113e-06 -3.66565e-07 2.84519e-21 -1.9514e-06 -4.42357e-21 7.53046e-36)
(4.81207e-06 -3.27922e-07 -2.93808e-21 -2.08021e-06 -1.65846e-20 8.98518e-36)
(5.09165e-06 -2.92843e-07 -2.00046e-21 -2.19675e-06 -1.78863e-20 5.76006e-37)
(5.34384e-06 -2.60328e-07 -5.14389e-21 -2.30159e-06 -2.18318e-20 -4.39685e-35)
(5.5698e-06 -2.31219e-07 -8.04571e-22 -2.39607e-06 -2.43668e-20 0)
(5.77235e-06 -2.0453e-07 -8.7184e-22 -2.48061e-06 -2.79791e-20 0)
(5.95287e-06 -1.80464e-07 7.44445e-22 -2.55624e-06 -2.91609e-20 -8.7884e-37)
(6.11351e-06 -1.58404e-07 5.41038e-22 -2.62355e-06 -3.35177e-20 2.51043e-35)
(6.25546e-06 -1.38202e-07 2.55211e-21 -2.6832e-06 -3.24751e-20 -1.75127e-36)
(6.38017e-06 -1.19416e-07 3.55177e-21 -2.73568e-06 -3.71317e-20 8.6796e-35)
(6.4885e-06 -1.01778e-07 -2.37584e-21 -2.7814e-06 -4.13341e-20 -3.05425e-35)
(6.58123e-06 -8.49398e-08 3.6997e-21 -2.82067e-06 -4.06904e-20 9.58812e-35)
(6.65883e-06 -6.86548e-08 -6.32892e-21 -2.8537e-06 -5.02316e-20 1.98939e-36)
(6.72152e-06 -5.27162e-08 -3.59527e-22 -2.88058e-06 -4.33552e-20 -3.48065e-35)
(6.76965e-06 -3.71017e-08 -6.14745e-22 -2.90143e-06 -4.58009e-20 8.40171e-45)
(6.80306e-06 -2.20358e-08 -2.41998e-21 -2.91619e-06 -4.86141e-20 3.842e-37)
(6.82301e-06 -8.37163e-09 1.46784e-21 -2.92508e-06 -4.45393e-20 -2.77906e-37)
(6.8294e-06 2.09245e-09 6.04676e-22 -2.92779e-06 -4.96399e-20 1.09844e-34)
(6.8272e-06 4.55552e-09 -1.10184e-19 -2.92386e-06 -5.50278e-20 2.62872e-34)
(4.63466e-06 -1.17591e-06 5.3912e-21 -2.04959e-06 6.63286e-21 0)
(4.88559e-06 -1.05816e-06 3.49661e-21 -2.15564e-06 9.5796e-22 0)
(5.12554e-06 -9.5449e-07 2.63385e-22 -2.25332e-06 -1.51619e-21 0)
(5.34073e-06 -8.57767e-07 7.94014e-21 -2.34297e-06 7.16296e-21 0)
(5.53887e-06 -7.67153e-07 -1.52658e-21 -2.42296e-06 -3.60295e-22 0)
(5.71772e-06 -6.85283e-07 -6.474e-21 -2.49638e-06 -6.56714e-21 0)
(5.88056e-06 -6.09512e-07 3.3032e-21 -2.56227e-06 1.22161e-21 0)
(6.02717e-06 -5.40711e-07 0 -2.62215e-06 0 0)
(6.15946e-06 -4.7724e-07 1.57414e-21 -2.676e-06 5.57079e-22 0)
(6.27781e-06 -4.18854e-07 3.2364e-21 -2.72454e-06 1.24642e-21 0)
(6.38342e-06 -3.64433e-07 9.70527e-21 -2.76797e-06 5.01301e-21 0)
(6.47676e-06 -3.13348e-07 4.37648e-23 -2.80666e-06 5.01026e-23 0)
(6.55855e-06 -2.64757e-07 1.26183e-21 -2.84077e-06 -9.80496e-22 0)
(6.62921e-06 -2.18078e-07 1.85088e-21 -2.87039e-06 2.12018e-21 0)
(6.68903e-06 -1.7285e-07 1.89879e-21 -2.89546e-06 2.18066e-21 0)
(6.73837e-06 -1.29058e-07 -1.88096e-21 -2.91572e-06 -2.17112e-21 0)
(6.77693e-06 -8.72236e-08 -1.8916e-21 -2.93047e-06 -2.19564e-21 0)
(6.80517e-06 -4.91676e-08 -3.79877e-21 -2.93853e-06 -4.43505e-21 0)
(6.82087e-06 -1.76448e-08 -2.87466e-23 -2.93711e-06 -3.14989e-23 0)
(6.82475e-06 -9.06829e-10 -1.02145e-19 -2.92175e-06 1.86088e-21 -2.24323e-34)
(5.22992e-06 -1.7017e-06 1.47494e-21 -2.43698e-06 2.01946e-21 0)
(5.38776e-06 -1.54131e-06 2.01246e-21 -2.50001e-06 7.18139e-22 0)
(5.55129e-06 -1.39748e-06 -4.67529e-21 -2.55296e-06 -5.89461e-21 0)
(5.69457e-06 -1.26395e-06 -4.19661e-22 -2.6032e-06 1.07674e-21 0)
(5.83189e-06 -1.13677e-06 8.53031e-21 -2.64606e-06 7.10798e-21 0)
(5.95632e-06 -1.02134e-06 -6.77579e-21 -2.6871e-06 -6.4757e-21 0)
(6.07291e-06 -9.13359e-07 -1.8036e-21 -2.72406e-06 -2.0916e-21 0)
(6.17923e-06 -8.14724e-07 3.44711e-21 -2.75894e-06 3.92599e-21 0)
(6.27749e-06 -7.23165e-07 1.74214e-23 -2.79124e-06 -2.54971e-21 0)
(6.36698e-06 -6.38649e-07 -3.64743e-21 -2.82159e-06 -4.10698e-21 0)
(6.44875e-06 -5.59783e-07 3.49505e-21 -2.84996e-06 3.92123e-21 0)
(6.52278e-06 -4.85887e-07 5.4006e-21 -2.87653e-06 6.06247e-21 0)
(6.58958e-06 -4.15944e-07 4.13233e-23 -2.90124e-06 4.5604e-23 0)
(6.64932e-06 -3.49249e-07 -1.84913e-21 -2.92396e-06 -2.08767e-21 0)
(6.70207e-06 -2.85179e-07 1.83049e-21 -2.94425e-06 2.07909e-21 0)
(6.74786e-06 -2.23498e-07 2.69843e-28 -2.9613e-06 3.00889e-28 0)
(6.78573e-06 -1.64352e-07 -1.88588e-21 -2.97346e-06 -2.16889e-21 0)
(6.8152e-06 -1.08678e-07 2.53963e-22 -2.97809e-06 1.56701e-21 0)
(6.8315e-06 -5.81978e-08 -6.20845e-21 -2.96965e-06 -7.96558e-22 0)
(6.83423e-06 -1.51834e-08 -1.01024e-19 -2.94194e-06 -1.43522e-21 -1.66789e-37)
(5.91273e-06 -2.0727e-06 0 -2.85994e-06 0 0)
(5.97409e-06 -1.889e-06 2.15128e-21 -2.8834e-06 7.83768e-22 0)
(6.06014e-06 -1.71964e-06 1.68378e-21 -2.89395e-06 1.9268e-21 0)
(6.1283e-06 -1.56517e-06 1.84793e-21 -2.90729e-06 2.14243e-21 0)
(6.20166e-06 -1.41485e-06 0 -2.91379e-06 0 0)
(6.26747e-06 -1.27841e-06 2.50421e-22 -2.92253e-06 -1.08211e-21 0)
(6.33371e-06 -1.14919e-06 -5.53193e-21 -2.92992e-06 -3.39901e-21 0)
(6.39535e-06 -1.03059e-06 -3.52953e-21 -2.93865e-06 -3.84095e-21 0)
(6.45532e-06 -9.19751e-07 -1.98505e-21 -2.94789e-06 -9.16277e-22 0)
(6.51172e-06 -8.17047e-07 -1.32254e-23 -2.95825e-06 2.45749e-21 0)
(6.56555e-06 -7.20967e-07 -1.7473e-21 -2.96954e-06 5.40905e-22 0)
(6.61618e-06 -6.30899e-07 3.65313e-21 -2.98177e-06 1.5665e-21 0)
(6.66385e-06 -5.45766e-07 3.46934e-21 -2.99468e-06 1.70371e-22 0)
(6.70835e-06 -4.64777e-07 8.31788e-23 -3.0079e-06 1.31376e-21 0)
(6.74936e-06 -3.87143e-07 1.48302e-22 -3.02067e-06 1.39266e-21 0)
(6.78652e-06 -3.12272e-07 -1.8646e-21 -3.03178e-06 -2.10086e-21 0)
(6.81819e-06 -2.39778e-07 -3.98232e-28 -3.03905e-06 -4.4892e-28 0)
(6.8435e-06 -1.69191e-07 3.97468e-21 -3.03934e-06 5.84059e-21 0)
(6.85635e-06 -1.01129e-07 -2.00673e-22 -3.02644e-06 -1.53632e-21 0)
(6.85695e-06 -3.06675e-08 -1.09576e-19 -2.99399e-06 -9.76533e-21 3.21066e-34)
(6.65336e-06 -2.26478e-06 1.63985e-22 -3.33273e-06 2.69118e-21 0)
(6.61465e-06 -2.08032e-06 -2.33741e-21 -3.31566e-06 -1.02161e-21 0)
(6.62282e-06 -1.90049e-06 -5.87777e-21 -3.28027e-06 -4.79472e-21 0)
(6.61384e-06 -1.74213e-06 3.86995e-21 -3.25514e-06 2.63638e-21 0)
(6.62216e-06 -1.58307e-06 1.00713e-20 -3.22301e-06 6.6203e-21 0)
(6.62711e-06 -1.43933e-06 -1.84977e-21 -3.19694e-06 -1.93641e-21 0)
(6.64081e-06 -1.30111e-06 0 -3.17212e-06 0 0)
(6.65507e-06 -1.17356e-06 1.80143e-21 -3.15176e-06 1.87758e-21 0)
(6.67391e-06 -1.05337e-06 -5.80011e-21 -3.13505e-06 -2.47796e-21 0)
(6.69419e-06 -9.41397e-07 -3.76188e-21 -3.1225e-06 -2.775e-21 0)
(6.71692e-06 -8.36221e-07 2.1248e-22 -3.11391e-06 -2.14403e-21 0)
(6.74087e-06 -7.37368e-07 -1.89423e-21 -3.10912e-06 -3.21027e-21 0)
(6.76603e-06 -6.43813e-07 -1.96177e-22 -3.10778e-06 3.37306e-21 0)
(6.79179e-06 -5.54694e-07 3.70349e-21 -3.1093e-06 5.23054e-21 0)
(6.81751e-06 -4.69057e-07 1.80507e-21 -3.11275e-06 7.69167e-22 0)
(6.84247e-06 -3.85836e-07 -6.66666e-23 -3.11671e-06 -1.30467e-21 0)
(6.8647e-06 -3.04075e-07 3.49919e-21 -3.11882e-06 1.43835e-21 0)
(6.88311e-06 -2.21747e-07 1.72109e-21 -3.11594e-06 6.903e-22 0)
(6.89151e-06 -1.3879e-07 7.06085e-21 -3.1022e-06 5.57926e-21 0)
(6.89048e-06 -4.42651e-08 -9.61487e-20 -3.0718e-06 3.71252e-21 -3.14678e-34)
(7.41964e-06 -2.28794e-06 1.37768e-21 -3.80212e-06 1.89547e-21 0)
(7.27997e-06 -2.12646e-06 3.31559e-23 -3.75052e-06 7.28065e-23 0)
(7.21267e-06 -1.95056e-06 -4.2495e-21 -3.67187e-06 -2.94757e-21 0)
(7.12667e-06 -1.80391e-06 -1.0205e-20 -3.6113e-06 -7.64463e-21 0)
(7.07115e-06 -1.64905e-06 3.98701e-21 -3.54345e-06 2.71852e-21 0)
(7.0153e-06 -1.50966e-06 3.75201e-21 -3.48429e-06 3.73049e-21 0)
(6.97631e-06 -1.37314e-06 -1.83831e-21 -3.42885e-06 -1.83057e-21 0)
(6.94255e-06 -1.24611e-06 -2.95993e-22 -3.38013e-06 8.21502e-22 0)
(6.91908e-06 -1.1253e-06 8.06786e-21 -3.3377e-06 4.808e-21 0)
(6.9017e-06 -1.01186e-06 -5.39083e-21 -3.30188e-06 -5.50862e-21 0)
(6.89136e-06 -9.04667e-07 -1.91755e-21 -3.27259e-06 -1.98396e-21 0)
(6.8864e-06 -8.03385e-07 5.21041e-21 -3.24964e-06 7.73568e-21 0)
(6.88656e-06 -7.07148e-07 -7.62133e-21 -3.23268e-06 -2.26666e-21 0)
(6.89094e-06 -6.15068e-07 -5.42743e-21 -3.22113e-06 -5.80692e-21 0)
(6.89869e-06 -5.261e-07 1.46742e-23 -3.21408e-06 -1.17357e-21 0)
(6.90889e-06 -4.38776e-07 -7.31599e-21 -3.2102e-06 -5.60122e-21 0)
(6.91958e-06 -3.51695e-07 -5.32466e-23 -3.20739e-06 -5.01086e-23 0)
(6.92961e-06 -2.61493e-07 7.18916e-21 -3.20296e-06 6.87814e-21 0)
(6.93384e-06 -1.67726e-07 1.11641e-22 -3.19222e-06 1.42024e-21 0)
(6.93248e-06 -5.48328e-08 -9.59822e-20 -3.17022e-06 -1.19931e-21 2.24848e-36)
(8.17445e-06 -2.14213e-06 -1.44357e-21 -4.24395e-06 -1.85454e-21 0)
(7.93824e-06 -2.02935e-06 1.99526e-21 -4.16725e-06 1.82354e-21 0)
(7.80278e-06 -1.87239e-06 2.46379e-21 -4.05269e-06 1.28727e-21 0)
(7.64343e-06 -1.75224e-06 -1.94665e-21 -3.96092e-06 -1.82776e-21 0)
(7.52783e-06 -1.61542e-06 -4.61336e-21 -3.86234e-06 -2.30445e-21 0)
(7.41367e-06 -1.4915e-06 2.25223e-21 -3.77215e-06 1.12003e-21 0)
(7.32321e-06 -1.36714e-06 6.37366e-21 -3.68772e-06 4.10318e-21 0)
(7.24233e-06 -1.24923e-06 -1.02544e-20 -3.61127e-06 -6.8891e-21 0)
(7.17662e-06 -1.13556e-06 -6.32534e-21 -3.54338e-06 -4.1688e-21 0)
(7.1214e-06 -1.0274e-06 9.92787e-21 -3.48424e-06 6.72671e-21 0)
(7.07733e-06 -9.24308e-07 -4.04991e-21 -3.43405e-06 -1.93633e-21 0)
(7.04255e-06 -8.26137e-07 5.36288e-21 -3.39261e-06 5.50091e-21 0)
(7.01651e-06 -7.32309e-07 5.77707e-21 -3.35966e-06 3.76529e-21 0)
(6.99811e-06 -6.41986e-07 -3.36897e-21 -3.33469e-06 -4.69936e-21 0)
(6.98644e-06 -5.54111e-07 -2.20374e-21 -3.31696e-06 1.14451e-21 0)
(6.98044e-06 -4.66929e-07 1.04236e-22 -3.30541e-06 9.62478e-23 0)
(6.97855e-06 -3.78737e-07 -8.91368e-21 -3.29847e-06 -7.42242e-21 0)
(6.9795e-06 -2.85189e-07 1.76937e-21 -3.29416e-06 1.9901e-21 0)
(6.98005e-06 -1.85668e-07 3.50911e-21 -3.2894e-06 2.74654e-21 0)
(6.97933e-06 -6.15905e-08 -9.68095e-20 -3.28046e-06 -1.90128e-21 9.0753e-37)
(8.87846e-06 -1.83811e-06 1.72488e-23 -4.61956e-06 5.91005e-23 0)
(8.55694e-06 -1.79911e-06 -2.06283e-21 -4.53007e-06 -1.8165e-21 0)
(8.36481e-06 -1.67732e-06 4.43687e-22 -4.3947e-06 -4.82098e-22 0)
(8.14011e-06 -1.59362e-06 0 -4.27722e-06 0 0)
(7.97049e-06 -1.48718e-06 0 -4.15742e-06 0 0)
(7.80475e-06 -1.38739e-06 -6.17814e-21 -4.04324e-06 -4.84153e-21 0)
(7.66682e-06 -1.2848e-06 5.49586e-21 -3.93616e-06 5.13141e-21 0)
(7.54247e-06 -1.18436e-06 1.15878e-20 -3.8367e-06 1.01169e-20 0)
(7.43643e-06 -1.08569e-06 -8.76442e-21 -3.74645e-06 -8.42856e-21 0)
(7.3446e-06 -9.8977e-07 -7.67856e-21 -3.66582e-06 -6.5452e-21 0)
(7.26717e-06 -8.96916e-07 3.54052e-21 -3.59545e-06 3.52576e-21 0)
(7.20242e-06 -8.07232e-07 -3.47579e-22 -3.53551e-06 6.99569e-22 0)
(7.14965e-06 -7.20545e-07 6.06263e-21 -3.4861e-06 2.99525e-21 0)
(7.10773e-06 -6.36228e-07 9.44133e-21 -3.44705e-06 6.53338e-21 0)
(7.07579e-06 -5.5337e-07 1.28836e-22 -3.41802e-06 1.17837e-22 0)
(7.05278e-06 -4.70153e-07 4.30137e-21 -3.39844e-06 -1.17973e-21 0)
(7.03774e-06 -3.84779e-07 0 -3.38753e-06 0 0)
(7.02933e-06 -2.92361e-07 -3.61796e-21 -3.38421e-06 -1.59652e-21 0)
(7.02678e-06 -1.92259e-07 1.74071e-21 -3.38734e-06 7.35897e-22 0)
(7.0276e-06 -6.43661e-08 -9.25508e-20 -3.39459e-06 -4.46351e-22 2.37255e-36)
(9.5018e-06 -1.40522e-06 -1.34794e-23 -4.90175e-06 -5.16867e-23 0)
(9.10708e-06 -1.45354e-06 2.56179e-21 -4.80822e-06 1.53111e-21 0)
(8.87528e-06 -1.39203e-06 -2.54794e-21 -4.68326e-06 -1.55201e-21 0)
(8.60007e-06 -1.3519e-06 -2.50774e-21 -4.54991e-06 -1.51157e-21 0)
(8.38166e-06 -1.28857e-06 6.88413e-21 -4.41651e-06 4.69823e-21 0)
(8.17191e-06 -1.21888e-06 4.90492e-21 -4.28263e-06 2.92871e-21 0)
(7.99059e-06 -1.14301e-06 -6.51406e-21 -4.1556e-06 -4.36189e-21 0)
(7.82734e-06 -1.06382e-06 8.68005e-22 -4.0362e-06 -9.19046e-22 0)
(7.68456e-06 -9.83494e-07 1.47836e-21 -3.92656e-06 1.37278e-21 0)
(7.55922e-06 -9.03237e-07 -8.0539e-22 -3.82751e-06 1.08347e-21 0)
(7.45082e-06 -8.2408e-07 -6.61529e-21 -3.73981e-06 -3.62711e-21 0)
(7.35788e-06 -7.46461e-07 5.91688e-23 -3.66392e-06 5.71502e-23 0)
(7.27956e-06 -6.70516e-07 -3.02287e-21 -3.60016e-06 -4.12217e-21 0)
(7.2148e-06 -5.95845e-07 -1.02183e-22 -3.54872e-06 -9.3569e-23 0)
(7.16293e-06 -5.21699e-07 3.86459e-21 -3.50973e-06 1.88086e-21 0)
(7.12296e-06 -4.46341e-07 -7.70489e-23 -3.48317e-06 -6.73932e-23 0)
(7.09481e-06 -3.68002e-07 4.70701e-21 -3.46922e-06 6.32336e-21 0)
(7.077e-06 -2.81687e-07 -1.77938e-21 -3.46783e-06 -7.95483e-22 0)
(7.07162e-06 -1.86733e-07 -8.33143e-21 -3.4799e-06 -8.25321e-21 0)
(7.07421e-06 -6.29263e-08 -1.01781e-19 -3.50482e-06 -6.90923e-21 1.76499e-34)
(9.99875e-06 -8.49502e-07 -3.26836e-22 -5.08624e-06 -1.64702e-22 0)
(9.58942e-06 -9.56084e-07 -2.74739e-21 -4.97164e-06 -1.61927e-21 0)
(9.32431e-06 -9.80757e-07 2.22945e-21 -4.88508e-06 1.75167e-21 0)
(9.02957e-06 -9.90454e-07 -5.83341e-21 -4.76344e-06 -5.3184e-21 0)
(8.77154e-06 -9.85151e-07 -6.00278e-21 -4.63701e-06 -4.99514e-21 0)
(8.52771e-06 -9.6241e-07 3.55011e-21 -4.50174e-06 3.67234e-21 0)
(8.30729e-06 -9.27536e-07 3.08496e-21 -4.36559e-06 3.68611e-21 0)
(8.1073e-06 -8.82534e-07 5.38018e-21 -4.23273e-06 4.8552e-21 0)
(7.92876e-06 -8.30535e-07 -6.31456e-21 -4.10659e-06 -4.71775e-21 0)
(7.77018e-06 -7.73867e-07 1.53117e-23 -3.9898e-06 1.29624e-22 0)
(7.63094e-06 -7.14407e-07 -7.599e-23 -3.8841e-06 -3.86439e-22 0)
(7.50979e-06 -6.53494e-07 -4.93652e-21 -3.79084e-06 -4.83212e-21 0)
(7.40588e-06 -5.91929e-07 0 -3.71098e-06 0 0)
(7.31816e-06 -5.29903e-07 -4.47788e-21 -3.64529e-06 -1.45258e-21 0)
(7.24615e-06 -4.6711e-07 -2.07992e-23 -3.59451e-06 -8.92569e-23 0)
(7.18891e-06 -4.02205e-07 -5.77966e-21 -3.55935e-06 -2.81221e-21 0)
(7.14723e-06 -3.33685e-07 1.58173e-21 -3.54099e-06 1.67094e-21 0)
(7.11961e-06 -2.56928e-07 3.64531e-21 -3.54053e-06 1.66653e-21 0)
(7.11118e-06 -1.71338e-07 4.53583e-23 -3.56112e-06 -3.74277e-24 0)
(7.11575e-06 -5.79166e-08 -9.93241e-20 -3.60396e-06 -3.06911e-21 7.37391e-37)
(1.0243e-05 -3.90839e-07 2.82477e-21 -5.10328e-06 2.48717e-21 0)
(9.86968e-06 -4.47516e-07 -2.61498e-21 -5.00677e-06 -1.64373e-21 0)
(9.58276e-06 -5.52833e-07 -1.51408e-21 -4.94575e-06 -1.25769e-21 0)
(9.29001e-06 -6.025e-07 2.51254e-21 -4.84685e-06 1.53572e-21 0)
(9.01891e-06 -6.37432e-07 -4.9681e-21 -4.73112e-06 -2.25573e-21 0)
(8.7617e-06 -6.53006e-07 -3.35014e-21 -4.60433e-06 -1.58122e-21 0)
(8.52453e-06 -6.53329e-07 -4.17383e-21 -4.4717e-06 -3.0302e-21 0)
(8.30588e-06 -6.41074e-07 5.04601e-22 -4.33886e-06 -3.50692e-22 0)
(8.10756e-06 -6.18653e-07 8.4386e-21 -4.20978e-06 5.3797e-21 0)
(7.92874e-06 -5.886e-07 -2.89966e-22 -4.08781e-06 -3.1231e-22 0)
(7.76945e-06 -5.5288e-07 4.51094e-21 -3.97546e-06 2.55442e-21 0)
(7.62888e-06 -5.13143e-07 -2.22311e-22 -3.87472e-06 -2.52308e-22 0)
(7.50657e-06 -4.70523e-07 1.64696e-35 -3.78717e-06 1.67497e-35 0)
(7.40177e-06 -4.2561e-07 -1.9834e-21 -3.71419e-06 -9.87667e-22 0)
(7.31441e-06 -3.78493e-07 1.93891e-21 -3.65719e-06 9.43515e-22 0)
(7.24376e-06 -3.28358e-07 -8.69083e-23 -3.61758e-06 -1.25817e-22 0)
(7.19148e-06 -2.74142e-07 3.10114e-22 -3.59754e-06 -8.19014e-22 0)
(7.15601e-06 -2.12253e-07 1.74767e-23 -3.59914e-06 5.84105e-23 0)
(7.14489e-06 -1.42272e-07 -1.79837e-23 -3.62743e-06 2.32959e-23 0)
(7.15044e-06 -4.80534e-08 -9.5484e-20 -3.68536e-06 -5.17672e-22 -8.49831e-37)
(1.00413e-05 5.98907e-08 2.62449e-21 -4.91876e-06 2.07618e-21 0)
(9.79198e-06 -5.54991e-09 0 -4.9451e-06 0 0)
(9.53217e-06 -1.34351e-07 -2.04635e-21 -4.89791e-06 -1.80463e-21 0)
(9.27249e-06 -2.18705e-07 2.67557e-35 -4.82265e-06 2.16738e-35 0)
(9.0249e-06 -2.85116e-07 6.13355e-36 -4.72348e-06 4.45025e-36 0)
(8.78588e-06 -3.3215e-07 2.9086e-35 -4.61044e-06 2.1637e-35 0)
(8.5616e-06 -3.62514e-07 4.46054e-35 -4.48879e-06 3.60663e-35 0)
(8.35122e-06 -3.78938e-07 -1.79282e-21 -4.36428e-06 -1.68227e-21 0)
(8.1573e-06 -3.83586e-07 0 -4.24114e-06 0 0)
(7.97972e-06 -3.78863e-07 1.71307e-21 -4.12306e-06 1.66228e-21 0)
(7.81926e-06 -3.66667e-07 -2.44821e-36 -4.01291e-06 -4.12717e-36 0)
(7.67572e-06 -3.48688e-07 -1.64781e-21 -3.91308e-06 -1.6557e-21 0)
(7.54925e-06 -3.26151e-07 1.62066e-21 -3.82559e-06 1.65664e-21 0)
(7.4396e-06 -2.99879e-07 2.3293e-35 -3.75223e-06 1.69717e-35 0)
(7.34723e-06 -2.7019e-07 -1.57729e-21 -3.69491e-06 -1.66603e-21 0)
(7.27187e-06 -2.36828e-07 -1.39878e-35 -3.65556e-06 -1.29452e-35 0)
(7.21584e-06 -1.9905e-07 1.54908e-21 -3.63705e-06 1.68574e-21 0)
(7.17787e-06 -1.54606e-07 1.54093e-21 -3.64208e-06 1.70043e-21 0)
(7.16729e-06 -1.0354e-07 -1.6643e-35 -3.67723e-06 -1.45242e-35 0)
(7.17541e-06 -3.4591e-08 -9.49977e-20 -3.74591e-06 -1.47476e-35 5.604e-49)