/*--------------------------------*- C++ -*----------------------------------*\
  =========                 |
  \\      /  F ield         | OpenFOAM: The Open Source CFD Toolbox
   \\    /   O peration     | Website:  https://openfoam.org
    \\  /    A nd           | Version:  9
     \\/     M anipulation  |
\*---------------------------------------------------------------------------*/
FoamFile
{
    format      ascii;
    class       volScalarField;
    location    "15";
    object      epsilonEq;
}
// * * * * * * * * * * * * * * * * * * * * * * * * * * * * * * * * * * * * * //

dimensions      [0 0 0 0 0 0 0];

internalField   nonuniform List<scalar> 
1000
(
1.02548e-05
9.7161e-06
9.56576e-06
9.64225e-06
9.6495e-06
9.62903e-06
9.56186e-06
9.4597e-06
9.346e-06
9.20364e-06
1.20376e-05
1.0858e-05
1.03027e-05
1.0142e-05
9.99206e-06
9.86566e-06
9.7198e-06
9.56461e-06
9.3896e-06
9.23456e-06
1.35984e-05
1.19296e-05
1.09657e-05
1.05334e-05
1.02061e-05
9.95342e-06
9.7164e-06
9.49443e-06
9.26228e-06
9.07579e-06
1.50643e-05
1.29246e-05
1.15567e-05
1.08297e-05
1.0303e-05
9.90937e-06
9.57153e-06
9.27849e-06
8.99093e-06
8.77126e-06
1.66066e-05
1.38684e-05
1.20904e-05
1.10424e-05
1.02912e-05
9.74049e-06
9.29281e-06
8.92369e-06
8.58355e-06
8.32839e-06
1.8149e-05
1.47584e-05
1.2551e-05
1.1164e-05
1.01739e-05
9.45531e-06
8.89397e-06
8.44748e-06
8.05788e-06
7.76616e-06
1.93004e-05
1.54857e-05
1.28478e-05
1.11323e-05
9.91615e-06
9.04126e-06
8.37876e-06
7.8649e-06
7.43627e-06
7.11166e-06
2.02153e-05
1.59543e-05
1.29057e-05
1.08983e-05
9.50867e-06
8.51671e-06
7.78678e-06
7.23059e-06
6.78287e-06
6.4365e-06
2.09361e-05
1.59243e-05
1.25001e-05
1.02955e-05
8.86937e-06
7.8658e-06
7.1431e-06
6.59384e-06
6.15826e-06
5.80806e-06
2.17077e-05
1.50764e-05
1.15404e-05
9.49979e-06
8.23712e-06
7.35349e-06
6.70601e-06
6.20034e-06
5.79138e-06
5.44355e-06
2.8956e-08
8.19321e-08
3.71729e-07
7.69403e-07
1.20575e-06
1.6562e-06
2.09379e-06
2.51086e-06
2.89399e-06
3.24925e-06
9.67068e-08
5.14113e-07
1.0961e-06
1.66848e-06
2.17614e-06
2.62721e-06
3.02094e-06
3.37341e-06
3.67612e-06
3.9606e-06
4.23492e-07
1.22249e-06
1.956e-06
2.61995e-06
3.17349e-06
3.63371e-06
4.00798e-06
4.32218e-06
4.56834e-06
4.80129e-06
9.73197e-07
2.08745e-06
2.91415e-06
3.61443e-06
4.17188e-06
4.6193e-06
4.96709e-06
5.24571e-06
5.44543e-06
5.63761e-06
1.75443e-06
3.06165e-06
3.9423e-06
4.64811e-06
5.17979e-06
5.59187e-06
5.89867e-06
6.1336e-06
6.28579e-06
6.43659e-06
2.76245e-06
4.0982e-06
4.9797e-06
5.66552e-06
6.15277e-06
6.51547e-06
6.77179e-06
6.95673e-06
7.06041e-06
7.16767e-06
3.97963e-06
5.1794e-06
5.99774e-06
6.63629e-06
7.06434e-06
7.36829e-06
7.56792e-06
7.69877e-06
7.75364e-06
7.81488e-06
5.36932e-06
6.29054e-06
6.97332e-06
7.53095e-06
7.88412e-06
8.12148e-06
8.26142e-06
8.33633e-06
8.34653e-06
8.35907e-06
6.9077e-06
7.42105e-06
7.89402e-06
8.33399e-06
8.59451e-06
8.75748e-06
8.83361e-06
8.85242e-06
8.82e-06
8.79037e-06
8.52866e-06
8.56883e-06
8.76118e-06
9.03788e-06
9.18284e-06
9.25839e-06
9.26547e-06
9.22227e-06
9.16124e-06
9.06438e-06
3.56929e-06
3.84446e-06
4.09965e-06
4.33041e-06
4.53904e-06
4.72675e-06
4.89526e-06
5.04582e-06
5.17998e-06
5.29873e-06
5.40318e-06
5.49404e-06
5.57191e-06
5.63718e-06
5.69002e-06
5.73071e-06
5.7591e-06
5.7761e-06
5.78149e-06
5.77817e-06
4.18082e-06
4.34135e-06
4.50339e-06
4.65395e-06
4.79517e-06
4.92642e-06
5.0477e-06
5.15897e-06
5.26059e-06
5.35265e-06
5.43557e-06
5.50952e-06
5.57479e-06
5.63152e-06
5.67976e-06
5.71953e-06
5.75025e-06
5.77157e-06
5.78064e-06
5.77558e-06
4.93169e-06
4.98328e-06
5.04933e-06
5.11301e-06
5.17776e-06
5.24226e-06
5.30603e-06
5.36797e-06
5.42786e-06
5.48486e-06
5.53885e-06
5.58937e-06
5.63626e-06
5.67925e-06
5.71792e-06
5.75172e-06
5.77911e-06
5.79838e-06
5.80366e-06
5.7915e-06
5.69358e-06
5.65427e-06
5.63756e-06
5.62433e-06
5.61848e-06
5.61911e-06
5.62611e-06
5.63782e-06
5.65405e-06
5.67332e-06
5.69525e-06
5.71885e-06
5.74359e-06
5.76871e-06
5.79331e-06
5.81631e-06
5.8354e-06
5.84833e-06
5.84807e-06
5.83149e-06
6.42688e-06
6.31268e-06
6.22476e-06
6.14538e-06
6.07737e-06
6.01999e-06
5.97427e-06
5.93785e-06
5.91125e-06
5.8925e-06
5.88131e-06
5.87633e-06
5.87682e-06
5.88169e-06
5.88969e-06
5.89938e-06
5.90812e-06
5.91349e-06
5.90868e-06
5.89112e-06
7.09997e-06
6.92607e-06
6.77916e-06
6.64429e-06
6.5242e-06
6.41648e-06
6.32466e-06
6.24498e-06
6.17906e-06
6.12449e-06
6.08125e-06
6.04786e-06
6.02356e-06
6.00712e-06
5.99724e-06
5.99239e-06
5.9901e-06
5.9881e-06
5.98097e-06
5.96643e-06
7.69677e-06
7.47789e-06
7.28613e-06
7.10546e-06
6.94389e-06
6.79316e-06
6.6614e-06
6.54314e-06
6.44144e-06
6.35378e-06
6.28042e-06
6.21995e-06
6.17164e-06
6.1343e-06
6.10673e-06
6.0875e-06
6.07468e-06
6.06632e-06
6.05915e-06
6.05087e-06
8.20075e-06
7.95031e-06
7.73116e-06
7.51271e-06
7.32073e-06
7.13654e-06
6.97307e-06
6.82334e-06
6.69105e-06
6.57417e-06
6.47323e-06
6.38728e-06
6.31585e-06
6.25804e-06
6.21302e-06
6.17963e-06
6.15683e-06
6.14309e-06
6.13778e-06
6.13835e-06
8.61035e-06
8.3316e-06
8.1126e-06
7.86767e-06
7.65235e-06
7.44089e-06
7.24933e-06
7.07251e-06
6.91362e-06
6.77158e-06
6.64673e-06
6.53854e-06
6.44669e-06
6.3706e-06
6.30986e-06
6.26373e-06
6.23223e-06
6.2143e-06
6.2122e-06
6.22304e-06
8.91605e-06
8.61759e-06
8.41276e-06
8.16982e-06
7.94501e-06
7.72171e-06
7.51049e-06
7.312e-06
7.12924e-06
6.96315e-06
6.81462e-06
6.68388e-06
6.57107e-06
6.47603e-06
6.39889e-06
6.33939e-06
6.29863e-06
6.27621e-06
6.27738e-06
6.29912e-06
9.03555e-06
8.7558e-06
8.55312e-06
8.32433e-06
8.09973e-06
7.8765e-06
7.66126e-06
7.45608e-06
7.26434e-06
7.08757e-06
6.92733e-06
6.78439e-06
6.65947e-06
6.55291e-06
6.46548e-06
6.39748e-06
6.35109e-06
6.32641e-06
6.33109e-06
6.36202e-06
8.80463e-06
8.66049e-06
8.47463e-06
8.27576e-06
8.07281e-06
7.86795e-06
7.66741e-06
7.47344e-06
7.28976e-06
7.11827e-06
6.96102e-06
6.81923e-06
6.69413e-06
6.58658e-06
6.49788e-06
6.4289e-06
6.38261e-06
6.35962e-06
6.36937e-06
6.40834e-06
8.61858e-06
8.50899e-06
8.36649e-06
8.19603e-06
8.01922e-06
7.83403e-06
7.64968e-06
7.46803e-06
7.29372e-06
7.12888e-06
6.97612e-06
6.83703e-06
6.71331e-06
6.60625e-06
6.51762e-06
6.4488e-06
6.4034e-06
6.38217e-06
6.39561e-06
6.44004e-06
8.39662e-06
8.33052e-06
8.22347e-06
8.08068e-06
7.92883e-06
7.7637e-06
7.59662e-06
7.42906e-06
7.26635e-06
7.11076e-06
6.96526e-06
6.83174e-06
6.7122e-06
6.60828e-06
6.52199e-06
6.45524e-06
6.41147e-06
6.3926e-06
6.40983e-06
6.45724e-06
8.14346e-06
8.11169e-06
8.03815e-06
7.92446e-06
7.79929e-06
7.65673e-06
7.50941e-06
7.35855e-06
7.21004e-06
7.0663e-06
6.93064e-06
6.80519e-06
6.69219e-06
6.59355e-06
6.51127e-06
6.44811e-06
6.40586e-06
6.39181e-06
6.40035e-06
6.45884e-06
7.87382e-06
7.8727e-06
7.82932e-06
7.74298e-06
7.64298e-06
7.52275e-06
7.39547e-06
7.26224e-06
7.12927e-06
6.99905e-06
6.87513e-06
6.75975e-06
6.65537e-06
6.5639e-06
6.48779e-06
6.42897e-06
6.39153e-06
6.37749e-06
6.39549e-06
6.44131e-06
7.5925e-06
7.61664e-06
7.59963e-06
7.53887e-06
7.46279e-06
7.36476e-06
7.25782e-06
7.14304e-06
7.02673e-06
6.91144e-06
6.8008e-06
6.69715e-06
6.60299e-06
6.5203e-06
6.45149e-06
6.39833e-06
6.36478e-06
6.35159e-06
6.36825e-06
6.41132e-06
7.30523e-06
7.35034e-06
7.35631e-06
7.31869e-06
7.26464e-06
7.18782e-06
7.10077e-06
7.0046e-06
6.9055e-06
6.80603e-06
6.70982e-06
6.61918e-06
6.53661e-06
6.464e-06
6.40361e-06
6.357e-06
6.32759e-06
6.31624e-06
6.33084e-06
6.36808e-06
7.01458e-06
7.07633e-06
7.10183e-06
7.08489e-06
7.05105e-06
6.99442e-06
6.92677e-06
6.84923e-06
6.76774e-06
6.6848e-06
6.60393e-06
6.52739e-06
6.45755e-06
6.39616e-06
6.34525e-06
6.30607e-06
6.28142e-06
6.27168e-06
6.2835e-06
6.31378e-06
6.72185e-06
6.79667e-06
6.83866e-06
6.84006e-06
6.8247e-06
6.78717e-06
6.73832e-06
6.67929e-06
6.61563e-06
6.54974e-06
6.48493e-06
6.42335e-06
6.36719e-06
6.31802e-06
6.27752e-06
6.24665e-06
6.22738e-06
6.21976e-06
6.22845e-06
6.25061e-06
6.4266e-06
6.51144e-06
6.56733e-06
6.5851e-06
6.58683e-06
6.56753e-06
6.53706e-06
6.49651e-06
6.45095e-06
6.4026e-06
6.35453e-06
6.30869e-06
6.26705e-06
6.23097e-06
6.20177e-06
6.18004e-06
6.16692e-06
6.16194e-06
6.1676e-06
6.18137e-06
6.12744e-06
6.22006e-06
6.28788e-06
6.32061e-06
6.33849e-06
6.33691e-06
6.32468e-06
6.30275e-06
6.27566e-06
6.2454e-06
6.2147e-06
6.1853e-06
6.15892e-06
6.1367e-06
6.11957e-06
6.1078e-06
6.10166e-06
6.10013e-06
6.1034e-06
6.10905e-06
5.82148e-06
5.92054e-06
5.99915e-06
6.04619e-06
6.07997e-06
6.09619e-06
6.10254e-06
6.09977e-06
6.09181e-06
6.08035e-06
6.06775e-06
6.0555e-06
6.04505e-06
6.03732e-06
6.03292e-06
6.03181e-06
6.03348e-06
6.03638e-06
6.03835e-06
6.03687e-06
5.50592e-06
5.61115e-06
5.70036e-06
5.76197e-06
5.81217e-06
5.84691e-06
5.87272e-06
5.89006e-06
5.90218e-06
5.91042e-06
5.91673e-06
5.92231e-06
5.92836e-06
5.93559e-06
5.94436e-06
5.95441e-06
5.9646e-06
5.97291e-06
5.97505e-06
5.96805e-06
5.1758e-06
5.28839e-06
5.3894e-06
5.46711e-06
5.53539e-06
5.59038e-06
5.63733e-06
5.67637e-06
5.71001e-06
5.7392e-06
5.76543e-06
5.78961e-06
5.81266e-06
5.83513e-06
5.85723e-06
5.87858e-06
5.8977e-06
5.91224e-06
5.91622e-06
5.90595e-06
4.82931e-06
4.95202e-06
5.06732e-06
5.16387e-06
5.25284e-06
5.33056e-06
5.40091e-06
5.46363e-06
5.52047e-06
5.57194e-06
5.61907e-06
5.66247e-06
5.70281e-06
5.7405e-06
5.77566e-06
5.80795e-06
5.83587e-06
5.85698e-06
5.86442e-06
5.85348e-06
4.4596e-06
4.59779e-06
4.73228e-06
4.85246e-06
4.96644e-06
5.07074e-06
5.16781e-06
5.25698e-06
5.33926e-06
5.41473e-06
5.48398e-06
5.54732e-06
5.60517e-06
5.65783e-06
5.70538e-06
5.74762e-06
5.78333e-06
5.81042e-06
5.8224e-06
5.81364e-06
4.07405e-06
4.2349e-06
4.39466e-06
4.54397e-06
4.6876e-06
4.82227e-06
4.94905e-06
5.06693e-06
5.17623e-06
5.27673e-06
5.36862e-06
5.45197e-06
5.52698e-06
5.59382e-06
5.65254e-06
5.7031e-06
5.74477e-06
5.77614e-06
5.79231e-06
5.78769e-06
3.66501e-06
3.86055e-06
4.05561e-06
4.24237e-06
4.42238e-06
4.59259e-06
4.75303e-06
4.90246e-06
5.04081e-06
5.16763e-06
5.28292e-06
5.38658e-06
5.47862e-06
5.55901e-06
5.62765e-06
5.68445e-06
5.72891e-06
5.76071e-06
5.77762e-06
5.77731e-06
3.28028e-06
3.52035e-06
3.75747e-06
3.9855e-06
4.20421e-06
4.41059e-06
4.60433e-06
4.78409e-06
4.94978e-06
5.10094e-06
5.23758e-06
5.35957e-06
5.46681e-06
5.55911e-06
5.63603e-06
5.69718e-06
5.74171e-06
5.76997e-06
5.78118e-06
5.77943e-06
5.14974e-06
5.49994e-06
6.09703e-06
6.75324e-06
7.40477e-06
7.97689e-06
8.43924e-06
8.7701e-06
8.97448e-06
9.01543e-06
4.87727e-06
5.20364e-06
5.75434e-06
6.37443e-06
7.01197e-06
7.59603e-06
8.09533e-06
8.47802e-06
8.74316e-06
8.84613e-06
4.63319e-06
4.94441e-06
5.45655e-06
6.0372e-06
6.64462e-06
7.21352e-06
7.71752e-06
8.12979e-06
8.45127e-06
8.64868e-06
4.40991e-06
4.71088e-06
5.19111e-06
5.73682e-06
6.31613e-06
6.86856e-06
7.36819e-06
7.78949e-06
8.12671e-06
8.38171e-06
4.20041e-06
4.49437e-06
4.94754e-06
5.46034e-06
6.00968e-06
6.54146e-06
7.03204e-06
7.46108e-06
7.80925e-06
8.09731e-06
4.00372e-06
4.2932e-06
4.72408e-06
5.20773e-06
5.72809e-06
6.23651e-06
6.71027e-06
7.1358e-06
7.48426e-06
7.79384e-06
3.81622e-06
4.1026e-06
4.51463e-06
4.9723e-06
5.46544e-06
5.95089e-06
6.40673e-06
6.82516e-06
7.16868e-06
7.48531e-06
3.63729e-06
3.92117e-06
4.31691e-06
4.75119e-06
5.21845e-06
5.68033e-06
6.11596e-06
6.52279e-06
6.85877e-06
7.17581e-06
3.4657e-06
3.74702e-06
4.12817e-06
4.54117e-06
4.98426e-06
5.42319e-06
5.83837e-06
6.23086e-06
6.55693e-06
6.86857e-06
3.30151e-06
3.57941e-06
3.94662e-06
4.33945e-06
4.75924e-06
5.17519e-06
5.56956e-06
5.94573e-06
6.26084e-06
6.56405e-06
3.14508e-06
3.41802e-06
3.77095e-06
4.1438e-06
4.54067e-06
4.93356e-06
5.30691e-06
5.6653e-06
5.96838e-06
6.26112e-06
2.99764e-06
3.26324e-06
3.60027e-06
3.95208e-06
4.32534e-06
4.69444e-06
5.0463e-06
5.38584e-06
5.6762e-06
5.95746e-06
2.86168e-06
3.1162e-06
3.43381e-06
3.76176e-06
4.10948e-06
4.45342e-06
4.78297e-06
5.10279e-06
5.37988e-06
5.64922e-06
2.74094e-06
2.97866e-06
3.2712e-06
3.57079e-06
3.88966e-06
4.20627e-06
4.51227e-06
4.81156e-06
5.07507e-06
5.33257e-06
2.64254e-06
2.85347e-06
3.11027e-06
3.37349e-06
3.65823e-06
3.94462e-06
4.22581e-06
4.50428e-06
4.75455e-06
5.00112e-06
2.57488e-06
2.74194e-06
2.94877e-06
3.16642e-06
3.41081e-06
3.66376e-06
3.91885e-06
4.17654e-06
4.41452e-06
4.65172e-06
2.55664e-06
2.64676e-06
2.77454e-06
2.93054e-06
3.12706e-06
3.34445e-06
3.57432e-06
3.81371e-06
4.04284e-06
4.27468e-06
2.59109e-06
2.54994e-06
2.5741e-06
2.65984e-06
2.80478e-06
2.98661e-06
3.19392e-06
3.41902e-06
3.64431e-06
3.87591e-06
2.72471e-06
2.42776e-06
2.2865e-06
2.28636e-06
2.38577e-06
2.54321e-06
2.7407e-06
2.96448e-06
3.19849e-06
3.44162e-06
2.77883e-06
2.12586e-06
1.89206e-06
1.82511e-06
1.90216e-06
2.05255e-06
2.25741e-06
2.49615e-06
2.75329e-06
3.02106e-06
)
;

boundaryField
{
    left
    {
        type            calculated;
        value           nonuniform List<scalar> 
30
(
5.09066e-06
4.82137e-06
4.58027e-06
4.35963e-06
4.15303e-06
3.95952e-06
3.7758e-06
3.60142e-06
3.4354e-06
3.27807e-06
3.1301e-06
2.99298e-06
2.86944e-06
2.76362e-06
2.68301e-06
2.63862e-06
2.65277e-06
2.75235e-06
3.03032e-06
3.46177e-06
2.31948e-05
1.48251e-05
1.11626e-05
9.26542e-06
8.09189e-06
7.2582e-06
6.63386e-06
6.1384e-06
5.7337e-06
5.38447e-06
)
;
    }
    right
    {
        type            calculated;
        value           nonuniform List<scalar> 
30
(
5.7772e-06
5.77559e-06
5.79096e-06
5.83064e-06
5.89006e-06
5.96541e-06
6.05006e-06
6.13797e-06
6.22311e-06
6.2999e-06
6.36307e-06
6.41014e-06
6.44207e-06
6.45942e-06
6.45939e-06
6.44318e-06
6.41332e-06
6.36977e-06
6.31508e-06
6.25148e-06
6.18181e-06
6.1091e-06
6.03658e-06
5.96755e-06
5.90536e-06
5.85296e-06
5.81335e-06
5.78766e-06
5.77754e-06
5.77831e-06
)
;
    }
    down
    {
        type            calculated;
        value           nonuniform List<scalar> 
30
(
2.25223e-08
2.74567e-08
2.70793e-07
6.53986e-07
1.09514e-06
1.55613e-06
2.00641e-06
2.43569e-06
2.82966e-06
3.19493e-06
3.52384e-06
3.81042e-06
4.07365e-06
4.31033e-06
4.52382e-06
4.71511e-06
4.88658e-06
5.0394e-06
5.17539e-06
5.29556e-06
5.40113e-06
5.49284e-06
5.57134e-06
5.63704e-06
5.69011e-06
5.73085e-06
5.75913e-06
5.77602e-06
5.78143e-06
5.77957e-06
)
;
    }
    up
    {
        type            calculated;
        value           nonuniform List<scalar> 
30
(
2.73729e-06
2.10069e-06
1.87914e-06
1.81089e-06
1.88581e-06
2.03392e-06
2.23738e-06
2.47572e-06
2.73265e-06
3.00152e-06
3.26155e-06
3.50354e-06
3.74296e-06
3.97289e-06
4.19358e-06
4.40166e-06
4.59702e-06
4.77822e-06
4.94518e-06
5.09746e-06
5.23508e-06
5.35789e-06
5.46583e-06
5.55867e-06
5.63597e-06
5.69735e-06
5.7419e-06
5.77005e-06
5.78107e-06
5.78029e-06
)
;
    }
    hole
    {
        type            calculated;
        value           nonuniform List<scalar> 
20
(
1.03566e-05
1.22639e-05
1.39084e-05
1.54223e-05
1.70749e-05
1.88662e-05
2.0159e-05
2.118e-05
2.21706e-05
2.3253e-05
8.34136e-09
8.14583e-09
2.03909e-07
6.92011e-07
1.45341e-06
2.47954e-06
3.74043e-06
5.19212e-06
6.80679e-06
8.50608e-06
)
;
    }
    frontAndBack
    {
        type            empty;
    }
}


// ************************************************************************* //
