/*--------------------------------*- C++ -*----------------------------------*\
  =========                 |
  \\      /  F ield         | OpenFOAM: The Open Source CFD Toolbox
   \\    /   O peration     | Website:  https://openfoam.org
    \\  /    A nd           | Version:  9
     \\/     M anipulation  |
\*---------------------------------------------------------------------------*/
FoamFile
{
    format      ascii;
    class       pointVectorField;
    location    "15";
    object      pointD;
}
// * * * * * * * * * * * * * * * * * * * * * * * * * * * * * * * * * * * * * //

dimensions      [0 1 0 0 0 0 0];

internalField   nonuniform List<vector> 
2142
(
(1.11357e-05 3.27069e-06 -8.59466e-20)
(1.032e-05 3.78504e-06 0)
(9.7506e-06 4.15145e-06 0)
(9.33602e-06 4.44938e-06 0)
(9.0377e-06 4.69338e-06 0)
(8.82601e-06 4.90363e-06 0)
(8.6798e-06 5.08857e-06 0)
(8.58425e-06 5.25579e-06 0)
(8.52783e-06 5.4098e-06 0)
(8.50219e-06 5.5537e-06 0)
(8.50681e-06 5.70994e-06 0)
(1.01858e-05 2.99727e-06 -8.60492e-20)
(9.3126e-06 3.40718e-06 0)
(8.71502e-06 3.69184e-06 0)
(8.28234e-06 3.92602e-06 0)
(7.97183e-06 4.11709e-06 0)
(7.75113e-06 4.28253e-06 0)
(7.59729e-06 4.42814e-06 0)
(7.49462e-06 4.56035e-06 0)
(7.43062e-06 4.68215e-06 0)
(7.39666e-06 4.79725e-06 0)
(7.24863e-06 4.80281e-06 0)
(9.19147e-06 2.72837e-06 -9.09937e-20)
(8.28721e-06 3.02198e-06 0)
(7.67984e-06 3.21779e-06 0)
(7.24086e-06 3.38515e-06 0)
(6.92695e-06 3.52257e-06 0)
(6.70394e-06 3.64356e-06 0)
(6.54769e-06 3.75095e-06 0)
(6.44186e-06 3.84941e-06 0)
(6.37356e-06 3.94033e-06 0)
(6.3335e-06 4.02723e-06 0)
(6.20077e-06 4.01805e-06 0)
(8.15243e-06 2.46792e-06 -1.00998e-19)
(7.25455e-06 2.6345e-06 0)
(6.65364e-06 2.74041e-06 0)
(6.22055e-06 2.84008e-06 0)
(5.91264e-06 2.92494e-06 0)
(5.69455e-06 3.00334e-06 0)
(5.54169e-06 3.07506e-06 0)
(5.43736e-06 3.14261e-06 0)
(5.36871e-06 3.20573e-06 0)
(5.3263e-06 3.26705e-06 0)
(5.21158e-06 3.24789e-06 0)
(7.07975e-06 2.22395e-06 -1.12862e-19)
(6.22096e-06 2.25452e-06 0)
(5.64146e-06 2.27168e-06 0)
(5.2274e-06 2.30497e-06 0)
(4.93549e-06 2.33995e-06 0)
(4.73014e-06 2.37913e-06 0)
(4.5868e-06 2.41894e-06 0)
(4.48883e-06 2.4594e-06 0)
(4.42381e-06 2.49859e-06 0)
(4.38242e-06 2.53789e-06 0)
(4.28659e-06 2.51315e-06 0)
(6.0011e-06 1.99132e-06 -1.18892e-19)
(5.18644e-06 1.88967e-06 0)
(4.64597e-06 1.82121e-06 0)
(4.2647e-06 1.79273e-06 0)
(3.99961e-06 1.78306e-06 0)
(3.81532e-06 1.78849e-06 0)
(3.68777e-06 1.80179e-06 0)
(3.60092e-06 1.82029e-06 0)
(3.54315e-06 1.84044e-06 0)
(3.50566e-06 1.86222e-06 0)
(3.42868e-06 1.8362e-06 0)
(4.91052e-06 1.75545e-06 -1.09743e-19)
(4.1466e-06 1.53885e-06 0)
(3.66612e-06 1.39413e-06 0)
(3.33314e-06 1.31376e-06 0)
(3.10672e-06 1.26869e-06 0)
(2.95208e-06 1.24862e-06 0)
(2.84642e-06 1.24274e-06 0)
(2.77501e-06 1.24571e-06 0)
(2.72758e-06 1.25261e-06 0)
(2.6963e-06 1.26208e-06 0)
(2.63748e-06 1.23883e-06 0)
(3.79385e-06 1.50403e-06 -8.13897e-20)
(3.10563e-06 1.19549e-06 0)
(2.70431e-06 9.93704e-07 0)
(2.43585e-06 8.78146e-07 0)
(2.25943e-06 8.12021e-07 0)
(2.14196e-06 7.77742e-07 0)
(2.06299e-06 7.61813e-07 0)
(2.01014e-06 7.56622e-07 0)
(1.97507e-06 7.56514e-07 0)
(1.95153e-06 7.59155e-07 0)
(1.90959e-06 7.41959e-07 0)
(2.63676e-06 1.23015e-06 -2.72321e-20)
(2.06255e-06 8.50034e-07 0)
(1.76271e-06 6.22645e-07 0)
(1.57529e-06 4.97059e-07 0)
(1.45822e-06 4.29849e-07 0)
(1.38297e-06 3.95207e-07 0)
(1.33331e-06 3.79085e-07 0)
(1.30033e-06 3.72862e-07 0)
(1.27833e-06 3.71284e-07 0)
(1.26311e-06 3.71799e-07 0)
(1.23641e-06 3.62387e-07 0)
(1.51937e-06 9.05918e-07 3.60488e-20)
(1.02697e-06 4.95812e-07 0)
(8.54913e-07 2.97351e-07 0)
(7.62546e-07 1.98799e-07 0)
(7.08451e-07 1.53236e-07 0)
(6.74579e-07 1.31557e-07 0)
(6.52395e-07 1.2284e-07 0)
(6.3755e-07 1.2013e-07 0)
(6.27433e-07 1.20058e-07 0)
(6.20082e-07 1.20874e-07 0)
(6.06941e-07 1.18146e-07 0)
(4.98992e-07 3.62245e-07 3.17754e-20)
(0 0 0)
(0 0 0)
(0 0 0)
(0 0 0)
(0 0 0)
(0 0 0)
(0 0 0)
(0 0 0)
(0 0 0)
(0 0 0)
(1.11357e-05 3.27069e-06 -8.59466e-20)
(1.032e-05 3.78504e-06 0)
(9.7506e-06 4.15145e-06 0)
(9.33602e-06 4.44938e-06 0)
(9.0377e-06 4.69338e-06 0)
(8.82601e-06 4.90363e-06 0)
(8.6798e-06 5.08857e-06 0)
(8.58425e-06 5.25579e-06 0)
(8.52783e-06 5.4098e-06 0)
(8.50219e-06 5.5537e-06 0)
(8.50681e-06 5.70994e-06 0)
(1.01858e-05 2.99727e-06 -8.60492e-20)
(9.3126e-06 3.40718e-06 0)
(8.71502e-06 3.69184e-06 0)
(8.28234e-06 3.92602e-06 0)
(7.97183e-06 4.11709e-06 0)
(7.75113e-06 4.28253e-06 0)
(7.59729e-06 4.42814e-06 0)
(7.49462e-06 4.56035e-06 0)
(7.43062e-06 4.68215e-06 0)
(7.39666e-06 4.79725e-06 0)
(7.24863e-06 4.80281e-06 0)
(9.19147e-06 2.72837e-06 -9.09937e-20)
(8.28721e-06 3.02198e-06 0)
(7.67984e-06 3.21779e-06 0)
(7.24086e-06 3.38515e-06 0)
(6.92695e-06 3.52257e-06 0)
(6.70394e-06 3.64356e-06 0)
(6.54769e-06 3.75095e-06 0)
(6.44186e-06 3.84941e-06 0)
(6.37356e-06 3.94033e-06 0)
(6.3335e-06 4.02723e-06 0)
(6.20077e-06 4.01805e-06 0)
(8.15243e-06 2.46792e-06 -1.00998e-19)
(7.25455e-06 2.6345e-06 0)
(6.65364e-06 2.74041e-06 0)
(6.22055e-06 2.84008e-06 0)
(5.91264e-06 2.92494e-06 0)
(5.69455e-06 3.00334e-06 0)
(5.54169e-06 3.07506e-06 0)
(5.43736e-06 3.14261e-06 0)
(5.36871e-06 3.20573e-06 0)
(5.3263e-06 3.26705e-06 0)
(5.21158e-06 3.24789e-06 0)
(7.07975e-06 2.22395e-06 -1.12862e-19)
(6.22096e-06 2.25452e-06 0)
(5.64146e-06 2.27168e-06 0)
(5.2274e-06 2.30497e-06 0)
(4.93549e-06 2.33995e-06 0)
(4.73014e-06 2.37913e-06 0)
(4.5868e-06 2.41894e-06 0)
(4.48883e-06 2.4594e-06 0)
(4.42381e-06 2.49859e-06 0)
(4.38242e-06 2.53789e-06 0)
(4.28659e-06 2.51315e-06 0)
(6.0011e-06 1.99132e-06 -1.18892e-19)
(5.18644e-06 1.88967e-06 0)
(4.64597e-06 1.82121e-06 0)
(4.2647e-06 1.79273e-06 0)
(3.99961e-06 1.78306e-06 0)
(3.81532e-06 1.78849e-06 0)
(3.68777e-06 1.80179e-06 0)
(3.60092e-06 1.82029e-06 0)
(3.54315e-06 1.84044e-06 0)
(3.50566e-06 1.86222e-06 0)
(3.42868e-06 1.8362e-06 0)
(4.91052e-06 1.75545e-06 -1.09743e-19)
(4.1466e-06 1.53885e-06 0)
(3.66612e-06 1.39413e-06 0)
(3.33314e-06 1.31376e-06 0)
(3.10672e-06 1.26869e-06 0)
(2.95208e-06 1.24862e-06 0)
(2.84642e-06 1.24274e-06 0)
(2.77501e-06 1.24571e-06 0)
(2.72758e-06 1.25261e-06 0)
(2.6963e-06 1.26208e-06 0)
(2.63748e-06 1.23883e-06 0)
(3.79385e-06 1.50403e-06 -8.13897e-20)
(3.10563e-06 1.19549e-06 0)
(2.70431e-06 9.93704e-07 0)
(2.43585e-06 8.78146e-07 0)
(2.25943e-06 8.12021e-07 0)
(2.14196e-06 7.77742e-07 0)
(2.06299e-06 7.61813e-07 0)
(2.01014e-06 7.56622e-07 0)
(1.97507e-06 7.56514e-07 0)
(1.95153e-06 7.59155e-07 0)
(1.90959e-06 7.41959e-07 0)
(2.63676e-06 1.23015e-06 -2.72321e-20)
(2.06255e-06 8.50034e-07 0)
(1.76271e-06 6.22645e-07 0)
(1.57529e-06 4.97059e-07 0)
(1.45822e-06 4.29849e-07 0)
(1.38297e-06 3.95207e-07 0)
(1.33331e-06 3.79085e-07 0)
(1.30033e-06 3.72862e-07 0)
(1.27833e-06 3.71284e-07 0)
(1.26311e-06 3.71799e-07 0)
(1.23641e-06 3.62387e-07 0)
(1.51937e-06 9.05918e-07 3.60488e-20)
(1.02697e-06 4.95812e-07 0)
(8.54913e-07 2.97351e-07 0)
(7.62546e-07 1.98799e-07 0)
(7.08451e-07 1.53236e-07 0)
(6.74579e-07 1.31557e-07 0)
(6.52395e-07 1.2284e-07 0)
(6.3755e-07 1.2013e-07 0)
(6.27433e-07 1.20058e-07 0)
(6.20082e-07 1.20874e-07 0)
(6.06941e-07 1.18146e-07 0)
(4.98992e-07 3.62245e-07 3.17754e-20)
(0 0 0)
(0 0 0)
(0 0 0)
(0 0 0)
(0 0 0)
(0 0 0)
(0 0 0)
(0 0 0)
(0 0 0)
(0 0 0)
(1.8053e-05 5.36103e-06 -2.83809e-21)
(1.81818e-05 5.87896e-06 -1.38835e-21)
(1.8166e-05 6.54489e-06 -1.5241e-21)
(1.81554e-05 7.16273e-06 -1.66394e-21)
(1.81662e-05 7.73145e-06 -1.80312e-21)
(1.82045e-05 8.25686e-06 -1.94058e-21)
(1.82725e-05 8.74572e-06 -2.07607e-21)
(1.83699e-05 9.20495e-06 -2.20968e-21)
(1.84955e-05 9.64029e-06 -2.24305e-21)
(1.86466e-05 1.00572e-05 -1.68675e-21)
(1.88216e-05 1.04578e-05 -6.3802e-22)
(1.76518e-05 5.16028e-06 -4.41243e-21)
(1.75967e-05 5.85559e-06 0)
(1.75507e-05 6.51727e-06 0)
(1.75262e-05 7.12597e-06 0)
(1.75292e-05 7.68193e-06 0)
(1.75619e-05 8.19198e-06 0)
(1.7624e-05 8.66362e-06 0)
(1.7714e-05 9.10436e-06 0)
(1.78301e-05 9.52037e-06 0)
(1.79697e-05 9.91749e-06 0)
(1.81413e-05 1.03005e-05 0)
(1.71056e-05 5.0752e-06 -4.5636e-21)
(1.69908e-05 5.78579e-06 0)
(1.68976e-05 6.44133e-06 0)
(1.68379e-05 7.03725e-06 0)
(1.6814e-05 7.57692e-06 0)
(1.68252e-05 8.06882e-06 0)
(1.68687e-05 8.52113e-06 0)
(1.69416e-05 8.94182e-06 0)
(1.7041e-05 9.33729e-06 0)
(1.71633e-05 9.71375e-06 0)
(1.73303e-05 1.008e-05 0)
(1.65268e-05 4.93764e-06 -5.39729e-21)
(1.63399e-05 5.67141e-06 0)
(1.61904e-05 6.31848e-06 0)
(1.60861e-05 6.89692e-06 0)
(1.60263e-05 7.41508e-06 0)
(1.6008e-05 7.88418e-06 0)
(1.60262e-05 8.31334e-06 0)
(1.60763e-05 8.71091e-06 0)
(1.61544e-05 9.08345e-06 0)
(1.62557e-05 9.43731e-06 0)
(1.64179e-05 9.78726e-06 0)
(1.5905e-05 4.76026e-06 -8.26664e-21)
(1.56339e-05 5.51412e-06 0)
(1.5422e-05 6.14901e-06 0)
(1.52679e-05 6.70566e-06 0)
(1.51679e-05 7.19773e-06 0)
(1.51161e-05 7.63975e-06 0)
(1.51055e-05 8.04189e-06 0)
(1.51299e-05 8.41299e-06 0)
(1.51843e-05 8.75973e-06 0)
(1.52629e-05 9.08848e-06 0)
(1.54208e-05 9.42213e-06 0)
(1.52345e-05 4.55162e-06 -1.44814e-20)
(1.48695e-05 5.31467e-06 0)
(1.45913e-05 5.93095e-06 0)
(1.43856e-05 6.46056e-06 0)
(1.42445e-05 6.92184e-06 0)
(1.41585e-05 7.33262e-06 0)
(1.41185e-05 7.70409e-06 0)
(1.41167e-05 8.04553e-06 0)
(1.41472e-05 8.36374e-06 0)
(1.4203e-05 8.66494e-06 0)
(1.43578e-05 8.98249e-06 0)
(1.45131e-05 4.3194e-06 -2.49087e-20)
(1.40485e-05 5.07491e-06 0)
(1.37027e-05 5.66374e-06 0)
(1.3446e-05 6.16039e-06 0)
(1.3265e-05 6.58643e-06 0)
(1.31461e-05 6.96237e-06 0)
(1.3078e-05 7.30012e-06 0)
(1.30512e-05 7.60925e-06 0)
(1.30588e-05 7.8966e-06 0)
(1.3093e-05 8.16816e-06 0)
(1.32463e-05 8.46996e-06 0)
(1.37404e-05 4.07003e-06 -3.96616e-20)
(1.31758e-05 4.79754e-06 0)
(1.2764e-05 5.34814e-06 0)
(1.2459e-05 5.80517e-06 0)
(1.22409e-05 6.19154e-06 0)
(1.20919e-05 6.52945e-06 0)
(1.19983e-05 6.831e-06 0)
(1.1949e-05 7.10579e-06 0)
(1.19359e-05 7.36054e-06 0)
(1.19505e-05 7.60079e-06 0)
(1.21041e-05 7.88741e-06 0)
(1.29177e-05 3.80919e-06 -5.80872e-20)
(1.22582e-05 4.48641e-06 0)
(1.17851e-05 4.9871e-06 0)
(1.14364e-05 5.39763e-06 0)
(1.11856e-05 5.74015e-06 0)
(1.10105e-05 6.03737e-06 0)
(1.08949e-05 6.30089e-06 0)
(1.08262e-05 6.54001e-06 0)
(1.07953e-05 6.76104e-06 0)
(1.07931e-05 6.96894e-06 0)
(1.09486e-05 7.24072e-06 0)
(1.20472e-05 3.54228e-06 -7.78005e-20)
(1.13036e-05 4.14708e-06 0)
(1.07771e-05 4.58588e-06 0)
(1.03912e-05 4.94309e-06 0)
(1.01132e-05 5.23791e-06 0)
(9.91691e-06 5.49233e-06 0)
(9.78351e-06 5.71671e-06 0)
(9.69919e-06 5.91961e-06 0)
(9.65371e-06 6.10664e-06 0)
(9.63814e-06 6.28145e-06 0)
(9.79628e-06 6.53829e-06 0)
(1.8053e-05 5.36103e-06 -2.83809e-21)
(1.81818e-05 5.87896e-06 -1.38835e-21)
(1.8166e-05 6.54489e-06 -1.5241e-21)
(1.81554e-05 7.16273e-06 -1.66394e-21)
(1.81662e-05 7.73145e-06 -1.80312e-21)
(1.82045e-05 8.25686e-06 -1.94058e-21)
(1.82725e-05 8.74572e-06 -2.07607e-21)
(1.83699e-05 9.20495e-06 -2.20968e-21)
(1.84955e-05 9.64029e-06 -2.24305e-21)
(1.86466e-05 1.00572e-05 -1.68675e-21)
(1.88216e-05 1.04578e-05 -6.3802e-22)
(1.76518e-05 5.16028e-06 -4.41243e-21)
(1.75967e-05 5.85559e-06 0)
(1.75507e-05 6.51727e-06 0)
(1.75262e-05 7.12597e-06 0)
(1.75292e-05 7.68193e-06 0)
(1.75619e-05 8.19198e-06 0)
(1.7624e-05 8.66362e-06 0)
(1.7714e-05 9.10436e-06 0)
(1.78301e-05 9.52037e-06 0)
(1.79697e-05 9.91749e-06 0)
(1.81413e-05 1.03005e-05 0)
(1.71056e-05 5.0752e-06 -4.5636e-21)
(1.69908e-05 5.78579e-06 0)
(1.68976e-05 6.44133e-06 0)
(1.68379e-05 7.03725e-06 0)
(1.6814e-05 7.57692e-06 0)
(1.68252e-05 8.06882e-06 0)
(1.68687e-05 8.52113e-06 0)
(1.69416e-05 8.94182e-06 0)
(1.7041e-05 9.33729e-06 0)
(1.71633e-05 9.71375e-06 0)
(1.73303e-05 1.008e-05 0)
(1.65268e-05 4.93764e-06 -5.39729e-21)
(1.63399e-05 5.67141e-06 0)
(1.61904e-05 6.31848e-06 0)
(1.60861e-05 6.89692e-06 0)
(1.60263e-05 7.41508e-06 0)
(1.6008e-05 7.88418e-06 0)
(1.60262e-05 8.31334e-06 0)
(1.60763e-05 8.71091e-06 0)
(1.61544e-05 9.08345e-06 0)
(1.62557e-05 9.43731e-06 0)
(1.64179e-05 9.78726e-06 0)
(1.5905e-05 4.76026e-06 -8.26664e-21)
(1.56339e-05 5.51412e-06 0)
(1.5422e-05 6.14901e-06 0)
(1.52679e-05 6.70566e-06 0)
(1.51679e-05 7.19773e-06 0)
(1.51161e-05 7.63975e-06 0)
(1.51055e-05 8.04189e-06 0)
(1.51299e-05 8.41299e-06 0)
(1.51843e-05 8.75973e-06 0)
(1.52629e-05 9.08848e-06 0)
(1.54208e-05 9.42213e-06 0)
(1.52345e-05 4.55162e-06 -1.44814e-20)
(1.48695e-05 5.31467e-06 0)
(1.45913e-05 5.93095e-06 0)
(1.43856e-05 6.46056e-06 0)
(1.42445e-05 6.92184e-06 0)
(1.41585e-05 7.33262e-06 0)
(1.41185e-05 7.70409e-06 0)
(1.41167e-05 8.04553e-06 0)
(1.41472e-05 8.36374e-06 0)
(1.4203e-05 8.66494e-06 0)
(1.43578e-05 8.98249e-06 0)
(1.45131e-05 4.3194e-06 -2.49087e-20)
(1.40485e-05 5.07491e-06 0)
(1.37027e-05 5.66374e-06 0)
(1.3446e-05 6.16039e-06 0)
(1.3265e-05 6.58643e-06 0)
(1.31461e-05 6.96237e-06 0)
(1.3078e-05 7.30012e-06 0)
(1.30512e-05 7.60925e-06 0)
(1.30588e-05 7.8966e-06 0)
(1.3093e-05 8.16816e-06 0)
(1.32463e-05 8.46996e-06 0)
(1.37404e-05 4.07003e-06 -3.96616e-20)
(1.31758e-05 4.79754e-06 0)
(1.2764e-05 5.34814e-06 0)
(1.2459e-05 5.80517e-06 0)
(1.22409e-05 6.19154e-06 0)
(1.20919e-05 6.52945e-06 0)
(1.19983e-05 6.831e-06 0)
(1.1949e-05 7.10579e-06 0)
(1.19359e-05 7.36054e-06 0)
(1.19505e-05 7.60079e-06 0)
(1.21041e-05 7.88741e-06 0)
(1.29177e-05 3.80919e-06 -5.80872e-20)
(1.22582e-05 4.48641e-06 0)
(1.17851e-05 4.9871e-06 0)
(1.14364e-05 5.39763e-06 0)
(1.11856e-05 5.74015e-06 0)
(1.10105e-05 6.03737e-06 0)
(1.08949e-05 6.30089e-06 0)
(1.08262e-05 6.54001e-06 0)
(1.07953e-05 6.76104e-06 0)
(1.07931e-05 6.96894e-06 0)
(1.09486e-05 7.24072e-06 0)
(1.20472e-05 3.54228e-06 -7.78005e-20)
(1.13036e-05 4.14708e-06 0)
(1.07771e-05 4.58588e-06 0)
(1.03912e-05 4.94309e-06 0)
(1.01132e-05 5.23791e-06 0)
(9.91691e-06 5.49233e-06 0)
(9.78351e-06 5.71671e-06 0)
(9.69919e-06 5.91961e-06 0)
(9.65371e-06 6.10664e-06 0)
(9.63814e-06 6.28145e-06 0)
(9.79628e-06 6.53829e-06 0)
(1.90205e-05 1.08471e-05 3.55928e-22)
(1.92401e-05 1.12303e-05 1.25062e-21)
(1.94767e-05 1.16078e-05 2.05606e-21)
(1.97287e-05 1.19813e-05 2.77372e-21)
(1.99946e-05 1.23525e-05 3.41162e-21)
(2.02727e-05 1.27225e-05 3.97613e-21)
(2.05618e-05 1.30924e-05 4.47387e-21)
(2.08606e-05 1.34631e-05 4.91043e-21)
(2.1168e-05 1.38352e-05 5.29105e-21)
(2.1483e-05 1.42095e-05 5.61994e-21)
(2.18047e-05 1.45865e-05 5.90084e-21)
(2.21321e-05 1.49666e-05 6.13654e-21)
(2.24644e-05 1.53502e-05 6.32936e-21)
(2.28008e-05 1.57375e-05 6.48082e-21)
(2.31404e-05 1.61288e-05 6.59215e-21)
(2.34823e-05 1.6524e-05 6.6642e-21)
(2.38256e-05 1.69229e-05 6.69875e-21)
(2.41695e-05 1.73252e-05 6.69831e-21)
(2.45126e-05 1.77298e-05 6.66736e-21)
(2.4626e-05 1.79818e-05 -1.72773e-21)
(1.83536e-05 1.06781e-05 0)
(1.85918e-05 1.10532e-05 0)
(1.88438e-05 1.14233e-05 0)
(1.91083e-05 1.17905e-05 0)
(1.93842e-05 1.21561e-05 0)
(1.96703e-05 1.25213e-05 0)
(1.99657e-05 1.28872e-05 0)
(2.02693e-05 1.32545e-05 0)
(2.05803e-05 1.36239e-05 0)
(2.08979e-05 1.39961e-05 0)
(2.12213e-05 1.43715e-05 0)
(2.15498e-05 1.47506e-05 0)
(2.18828e-05 1.51337e-05 0)
(2.22195e-05 1.5521e-05 0)
(2.25593e-05 1.59127e-05 0)
(2.29016e-05 1.63089e-05 0)
(2.32457e-05 1.67093e-05 0)
(2.35911e-05 1.71134e-05 0)
(2.3937e-05 1.75204e-05 0)
(2.42815e-05 1.79281e-05 -1.01726e-20)
(1.7563e-05 1.04499e-05 0)
(1.783e-05 1.08223e-05 0)
(1.81071e-05 1.119e-05 0)
(1.83931e-05 1.15551e-05 0)
(1.86875e-05 1.19192e-05 0)
(1.89896e-05 1.22833e-05 0)
(1.92987e-05 1.26485e-05 0)
(1.96141e-05 1.30155e-05 0)
(1.99354e-05 1.33852e-05 0)
(2.02619e-05 1.3758e-05 0)
(2.05931e-05 1.41345e-05 0)
(2.09286e-05 1.4515e-05 0)
(2.12679e-05 1.49e-05 0)
(2.16104e-05 1.52896e-05 0)
(2.19559e-05 1.5684e-05 0)
(2.23037e-05 1.60834e-05 0)
(2.26535e-05 1.64875e-05 0)
(2.30048e-05 1.68961e-05 0)
(2.33568e-05 1.73084e-05 0)
(2.37061e-05 1.77224e-05 -1.02559e-20)
(1.66761e-05 1.01541e-05 0)
(1.6979e-05 1.05299e-05 0)
(1.7288e-05 1.0901e-05 0)
(1.76022e-05 1.12693e-05 0)
(1.79215e-05 1.16366e-05 0)
(1.82456e-05 1.20039e-05 0)
(1.85741e-05 1.23724e-05 0)
(1.89069e-05 1.27429e-05 0)
(1.92436e-05 1.31161e-05 0)
(1.95839e-05 1.34926e-05 0)
(1.99277e-05 1.3873e-05 0)
(2.02746e-05 1.42577e-05 0)
(2.06244e-05 1.46471e-05 0)
(2.09768e-05 1.50414e-05 0)
(2.13317e-05 1.54409e-05 0)
(2.16886e-05 1.58458e-05 0)
(2.20473e-05 1.6256e-05 0)
(2.24074e-05 1.66716e-05 0)
(2.27683e-05 1.70922e-05 0)
(2.31249e-05 1.75163e-05 -1.03792e-20)
(1.57086e-05 9.79012e-06 0)
(1.60532e-05 1.01752e-05 0)
(1.63998e-05 1.05552e-05 0)
(1.67475e-05 1.09318e-05 0)
(1.7097e-05 1.13069e-05 0)
(1.7448e-05 1.16817e-05 0)
(1.78008e-05 1.20575e-05 0)
(1.81553e-05 1.2435e-05 0)
(1.85117e-05 1.28151e-05 0)
(1.887e-05 1.31985e-05 0)
(1.92301e-05 1.35858e-05 0)
(1.95921e-05 1.39773e-05 0)
(1.99559e-05 1.43737e-05 0)
(2.03214e-05 1.47751e-05 0)
(2.06886e-05 1.51821e-05 0)
(2.10574e-05 1.55948e-05 0)
(2.14276e-05 1.60135e-05 0)
(2.17989e-05 1.64385e-05 0)
(2.21707e-05 1.68699e-05 0)
(2.25371e-05 1.73067e-05 -1.05389e-20)
(1.46786e-05 9.3561e-06 0)
(1.50691e-05 9.75649e-06 0)
(1.54575e-05 1.0151e-05 0)
(1.58428e-05 1.05411e-05 0)
(1.62263e-05 1.09289e-05 0)
(1.6608e-05 1.13157e-05 0)
(1.69887e-05 1.17027e-05 0)
(1.73686e-05 1.20911e-05 0)
(1.77481e-05 1.24816e-05 0)
(1.81274e-05 1.28751e-05 0)
(1.85069e-05 1.32722e-05 0)
(1.88867e-05 1.36735e-05 0)
(1.9267e-05 1.40794e-05 0)
(1.96481e-05 1.44905e-05 0)
(2.00299e-05 1.49073e-05 0)
(2.04127e-05 1.53301e-05 0)
(2.07962e-05 1.57594e-05 0)
(2.11804e-05 1.61958e-05 0)
(2.1565e-05 1.664e-05 0)
(2.19434e-05 1.70913e-05 -1.07358e-20)
(1.36024e-05 8.85356e-06 0)
(1.40417e-05 9.27495e-06 0)
(1.44748e-05 9.68956e-06 0)
(1.49005e-05 1.00981e-05 0)
(1.5321e-05 1.05033e-05 0)
(1.57363e-05 1.09063e-05 0)
(1.61476e-05 1.13087e-05 0)
(1.65554e-05 1.17116e-05 0)
(1.69605e-05 1.2116e-05 0)
(1.73633e-05 1.25227e-05 0)
(1.77643e-05 1.29327e-05 0)
(1.81641e-05 1.33464e-05 0)
(1.8563e-05 1.37646e-05 0)
(1.89613e-05 1.41878e-05 0)
(1.93595e-05 1.46166e-05 0)
(1.97576e-05 1.50515e-05 0)
(2.0156e-05 1.54934e-05 0)
(2.05545e-05 1.59431e-05 0)
(2.09532e-05 1.64014e-05 0)
(2.13454e-05 1.68685e-05 -1.0972e-20)
(1.24966e-05 8.2853e-06 0)
(1.29859e-05 8.73303e-06 0)
(1.34652e-05 9.17284e-06 0)
(1.3933e-05 9.60465e-06 0)
(1.43922e-05 1.00317e-05 0)
(1.48429e-05 1.04551e-05 0)
(1.52868e-05 1.08767e-05 0)
(1.57244e-05 1.12977e-05 0)
(1.61568e-05 1.17194e-05 0)
(1.65848e-05 1.21426e-05 0)
(1.7009e-05 1.25683e-05 0)
(1.74303e-05 1.29972e-05 0)
(1.78491e-05 1.34302e-05 0)
(1.8266e-05 1.38678e-05 0)
(1.86816e-05 1.43107e-05 0)
(1.90962e-05 1.47598e-05 0)
(1.95103e-05 1.52159e-05 0)
(1.99241e-05 1.56801e-05 0)
(2.03379e-05 1.61537e-05 0)
(2.07456e-05 1.66372e-05 -1.12503e-20)
(1.13773e-05 7.65662e-06 0)
(1.19161e-05 8.13549e-06 0)
(1.24418e-05 8.60486e-06 0)
(1.29523e-05 9.06428e-06 0)
(1.34509e-05 9.51702e-06 0)
(1.3938e-05 9.96461e-06 0)
(1.44153e-05 1.04089e-05 0)
(1.48838e-05 1.08514e-05 0)
(1.53446e-05 1.12934e-05 0)
(1.57988e-05 1.17361e-05 0)
(1.62473e-05 1.21804e-05 0)
(1.6691e-05 1.26272e-05 0)
(1.71306e-05 1.30773e-05 0)
(1.75669e-05 1.35316e-05 0)
(1.80007e-05 1.39908e-05 0)
(1.84325e-05 1.44558e-05 0)
(1.88629e-05 1.49276e-05 0)
(1.92925e-05 1.54075e-05 0)
(1.97219e-05 1.5897e-05 0)
(2.01464e-05 1.63971e-05 -1.15732e-20)
(1.02591e-05 6.97508e-06 0)
(1.08448e-05 7.48856e-06 0)
(1.14152e-05 7.9906e-06 0)
(1.1968e-05 8.48144e-06 0)
(1.25059e-05 8.96347e-06 0)
(1.30297e-05 9.43867e-06 0)
(1.3541e-05 9.90893e-06 0)
(1.4041e-05 1.03759e-05 0)
(1.4531e-05 1.08412e-05 0)
(1.50121e-05 1.13059e-05 0)
(1.54854e-05 1.17713e-05 0)
(1.5952e-05 1.22384e-05 0)
(1.64129e-05 1.2708e-05 0)
(1.6869e-05 1.3181e-05 0)
(1.73213e-05 1.36583e-05 0)
(1.77704e-05 1.41408e-05 0)
(1.82174e-05 1.46296e-05 0)
(1.8663e-05 1.51261e-05 0)
(1.91081e-05 1.56318e-05 0)
(1.95505e-05 1.61485e-05 -1.1944e-20)
(9.26613e-06 6.35493e-06 0)
(9.88695e-06 6.8982e-06 0)
(1.04907e-05 7.42692e-06 0)
(1.10762e-05 7.94434e-06 0)
(1.16452e-05 8.45185e-06 0)
(1.21985e-05 8.95151e-06 0)
(1.27374e-05 9.44508e-06 0)
(1.32632e-05 9.93427e-06 0)
(1.37771e-05 1.04206e-05 0)
(1.42803e-05 1.09054e-05 0)
(1.4774e-05 1.13899e-05 0)
(1.52595e-05 1.1875e-05 0)
(1.57378e-05 1.23618e-05 0)
(1.621e-05 1.28512e-05 0)
(1.66771e-05 1.33439e-05 0)
(1.71401e-05 1.3841e-05 0)
(1.76002e-05 1.43434e-05 0)
(1.80583e-05 1.48525e-05 0)
(1.85157e-05 1.53698e-05 0)
(1.89726e-05 1.58979e-05 -1.22401e-20)
(1.90205e-05 1.08471e-05 3.55928e-22)
(1.92401e-05 1.12303e-05 1.25062e-21)
(1.94767e-05 1.16078e-05 2.05606e-21)
(1.97287e-05 1.19813e-05 2.77372e-21)
(1.99946e-05 1.23525e-05 3.41162e-21)
(2.02727e-05 1.27225e-05 3.97613e-21)
(2.05618e-05 1.30924e-05 4.47387e-21)
(2.08606e-05 1.34631e-05 4.91043e-21)
(2.1168e-05 1.38352e-05 5.29105e-21)
(2.1483e-05 1.42095e-05 5.61994e-21)
(2.18047e-05 1.45865e-05 5.90084e-21)
(2.21321e-05 1.49666e-05 6.13654e-21)
(2.24644e-05 1.53502e-05 6.32936e-21)
(2.28008e-05 1.57375e-05 6.48082e-21)
(2.31404e-05 1.61288e-05 6.59215e-21)
(2.34823e-05 1.6524e-05 6.6642e-21)
(2.38256e-05 1.69229e-05 6.69875e-21)
(2.41695e-05 1.73252e-05 6.69831e-21)
(2.45126e-05 1.77298e-05 6.66736e-21)
(2.4626e-05 1.79818e-05 -1.72773e-21)
(1.83536e-05 1.06781e-05 0)
(1.85918e-05 1.10532e-05 0)
(1.88438e-05 1.14233e-05 0)
(1.91083e-05 1.17905e-05 0)
(1.93842e-05 1.21561e-05 0)
(1.96703e-05 1.25213e-05 0)
(1.99657e-05 1.28872e-05 0)
(2.02693e-05 1.32545e-05 0)
(2.05803e-05 1.36239e-05 0)
(2.08979e-05 1.39961e-05 0)
(2.12213e-05 1.43715e-05 0)
(2.15498e-05 1.47506e-05 0)
(2.18828e-05 1.51337e-05 0)
(2.22195e-05 1.5521e-05 0)
(2.25593e-05 1.59127e-05 0)
(2.29016e-05 1.63089e-05 0)
(2.32457e-05 1.67093e-05 0)
(2.35911e-05 1.71134e-05 0)
(2.3937e-05 1.75204e-05 0)
(2.42815e-05 1.79281e-05 -1.01726e-20)
(1.7563e-05 1.04499e-05 0)
(1.783e-05 1.08223e-05 0)
(1.81071e-05 1.119e-05 0)
(1.83931e-05 1.15551e-05 0)
(1.86875e-05 1.19192e-05 0)
(1.89896e-05 1.22833e-05 0)
(1.92987e-05 1.26485e-05 0)
(1.96141e-05 1.30155e-05 0)
(1.99354e-05 1.33852e-05 0)
(2.02619e-05 1.3758e-05 0)
(2.05931e-05 1.41345e-05 0)
(2.09286e-05 1.4515e-05 0)
(2.12679e-05 1.49e-05 0)
(2.16104e-05 1.52896e-05 0)
(2.19559e-05 1.5684e-05 0)
(2.23037e-05 1.60834e-05 0)
(2.26535e-05 1.64875e-05 0)
(2.30048e-05 1.68961e-05 0)
(2.33568e-05 1.73084e-05 0)
(2.37061e-05 1.77224e-05 -1.02559e-20)
(1.66761e-05 1.01541e-05 0)
(1.6979e-05 1.05299e-05 0)
(1.7288e-05 1.0901e-05 0)
(1.76022e-05 1.12693e-05 0)
(1.79215e-05 1.16366e-05 0)
(1.82456e-05 1.20039e-05 0)
(1.85741e-05 1.23724e-05 0)
(1.89069e-05 1.27429e-05 0)
(1.92436e-05 1.31161e-05 0)
(1.95839e-05 1.34926e-05 0)
(1.99277e-05 1.3873e-05 0)
(2.02746e-05 1.42577e-05 0)
(2.06244e-05 1.46471e-05 0)
(2.09768e-05 1.50414e-05 0)
(2.13317e-05 1.54409e-05 0)
(2.16886e-05 1.58458e-05 0)
(2.20473e-05 1.6256e-05 0)
(2.24074e-05 1.66716e-05 0)
(2.27683e-05 1.70922e-05 0)
(2.31249e-05 1.75163e-05 -1.03792e-20)
(1.57086e-05 9.79012e-06 0)
(1.60532e-05 1.01752e-05 0)
(1.63998e-05 1.05552e-05 0)
(1.67475e-05 1.09318e-05 0)
(1.7097e-05 1.13069e-05 0)
(1.7448e-05 1.16817e-05 0)
(1.78008e-05 1.20575e-05 0)
(1.81553e-05 1.2435e-05 0)
(1.85117e-05 1.28151e-05 0)
(1.887e-05 1.31985e-05 0)
(1.92301e-05 1.35858e-05 0)
(1.95921e-05 1.39773e-05 0)
(1.99559e-05 1.43737e-05 0)
(2.03214e-05 1.47751e-05 0)
(2.06886e-05 1.51821e-05 0)
(2.10574e-05 1.55948e-05 0)
(2.14276e-05 1.60135e-05 0)
(2.17989e-05 1.64385e-05 0)
(2.21707e-05 1.68699e-05 0)
(2.25371e-05 1.73067e-05 -1.05389e-20)
(1.46786e-05 9.3561e-06 0)
(1.50691e-05 9.75649e-06 0)
(1.54575e-05 1.0151e-05 0)
(1.58428e-05 1.05411e-05 0)
(1.62263e-05 1.09289e-05 0)
(1.6608e-05 1.13157e-05 0)
(1.69887e-05 1.17027e-05 0)
(1.73686e-05 1.20911e-05 0)
(1.77481e-05 1.24816e-05 0)
(1.81274e-05 1.28751e-05 0)
(1.85069e-05 1.32722e-05 0)
(1.88867e-05 1.36735e-05 0)
(1.9267e-05 1.40794e-05 0)
(1.96481e-05 1.44905e-05 0)
(2.00299e-05 1.49073e-05 0)
(2.04127e-05 1.53301e-05 0)
(2.07962e-05 1.57594e-05 0)
(2.11804e-05 1.61958e-05 0)
(2.1565e-05 1.664e-05 0)
(2.19434e-05 1.70913e-05 -1.07358e-20)
(1.36024e-05 8.85356e-06 0)
(1.40417e-05 9.27495e-06 0)
(1.44748e-05 9.68956e-06 0)
(1.49005e-05 1.00981e-05 0)
(1.5321e-05 1.05033e-05 0)
(1.57363e-05 1.09063e-05 0)
(1.61476e-05 1.13087e-05 0)
(1.65554e-05 1.17116e-05 0)
(1.69605e-05 1.2116e-05 0)
(1.73633e-05 1.25227e-05 0)
(1.77643e-05 1.29327e-05 0)
(1.81641e-05 1.33464e-05 0)
(1.8563e-05 1.37646e-05 0)
(1.89613e-05 1.41878e-05 0)
(1.93595e-05 1.46166e-05 0)
(1.97576e-05 1.50515e-05 0)
(2.0156e-05 1.54934e-05 0)
(2.05545e-05 1.59431e-05 0)
(2.09532e-05 1.64014e-05 0)
(2.13454e-05 1.68685e-05 -1.0972e-20)
(1.24966e-05 8.2853e-06 0)
(1.29859e-05 8.73303e-06 0)
(1.34652e-05 9.17284e-06 0)
(1.3933e-05 9.60465e-06 0)
(1.43922e-05 1.00317e-05 0)
(1.48429e-05 1.04551e-05 0)
(1.52868e-05 1.08767e-05 0)
(1.57244e-05 1.12977e-05 0)
(1.61568e-05 1.17194e-05 0)
(1.65848e-05 1.21426e-05 0)
(1.7009e-05 1.25683e-05 0)
(1.74303e-05 1.29972e-05 0)
(1.78491e-05 1.34302e-05 0)
(1.8266e-05 1.38678e-05 0)
(1.86816e-05 1.43107e-05 0)
(1.90962e-05 1.47598e-05 0)
(1.95103e-05 1.52159e-05 0)
(1.99241e-05 1.56801e-05 0)
(2.03379e-05 1.61537e-05 0)
(2.07456e-05 1.66372e-05 -1.12503e-20)
(1.13773e-05 7.65662e-06 0)
(1.19161e-05 8.13549e-06 0)
(1.24418e-05 8.60486e-06 0)
(1.29523e-05 9.06428e-06 0)
(1.34509e-05 9.51702e-06 0)
(1.3938e-05 9.96461e-06 0)
(1.44153e-05 1.04089e-05 0)
(1.48838e-05 1.08514e-05 0)
(1.53446e-05 1.12934e-05 0)
(1.57988e-05 1.17361e-05 0)
(1.62473e-05 1.21804e-05 0)
(1.6691e-05 1.26272e-05 0)
(1.71306e-05 1.30773e-05 0)
(1.75669e-05 1.35316e-05 0)
(1.80007e-05 1.39908e-05 0)
(1.84325e-05 1.44558e-05 0)
(1.88629e-05 1.49276e-05 0)
(1.92925e-05 1.54075e-05 0)
(1.97219e-05 1.5897e-05 0)
(2.01464e-05 1.63971e-05 -1.15732e-20)
(1.02591e-05 6.97508e-06 0)
(1.08448e-05 7.48856e-06 0)
(1.14152e-05 7.9906e-06 0)
(1.1968e-05 8.48144e-06 0)
(1.25059e-05 8.96347e-06 0)
(1.30297e-05 9.43867e-06 0)
(1.3541e-05 9.90893e-06 0)
(1.4041e-05 1.03759e-05 0)
(1.4531e-05 1.08412e-05 0)
(1.50121e-05 1.13059e-05 0)
(1.54854e-05 1.17713e-05 0)
(1.5952e-05 1.22384e-05 0)
(1.64129e-05 1.2708e-05 0)
(1.6869e-05 1.3181e-05 0)
(1.73213e-05 1.36583e-05 0)
(1.77704e-05 1.41408e-05 0)
(1.82174e-05 1.46296e-05 0)
(1.8663e-05 1.51261e-05 0)
(1.91081e-05 1.56318e-05 0)
(1.95505e-05 1.61485e-05 -1.1944e-20)
(9.26613e-06 6.35493e-06 0)
(9.88695e-06 6.8982e-06 0)
(1.04907e-05 7.42692e-06 0)
(1.10762e-05 7.94434e-06 0)
(1.16452e-05 8.45185e-06 0)
(1.21985e-05 8.95151e-06 0)
(1.27374e-05 9.44508e-06 0)
(1.32632e-05 9.93427e-06 0)
(1.37771e-05 1.04206e-05 0)
(1.42803e-05 1.09054e-05 0)
(1.4774e-05 1.13899e-05 0)
(1.52595e-05 1.1875e-05 0)
(1.57378e-05 1.23618e-05 0)
(1.621e-05 1.28512e-05 0)
(1.66771e-05 1.33439e-05 0)
(1.71401e-05 1.3841e-05 0)
(1.76002e-05 1.43434e-05 0)
(1.80583e-05 1.48525e-05 0)
(1.85157e-05 1.53698e-05 0)
(1.89726e-05 1.58979e-05 -1.22401e-20)
(7.79506e-06 5.31903e-06 0)
(8.54287e-06 5.92945e-06 0)
(9.17578e-06 6.48534e-06 0)
(9.79142e-06 7.02612e-06 0)
(1.03896e-05 7.55657e-06 0)
(1.09713e-05 8.07758e-06 0)
(1.15372e-05 8.59089e-06 0)
(1.20885e-05 9.09798e-06 0)
(1.26261e-05 9.60034e-06 0)
(1.31511e-05 1.00993e-05 0)
(1.36648e-05 1.0596e-05 0)
(1.41683e-05 1.10917e-05 0)
(1.46626e-05 1.15872e-05 0)
(1.5149e-05 1.20835e-05 0)
(1.56285e-05 1.25812e-05 0)
(1.61023e-05 1.30814e-05 0)
(1.65713e-05 1.35846e-05 0)
(1.70369e-05 1.4092e-05 0)
(1.75002e-05 1.46046e-05 0)
(1.79628e-05 1.51236e-05 0)
(1.84258e-05 1.56515e-05 -1.23103e-20)
(7.26479e-06 5.00751e-06 0)
(7.98799e-06 5.61019e-06 0)
(8.61653e-06 6.16719e-06 0)
(9.22998e-06 6.71193e-06 0)
(9.82764e-06 7.24802e-06 0)
(1.04102e-05 7.77589e-06 0)
(1.09779e-05 8.29678e-06 0)
(1.15316e-05 8.81183e-06 0)
(1.2072e-05 9.32219e-06 0)
(1.26001e-05 9.82894e-06 0)
(1.31168e-05 1.03331e-05 0)
(1.36232e-05 1.08355e-05 0)
(1.41203e-05 1.13371e-05 0)
(1.46092e-05 1.18385e-05 0)
(1.50909e-05 1.23405e-05 0)
(1.55665e-05 1.28438e-05 0)
(1.60372e-05 1.33489e-05 0)
(1.65042e-05 1.38567e-05 0)
(1.69688e-05 1.4368e-05 0)
(1.74326e-05 1.48837e-05 0)
(1.7897e-05 1.54054e-05 -1.22635e-20)
(6.79401e-06 4.70746e-06 0)
(7.49046e-06 5.30199e-06 0)
(8.10799e-06 5.85775e-06 0)
(8.71368e-06 6.40425e-06 0)
(9.30569e-06 6.94416e-06 0)
(9.88447e-06 7.47738e-06 0)
(1.04498e-05 8.00463e-06 0)
(1.10022e-05 8.52667e-06 0)
(1.15421e-05 9.04428e-06 0)
(1.20703e-05 9.55826e-06 0)
(1.25876e-05 1.00694e-05 0)
(1.30948e-05 1.05783e-05 0)
(1.35928e-05 1.10858e-05 0)
(1.40826e-05 1.15923e-05 0)
(1.45653e-05 1.20984e-05 0)
(1.50418e-05 1.26047e-05 0)
(1.55133e-05 1.31116e-05 0)
(1.59811e-05 1.36197e-05 0)
(1.64463e-05 1.41295e-05 0)
(1.6911e-05 1.46413e-05 0)
(1.73763e-05 1.51563e-05 -1.22353e-20)
(6.3741e-06 4.42132e-06 0)
(7.04215e-06 5.00572e-06 0)
(7.6448e-06 5.55812e-06 0)
(8.23859e-06 6.10457e-06 0)
(8.821e-06 6.64674e-06 0)
(9.39226e-06 7.18394e-06 0)
(9.95171e-06 7.7164e-06 0)
(1.04996e-05 8.24444e-06 0)
(1.10362e-05 8.76848e-06 0)
(1.1562e-05 9.28902e-06 0)
(1.20775e-05 9.80656e-06 0)
(1.25834e-05 1.03216e-05 0)
(1.30807e-05 1.08346e-05 0)
(1.357e-05 1.13459e-05 0)
(1.40524e-05 1.1856e-05 0)
(1.45288e-05 1.23652e-05 0)
(1.50003e-05 1.28737e-05 0)
(1.54681e-05 1.33819e-05 0)
(1.59336e-05 1.38899e-05 0)
(1.63987e-05 1.43977e-05 0)
(1.68643e-05 1.49056e-05 -1.22269e-20)
(5.99784e-06 4.14999e-06 0)
(6.63685e-06 4.72322e-06 0)
(7.22172e-06 5.27061e-06 0)
(7.80049e-06 5.81534e-06 0)
(8.37021e-06 6.35817e-06 0)
(8.9309e-06 6.8979e-06 0)
(9.48159e-06 7.43428e-06 0)
(1.00223e-05 7.96719e-06 0)
(1.05531e-05 8.4967e-06 0)
(1.10741e-05 9.02298e-06 0)
(1.15858e-05 9.54627e-06 0)
(1.20888e-05 1.00668e-05 0)
(1.25836e-05 1.05849e-05 0)
(1.30712e-05 1.11007e-05 0)
(1.35522e-05 1.16144e-05 0)
(1.40276e-05 1.21262e-05 0)
(1.44983e-05 1.26362e-05 0)
(1.49656e-05 1.31443e-05 0)
(1.54306e-05 1.36503e-05 0)
(1.58954e-05 1.4154e-05 0)
(1.63608e-05 1.4655e-05 -1.2239e-20)
(5.65774e-06 3.89352e-06 0)
(6.26788e-06 4.45472e-06 0)
(6.83314e-06 4.99579e-06 0)
(7.39473e-06 5.53745e-06 0)
(7.94948e-06 6.0796e-06 0)
(8.49726e-06 6.62057e-06 0)
(9.03689e-06 7.15968e-06 0)
(9.56822e-06 7.69637e-06 0)
(1.0091e-05 8.23037e-06 0)
(1.06054e-05 8.76152e-06 0)
(1.11115e-05 9.28979e-06 0)
(1.16099e-05 9.8152e-06 0)
(1.21011e-05 1.03378e-05 0)
(1.25856e-05 1.08576e-05 0)
(1.30642e-05 1.13745e-05 0)