/*--------------------------------*- C++ -*----------------------------------*\
  =========                 |
  \\      /  F ield         | OpenFOAM: The Open Source CFD Toolbox
   \\    /   O peration     | Website:  https://openfoam.org
    \\  /    A nd           | Version:  9
     \\/     M anipulation  |
\*---------------------------------------------------------------------------*/
FoamFile
{
    format      ascii;
    class       volSymmTensorField;
    location    "15";
    object      sigma;
}
// * * * * * * * * * * * * * * * * * * * * * * * * * * * * * * * * * * * * * //

dimensions      [1 -1 -2 0 0 0 0];

internalField   nonuniform List<symmTensor> 
1000
(
(1.82822e+06 -1.27096e+06 -5.97009e-10 1.07634e+06 -8.89984e-10 249212)
(2.15789e+06 -976951 -3.85872e-10 582206 -6.1027e-10 205668)
(2.32077e+06 -749161 -2.2981e-10 355126 -4.19492e-10 187553)
(2.39056e+06 -576871 -1.19584e-10 174345 -2.78669e-10 170001)
(2.41602e+06 -438004 -3.36322e-11 69414.1 -1.72512e-10 159615)
(2.40648e+06 -329703 2.93948e-11 -9006.36 -9.26067e-11 150486)
(2.38255e+06 -241545 7.88969e-11 -59576.9 -3.04735e-11 143971)
(2.34536e+06 -171505 1.15804e-10 -96059.3 1.69224e-11 138364)
(2.30696e+06 -113245 1.45678e-10 -120099 5.49811e-11 134146)
(2.25596e+06 -64781.2 1.67748e-10 -143087 8.5374e-11 129293)
(2.30669e+06 -1.40229e+06 -5.45819e-10 1.08386e+06 -9.29027e-10 269172)
(2.54997e+06 -1.00923e+06 -3.49829e-10 611255 -6.01784e-10 228635)
(2.63567e+06 -719588 -1.65424e-10 408230 -3.79446e-10 210667)
(2.64369e+06 -513118 -4.23892e-11 235875 -2.22237e-10 191604)
(2.62276e+06 -354528 4.95555e-11 138900 -1.07893e-10 180210)
(2.57513e+06 -236571 1.13339e-10 63806.5 -2.52153e-11 169743)
(2.52029e+06 -144098 1.61252e-10 15400.4 3.69014e-11 162021)
(2.45754e+06 -73899.7 1.94617e-10 -22601.3 8.24134e-11 154938)
(2.39532e+06 -16916.1 2.20385e-10 -45813.4 1.17515e-10 149616)
(2.32652e+06 28650.5 2.37868e-10 -77153.5 1.45456e-10 142743)
(2.83991e+06 -1.50239e+06 -5.74571e-10 1.06042e+06 -9.52418e-10 293365)
(2.94834e+06 -1.00346e+06 -2.89763e-10 627727 -5.66149e-10 250826)
(2.93657e+06 -669078 -8.99595e-11 463232 -3.26966e-10 233625)
(2.87599e+06 -435549 4.10322e-11 314102 -1.60374e-10 214532)
(2.80277e+06 -263479 1.34465e-10 230652 -4.3119e-11 202470)
(2.71398e+06 -139911 1.96231e-10 163599 3.88487e-11 191066)
(2.62656e+06 -46711.9 2.40183e-10 119759 9.81561e-11 182316)
(2.53717e+06 21299.2 2.68474e-10 82370.2 1.39895e-10 173946)
(2.45319e+06 74251.9 2.88721e-10 60067.5 1.70383e-10 167593)
(2.36576e+06 117265 3.01834e-10 23767.8 1.95635e-10 159105)
(3.39518e+06 -1.52051e+06 -5.35185e-10 978317 -9.10887e-10 311426)
(3.34078e+06 -965707 -2.10687e-10 644890 -5.09955e-10 273268)
(3.22204e+06 -599978 -4.92545e-12 524377 -2.64215e-10 256874)
(3.08621e+06 -348767 1.27604e-10 407736 -9.60814e-11 238490)
(2.95516e+06 -170551 2.17357e-10 342179 1.82606e-11 225944)
(2.82297e+06 -46322.7 2.73814e-10 285756 9.57539e-11 213757)
(2.7016e+06 43685.6 3.11202e-10 247016 1.49484e-10 203923)
(2.58615e+06 107062 3.33e-10 210677 1.8583e-10 194317)
(2.4811e+06 153831 3.46434e-10 187670 2.10529e-10 186729)
(2.37828e+06 191884 3.5422e-10 148737 2.31504e-10 177056)
(3.9483e+06 -1.47093e+06 -4.31853e-10 835076 -8.14623e-10 321226)
(3.71331e+06 -891183 -1.12401e-10 639639 -4.28529e-10 292323)
(3.48795e+06 -511160 8.95577e-11 584758 -1.89996e-10 279327)
(3.27039e+06 -255382 2.14933e-10 510505 -3.06911e-11 262424)
(3.0785e+06 -79748.6 2.95394e-10 469081 7.39883e-11 249932)
(2.90161e+06 38299 3.42212e-10 425924 1.42068e-10 237142)
(2.74658e+06 120285 3.70109e-10 393013 1.86967e-10 226264)
(2.60622e+06 175596 3.83452e-10 357772 2.15744e-10 215437)
(2.48225e+06 213706 3.88788e-10 332627 2.33364e-10 206498)
(2.36596e+06 244732 3.90239e-10 291110 2.48853e-10 195714)
(4.45484e+06 -1.3658e+06 -3.65159e-10 688737 -7.04382e-10 328582)
(4.08016e+06 -766892 1.5785e-11 630278 -3.14206e-10 311270)
(3.73505e+06 -397614 1.96984e-10 652536 -1.01882e-10 302152)
(3.43025e+06 -154106 3.04227e-10 627147 3.62462e-11 287058)
(3.17422e+06 6406.48 3.672e-10 610961 1.22564e-10 274417)
(2.95237e+06 109542 3.98935e-10 581149 1.75427e-10 260896)
(2.76483e+06 177756 4.13883e-10 552461 2.07978e-10 248742)
(2.60166e+06 221322 4.16739e-10 517082 2.27074e-10 236585)
(2.46116e+06 248622 4.12913e-10 487838 2.36624e-10 226130)
(2.33382e+06 270893 4.07284e-10 443388 2.4573e-10 214285)
(4.92536e+06 -1.15269e+06 -2.01658e-10 558748 -5.17479e-10 338072)
(4.416e+06 -578018 1.80134e-10 634891 -1.61436e-10 331405)
(3.94387e+06 -251691 3.19761e-10 739037 2.22067e-12 325958)
(3.55145e+06 -45441.3 3.93327e-10 762426 1.02628e-10 312284)
(3.23371e+06 83875.4 4.29032e-10 766898 1.60696e-10 298791)
(2.97133e+06 161765 4.39753e-10 746205 1.92377e-10 284064)
(2.75609e+06 210184 4.38543e-10 717476 2.095e-10 270232)
(2.57454e+06 238670 4.29367e-10 679018 2.17428e-10 256538)
(2.42148e+06 253832 4.16022e-10 643126 2.18662e-10 244415)
(2.28603e+06 266474 4.03149e-10 594760 2.21171e-10 231516)
(5.40567e+06 -864548 1.36525e-10 494238 -2.50715e-10 358611)
(4.71717e+06 -333210 3.76929e-10 714963 1.66082e-11 360418)
(4.10866e+06 -79475.8 4.54435e-10 876306 1.14077e-10 354537)
(3.63311e+06 61395.7 4.77014e-10 933857 1.60252e-10 340205)
(3.26104e+06 142784 4.7549e-10 941164 1.81703e-10 323672)
(2.96618e+06 186676 4.60494e-10 917959 1.88449e-10 306503)
(2.73037e+06 211608 4.41532e-10 880423 1.89326e-10 290158)
(2.53632e+06 224108 4.20404e-10 833708 1.86586e-10 274535)
(2.37534e+06 228043 3.98649e-10 788038 1.80864e-10 260583)
(2.2351e+06 231974 3.79526e-10 734568 1.77801e-10 246655)
(5.77448e+06 -392830 3.67992e-10 431814 1.3968e-10 379436)
(4.93027e+06 -33454.6 5.99545e-10 912668 2.09851e-10 401104)
(4.17633e+06 86390.8 5.74015e-10 1.08406e+06 2.0532e-10 387326)
(3.63652e+06 134474 5.30129e-10 1.14326e+06 1.84517e-10 368660)
(3.23411e+06 156650 4.86647e-10 1.12194e+06 1.67582e-10 346034)
(2.9265e+06 165204 4.47224e-10 1.07775e+06 1.52323e-10 324991)
(2.6844e+06 168679 4.13394e-10 1.02058e+06 1.40764e-10 305471)
(2.48744e+06 168835 3.83733e-10 960320 1.31192e-10 287763)
(2.32479e+06 165755 3.56988e-10 903079 1.22035e-10 272122)
(2.18345e+06 164309 3.34192e-10 844291 1.15942e-10 257370)
(6.32002e+06 337698 6.09393e-10 707198 6.89016e-10 460789)
(5.0122e+06 392410 8.90736e-10 1.3621e+06 4.46103e-10 469765)
(4.16502e+06 238611 6.78509e-10 1.41878e+06 2.66098e-10 432476)
(3.61303e+06 165248 5.54528e-10 1.38903e+06 1.74313e-10 399891)
(3.2078e+06 126007 4.70037e-10 1.29501e+06 1.24981e-10 366790)
(2.90236e+06 110038 4.14124e-10 1.20532e+06 9.89825e-11 339586)
(2.66165e+06 102339 3.72542e-10 1.11902e+06 8.35387e-11 316187)
(2.46575e+06 99073 3.40328e-10 1.04221e+06 7.37176e-11 296330)
(2.30329e+06 95779.6 3.13116e-10 974686 6.56304e-11 279357)
(2.1614e+06 93824.9 2.89816e-10 912712 5.95246e-11 264156)
(-8421.63 2919.08 -4.03873e-11 -4770.38 -1.70674e-11 1938.41)
(6899.64 -10648.1 -4.74147e-11 918.053 -2.6335e-11 3758.04)
(68230.2 -33320.4 -5.91738e-11 -3407.13 -4.15727e-11 9163.74)
(166219 -51448.2 -6.59914e-11 -6985.48 -5.37264e-11 18159.8)
(280028 -62613 -6.73016e-11 -8839.22 -6.11871e-11 28841)
(399419 -68959.7 -6.51181e-11 -9731 -6.54001e-11 40157.6)
(516352 -71434.9 -6.05007e-11 -9886.56 -6.70063e-11 51317.7)
(628065 -71597.7 -5.46157e-11 -9504.81 -6.70596e-11 62032.8)
(730484 -69681.9 -4.46947e-11 -9299.66 -6.25904e-11 70169.1)
(825944 -68211.7 -3.033e-11 -7700.98 -5.37209e-11 75182.5)
(11231.4 -11483.7 -4.79315e-11 -640.694 -2.68722e-11 4048.87)
(90225 -61719.7 -7.03426e-11 37942.7 -6.14652e-11 14249.8)
(204870 -117086 -9.92373e-11 39573 -9.88979e-11 25018.6)
(326417 -159376 -1.21336e-10 27572.1 -1.27251e-10 35486.2)
(448622 -185357 -1.32957e-10 16082.8 -1.44575e-10 46150.9)
(564732 -199906 -1.37482e-10 5662.47 -1.54183e-10 56380.5)
(672448 -205113 -1.36179e-10 -2344.39 -1.57513e-10 66045.2)
(772105 -204776 -1.22532e-10 -8025.92 -1.48527e-10 70487.7)
(860018 -199118 -1.06858e-10 -12903.5 -1.36775e-10 74340.3)
(943383 -194607 -9.23774e-11 -13348 -1.26682e-10 78525.3)
(34656.2 -56140.6 -6.97047e-11 38247.9 -5.77259e-11 8989.64)
(172797 -153884 -1.18506e-10 81753.8 -1.24519e-10 24946.5)
(331003 -222419 -1.54523e-10 75714.5 -1.70712e-10 39222)
(476226 -268327 -1.80073e-10 46311.4 -2.01212e-10 50608.9)
(609900 -293590 -1.92799e-10 19137.4 -2.17784e-10 61181.1)
(727625 -305490 -1.91066e-10 -4500.66 -2.19287e-10 67275.7)
(831038 -306960 -1.78091e-10 -22395 -2.09422e-10 70110.1)
(923198 -302071 -1.6258e-10 -35321.8 -1.96884e-10 73117.6)
(1.00026e+06 -291382 -1.45484e-10 -45085.5 -1.82157e-10 75862.7)
(1.07484e+06 -282394 -1.29545e-10 -47913.3 -1.69571e-10 79361.6)
(82996.7 -126057 -9.92779e-11 127282 -1.06491e-10 19983.6)
(284434 -264261 -1.74934e-10 138383 -2.00095e-10 39293.3)
(478550 -336290 -2.13689e-10 114823 -2.48342e-10 55650)
(644267 -376674 -2.37175e-10 67088.9 -2.74788e-10 67634.4)
(787628 -393422 -2.36097e-10 25223.8 -2.75793e-10 72891.1)
(907012 -396570 -2.22565e-10 -11050.2 -2.6355e-10 74111.2)
(1.00672e+06 -389837 -2.05377e-10 -38938.1 -2.47414e-10 75577.5)
(1.09223e+06 -377349 -1.86361e-10 -59569.4 -2.2952e-10 77358)
(1.15916e+06 -359966 -1.66741e-10 -75153.3 -2.10549e-10 78934.2)
(1.22582e+06 -345273 -1.48499e-10 -81396.7 -1.94465e-10 81673.3)
(165463 -224805 -1.3965e-10 257676 -1.75435e-10 37222.4)
(434147 -384358 -2.34724e-10 200758 -2.82322e-10 57663.2)
(658214 -449066 -2.71638e-10 145368 -3.2507e-10 74505)
(838046 -476027 -2.78493e-10 74273.8 -3.31836e-10 80616.2)
(985442 -477864 -2.60954e-10 17004.3 -3.13913e-10 80528)
(1.10242e+06 -467367 -2.39717e-10 -31078 -2.9148e-10 80286.8)
(1.19573e+06 -448940 -2.1648e-10 -67491.3 -2.67165e-10 80490.6)
(1.27278e+06 -426349 -1.92608e-10 -94367.6 -2.42581e-10 81179.8)
(1.32871e+06 -400944 -1.69718e-10 -114411 -2.1872e-10 81739.2)
(1.38676e+06 -379343 -1.48485e-10 -123028 -1.98522e-10 83837.1)
(292748 -354382 -1.92984e-10 418862 -2.65728e-10 60912.8)
(626795 -506034 -2.92236e-10 270371 -3.65714e-10 80682.3)
(874635 -550493 -3.15994e-10 174395 -3.89604e-10 94407.8)
(1.06151e+06 -557193 -2.97315e-10 77601.1 -3.6696e-10 91087.5)
(1.20667e+06 -540076 -2.68857e-10 5671.81 -3.34992e-10 89251.7)
(1.31614e+06 -513526 -2.39084e-10 -52581.8 -3.014e-10 87540.4)
(1.39924e+06 -481930 -2.09356e-10 -95831 -2.68448e-10 86532.2)
(1.46484e+06 -448360 -1.80455e-10 -127450 -2.37025e-10 86187.5)
(1.50788e+06 -414698 -1.54378e-10 -150977 -2.08392e-10 85766)
(1.55549e+06 -385838 -1.30168e-10 -161156 -1.84097e-10 87241.1)
(473921 -513701 -2.60601e-10 592838 -3.76331e-10 90558.6)
(861653 -624509 -3.45067e-10 342891 -4.46963e-10 107979)
(1.12403e+06 -634677 -3.32182e-10 202359 -4.27391e-10 109340)
(1.30949e+06 -614160 -2.97779e-10 78618.3 -3.83741e-10 102833)
(1.44546e+06 -574945 -2.574e-10 -7031.57 -3.36348e-10 99068)
(1.54174e+06 -531031 -2.19019e-10 -73951.7 -2.91385e-10 95817.6)
(1.61044e+06 -485901 -1.83103e-10 -122249 -2.50119e-10 93624.3)
(1.66108e+06 -441523 -1.49718e-10 -157150 -2.12436e-10 92257.4)
(1.6893e+06 -400158 -1.21022e-10 -182842 -1.79713e-10 90922.3)
(1.72397e+06 -364272 -9.43069e-11 -193948 -1.51762e-10 91728.4)
(716283 -695950 -3.40493e-10 759993 -5.02305e-10 125405)
(1.13664e+06 -735098 -3.85203e-10 414552 -5.17373e-10 136136)
(1.40067e+06 -697658 -3.31307e-10 233148 -4.4918e-10 126309)
(1.5749e+06 -643845 -2.78709e-10 84791.5 -3.81609e-10 116514)
(1.69453e+06 -580340 -2.25969e-10 -12263.8 -3.18216e-10 110794)
(1.77211e+06 -518804 -1.7953e-10 -85936.6 -2.62402e-10 105979)
(1.82244e+06 -460801 -1.38339e-10 -137779 -2.13769e-10 102588)
(1.85492e+06 -406800 -1.01605e-10 -174572 -1.71041e-10 100203)
(1.86669e+06 -359054 -7.13296e-11 -202141 -1.35275e-10 97890.6)
(1.88591e+06 -317055 -4.29992e-11 -213402 -1.04572e-10 97989.9)
(1.02551e+06 -892378 -4.28757e-10 906147 -6.37489e-10 164967)
(1.44731e+06 -833940 -4.00476e-10 482358 -5.64291e-10 159112)
(1.69714e+06 -737733 -3.13278e-10 268925 -4.54728e-10 145248)
(1.84895e+06 -645996 -2.41023e-10 100674 -3.61671e-10 132284)
(1.94488e+06 -556906 -1.76031e-10 -4320.14 -2.82447e-10 124710)
(1.9983e+06 -478361 -1.22604e-10 -82638.1 -2.16893e-10 118324)
(2.0267e+06 -408731 -7.73403e-11 -136062 -1.62247e-10 113795)
(2.03774e+06 -347093 -3.89332e-11 -174303 -1.16118e-10 110256)
(2.03234e+06 -294569 -8.12744e-12 -202426 -7.85824e-11 107078)
(2.03294e+06 -247606 2.05524e-11 -216926 -4.57989e-11 105894)
(1.39752e+06 -1.08572e+06 -5.17873e-10 1.00786e+06 -7.69811e-10 207170)
(1.78874e+06 -916491 -4.01776e-10 537696 -5.96386e-10 182241)
(2.00605e+06 -755255 -2.79365e-10 309337 -4.4485e-10 165736)
(2.12282e+06 -622896 -1.87245e-10 129868 -3.266e-10 150139)
(2.18731e+06 -508066 -1.10815e-10 21985.6 -2.32686e-10 140981)
(2.21123e+06 -413589 -5.17096e-11 -57898.4 -1.58916e-10 133141)
(2.21416e+06 -334028 -3.86779e-12 -111355 -9.9857e-11 127473)
(2.20161e+06 -266951 3.4629e-11 -148733 -5.22302e-11 122941)
(2.17897e+06 -212536 6.41069e-11 -179171 -1.46353e-11 118626)
(2.15823e+06 -165324 9.00776e-11 -189943 1.60733e-11 116861)
(911302 -63278.7 -1.52919e-11 -7695.99 -4.3232e-11 79531.9)
(986413 -56455.9 -4.62151e-13 -5983.59 -3.256e-11 83616.8)
(1.05525e+06 -50528.1 1.29161e-11 -4764.12 -2.29536e-11 87310.4)
(1.11707e+06 -45147.2 2.49585e-11 -3860.77 -1.42666e-11 90603)
(1.17286e+06 -40158.6 3.59114e-11 -2967.93 -6.34801e-12 93586.7)
(1.22278e+06 -35692.9 4.57088e-11 -2316.35 7.56364e-13 96237.7)
(1.26755e+06 -31597.7 5.45517e-11 -1692.92 7.18235e-12 98621.2)
(1.30742e+06 -27904.8 6.24527e-11 -1212.63 1.29439e-11 100735)
(1.3429e+06 -24519.7 6.95452e-11 -787.447 1.81367e-11 102616)
(1.37423e+06 -21418.9 7.58754e-11 -456.031 2.28013e-11 104274)
(1.40175e+06 -18535 8.15344e-11 -186.205 2.70067e-11 105730)
(1.42564e+06 -15826.3 8.65723e-11 11.2001 3.07975e-11 106992)
(1.44607e+06 -13239.9 9.10481e-11 145.529 3.4222e-11 108070)
(1.46315e+06 -10736.8 9.49994e-11 214.233 3.73155e-11 108971)
(1.47693e+06 -8286.31 9.8452e-11 215.72 4.01023e-11 109697)
(1.48749e+06 -5884.17 1.0142e-10 160.077 4.25906e-11 110253)
(1.49478e+06 -3565.29 1.03877e-10 45.6053 4.47548e-11 110637)
(1.49914e+06 -1461.3 1.05789e-10 -41.5758 4.65245e-11 110874)
(1.50055e+06 150.639 1.06987e-10 -32.6559 4.77089e-11 110969)
(1.50041e+06 530.571 1.07232e-10 775.548 4.78546e-11 111073)
(1.01049e+06 -181201 -7.47858e-11 -17217.8 -1.11686e-10 81577.2)
(1.06586e+06 -163078 -5.57684e-11 -16781.9 -9.50672e-11 84668.1)
(1.11922e+06 -147122 -3.83398e-11 -15359.6 -8.01645e-11 87756.2)
(1.16685e+06 -132235 -2.24031e-11 -14634.2 -6.63734e-11 90450.8)
(1.211e+06 -118287 -7.51546e-12 -13275.8 -5.35718e-11 93040)
(1.25071e+06 -105686 5.89859e-12 -12382.2 -4.1982e-11 95326.7)
(1.28699e+06 -94023 1.8255e-11 -11304.3 -3.13253e-11 97451.7)
(1.31957e+06 -83432.8 2.94202e-11 -10488 -2.16594e-11 99342.7)
(1.349e+06 -73662.8 3.96336e-11 -9701.37 -1.27997e-11 101060)
(1.37529e+06 -64675.2 4.89138e-11 -9093.65 -4.70245e-12 102585)
(1.39873e+06 -56297.5 5.7413e-11 -8585.96 2.7621e-12 103946)
(1.41942e+06 -48433.2 6.52039e-11 -8216.32 9.67045e-12 105143)
(1.43753e+06 -40952 7.23912e-11 -7946.92 1.61183e-11 106193)
(1.45315e+06 -33764.5 7.90451e-11 -7756.84 2.21712e-11 107104)
(1.46639e+06 -26799.7 8.52246e-11 -7591.5 2.78771e-11 107888)
(1.47736e+06 -20055.1 9.09533e-11 -7338.98 3.32359e-11 108567)
(1.48606e+06 -13611.4 9.61854e-11 -6851.15 3.81761e-11 109159)
(1.49275e+06 -7748.55 1.00797e-10 -5749.65 4.24909e-11 109722)
(1.49716e+06 -2891.36 1.04504e-10 -3541.77 4.5819e-11 110300)
(1.5e+06 -310.946 1.06661e-10 1061.41 4.72296e-11 111077)
(1.12562e+06 -262296 -1.10141e-10 -53034 -1.51388e-10 81528.3)
(1.16093e+06 -237591 -8.98309e-11 -51747.8 -1.32215e-10 83818.8)
(1.19892e+06 -215438 -7.06055e-11 -47083.1 -1.14894e-10 86646.7)
(1.23177e+06 -194871 -5.31423e-11 -44032.9 -9.88699e-11 88984.1)
(1.26387e+06 -175283 -3.63455e-11 -39681.2 -8.37076e-11 91439)
(1.29269e+06 -157504 -2.11642e-11 -36333.5 -6.99019e-11 93573.6)
(1.31987e+06 -140873 -6.91798e-12 -32792.9 -5.70164e-11 95634.5)
(1.34453e+06 -125681 6.05902e-12 -29883.1 -4.52234e-11 97465.9)
(1.3673e+06 -111578 1.80887e-11 -27211.1 -3.42821e-11 99156.7)
(1.38794e+06 -98560.8 2.91291e-11 -25028.1 -2.41821e-11 100661)
(1.40672e+06 -86413.6 3.9358e-11 -23205.5 -1.47725e-11 102014)
(1.42363e+06 -75031.5 4.8834e-11 -21792.6 -5.98027e-12 103208)
(1.4388e+06 -64258.2 5.7678e-11 -20717.3 2.30194e-12 104262)
(1.4523e+06 -53984.8 6.59669e-11 -19921.5 1.01443e-11 105189)
(1.46419e+06 -44115.2 7.37751e-11 -19281.5 1.7602e-11 106010)
(1.47459e+06 -34613.3 8.1148e-11 -18569.7 2.46815e-11 106759)
(1.48341e+06 -25501.5 8.80727e-11 -17457.7 3.13236e-11 107477)
(1.49085e+06 -16923.6 9.45087e-11 -15282.8 3.73717e-11 108255)
(1.49624e+06 -9143.99 1.00233e-10 -11105.6 4.24859e-11 109180)
(1.5002e+06 -2513.16 1.05173e-10 -3297.01 4.62979e-11 110489)
(1.26031e+06 -319542 -1.27952e-10 -88285.8 -1.73732e-10 82874.4)
(1.27424e+06 -291236 -1.08427e-10 -87476.4 -1.53934e-10 84082.7)
(1.29629e+06 -265143 -8.89103e-11 -80328 -1.35646e-10 86491.1)
(1.3132e+06 -241342 -7.16357e-11 -76005.8 -1.18982e-10 88241.1)
(1.33229e+06 -218180 -5.4364e-11 -69233.8 -1.02839e-10 90410.4)
(1.34908e+06 -197158 -3.87944e-11 -63947.1 -8.81339e-11 92240.5)
(1.36614e+06 -177248 -2.38607e-11 -58245 -7.41891e-11 94122)
(1.3818e+06 -158975 -1.01701e-11 -53439.4 -6.13407e-11 95793.5)
(1.39694e+06 -141897 2.69661e-12 -48969.2 -4.9287e-11 97378.5)
(1.411e+06 -126073 1.46071e-11 -45215.6 -3.80721e-11 98797.4)
(1.42424e+06 -111270 2.57525e-11 -42012.1 -2.7536e-11 100090)
(1.43651e+06 -97392.8 3.61654e-11 -39432.4 -1.76225e-11 101239)
(1.44791e+06 -84276.4 4.59658e-11 -37381.7 -8.22423e-12 102265)
(1.45841e+06 -71798.5 5.52293e-11 -35781.9 7.28578e-13 103178)
(1.46802e+06 -59837.6 6.40367e-11 -34465.9 9.29702e-12 104002)
(1.47679e+06 -48302.1 7.24629e-11 -33148.5 1.75127e-11 104778)
(1.48452e+06 -37132.1 8.05302e-11 -31430 2.53523e-11 105548)
(1.49135e+06 -26255.5 8.833e-11 -28561.2 3.27878e-11 106419)
(1.49634e+06 -15765.7 9.57062e-11 -23573.7 3.95657e-11 107468)
(1.5003e+06 -4904.74 1.03303e-10 -14727.8 4.60531e-11 108973)
(1.40493e+06 -349223 -1.27523e-10 -130261 -1.76231e-10 84237.6)
(1.3966e+06 -320791 -1.11065e-10 -130091 -1.58158e-10 84249.4)
(1.403e+06 -293075 -9.26202e-11 -119550 -1.40518e-10 86338)
(1.40359e+06 -268668 -7.72093e-11 -113768 -1.25004e-10 87468.8)
(1.40964e+06 -244152 -6.08264e-11 -104094 -1.09408e-10 89381.2)
(1.41408e+06 -221999 -4.6207e-11 -96450 -9.52751e-11 90914.9)
(1.42072e+06 -200696 -3.17803e-11 -88129.9 -8.15957e-11 92634.9)
(1.427e+06 -181039 -1.84659e-11 -80953.1 -6.89028e-11 94164.3)
(1.43408e+06 -162516 -5.75684e-12 -74232.4 -5.68384e-11 95658.3)
(1.44106e+06 -145259 6.11928e-12 -68471.7 -4.55085e-11 97004.4)
(1.44823e+06 -129051 1.73458e-11 -63498.6 -3.47632e-11 98242.9)
(1.4553e+06 -113818 2.7922e-11 -59412.3 -2.45687e-11 99346.4)
(1.46229e+06 -99401 3.79527e-11 -56115.3 -1.4829e-11 100332)
(1.4691e+06 -85668.4 4.75106e-11 -53525.3 -5.47407e-12 101207)
(1.47568e+06 -72472.3 5.66844e-11 -51460.6 3.56721e-12 101994)
(1.48199e+06 -59648.5 6.55825e-11 -49621.8 1.23663e-11 102733)
(1.48779e+06 -47049.8 7.42747e-11 -47599.8 2.0951e-11 103467)
(1.49313e+06 -34362.8 8.299e-11 -44670.5 2.94508e-11 104297)
(1.49703e+06 -21577.5 9.16258e-11 -39971.4 3.76874e-11 105287)
(1.50032e+06 -7007.8 1.01402e-10 -31861.8 4.66563e-11 106715)
(1.55695e+06 -352871 -1.09783e-10 -168312 -1.61347e-10 86855.1)
(1.52542e+06 -327974 -9.88559e-11 -170510 -1.47302e-10 85345.2)
(1.5165e+06 -300855 -8.28279e-11 -157025 -1.31696e-10 87040.6)
(1.50044e+06 -278245 -7.08435e-11 -150590 -1.18855e-10 87396.2)
(1.49344e+06 -254371 -5.6612e-11 -138662 -1.05051e-10 88938.3)
(1.48533e+06 -232881 -4.40978e-11 -129122 -9.26393e-11 90080.4)
(1.48133e+06 -211835 -3.12479e-11 -118633 -8.02828e-11 91545.2)
(1.47795e+06 -192253 -1.92612e-11 -109359 -6.87008e-11 92862.6)
(1.47661e+06 -173630 -7.59962e-12 -100591 -5.75212e-11 94202.4)
(1.47614e+06 -156143 3.44181e-12 -92904.2 -4.68931e-11 95429.2)
(1.47681e+06 -139621 1.40111e-11 -86170.3 -3.66963e-11 96575)
(1.47819e+06 -124011 2.40775e-11 -80524 -2.69151e-11 97602.1)
(1.48026e+06 -109178 3.37218e-11 -75903.8 -1.74709e-11 98518.8)
(1.48283e+06 -94986.8 4.30051e-11 -72257.7 -8.29492e-12 99325)
(1.48579e+06 -81275.5 5.20169e-11 -69437 6.92537e-13 100036)
(1.48904e+06 -67818.3 6.08919e-11 -67190.8 9.60337e-12 100684)
(1.4923e+06 -54398.2 6.97371e-11 -65174.1 1.85172e-11 101302)
(1.49557e+06 -40497.3 7.88943e-11 -62795.8 2.77079e-11 101974)
(1.49801e+06 -26046.1 8.83122e-11 -59386 3.70722e-11 102746)
(1.50025e+06 -8646.06 9.96144e-11 -53579.2 4.80908e-11 103863)
(1.70917e+06 -330476 -7.56589e-11 -200210 -1.29945e-10 90655.8)
(1.65452e+06 -313077 -7.27775e-11 -206819 -1.22301e-10 87306.3)
(1.6314e+06 -288871 -6.04855e-11 -191529 -1.10033e-10 88482.4)
(1.59918e+06 -270338 -5.32982e-11 -185168 -1.01248e-10 87960.6)
(1.57954e+06 -249238 -4.25125e-11 -171900 -9.05036e-11 89004.1)
(1.55931e+06 -230127 -3.31158e-11 -160733 -8.08795e-11 89716.1)
(1.5448e+06 -210951 -2.28356e-11 -148381 -7.08665e-11 90869.7)
(1.53194e+06 -192768 -1.29757e-11 -137072 -6.12491e-11 91956.2)
(1.52216e+06 -175241 -3.10784e-12 -126321 -5.17388e-11 93115.6)
(1.5142e+06 -158565 6.44675e-12 -116721 -4.25035e-11 94204)
(1.50821e+06 -142671 1.57524e-11 -108246 -3.34887e-11 95233.2)
(1.50369e+06 -127537 2.47507e-11 -101061 -2.47002e-11 96158.3)
(1.50055e+06 -113073 3.34803e-11 -95155.9 -1.60901e-11 96975.9)
(1.49854e+06 -99149.8 4.19904e-11 -90522.6 -7.59398e-12 97677.1)
(1.4975e+06 -85605.2 5.03597e-11 -87067.8 8.71114e-13 98268.3)
(1.49728e+06 -72167.9 5.87415e-11 -84624.5 9.45188e-12 98767.2)
(1.49763e+06 -58576 6.72725e-11 -82949.6 1.82727e-11 99197)
(1.49844e+06 -44158.9 7.63674e-11 -81653.5 2.77223e-11 99612.8)
(1.4992e+06 -28821.1 8.60275e-11 -80284.8 3.77678e-11 100048)
(1.50012e+06 -9698.32 9.80907e-11 -77925.9 5.02139e-11 100675)
(1.85547e+06 -283692 -2.68286e-11 -220073 -8.43176e-11 96074.2)
(1.77929e+06 -277656 -3.42376e-11 -233120 -8.52618e-11 90645.4)
(1.74329e+06 -258866 -2.7142e-11 -218781 -7.75541e-11 90975.2)
(1.69644e+06 -245944 -2.55088e-11 -213049 -7.36451e-11 89557.3)
(1.66469e+06 -229522 -1.93405e-11 -200313 -6.69567e-11 89857.7)
(1.63333e+06 -214125 -1.37903e-11 -188642 -6.07894e-11 90024.4)
(1.60864e+06 -198299 -6.99197e-12 -175672 -5.39245e-11 90700.6)
(1.58672e+06 -182806 -2.81522e-14 -163186 -4.69886e-11 91447.9)
(1.56867e+06 -167587 7.29492e-12 -151070 -3.9864e-11 92337)
(1.55333e+06 -152792 1.47024e-11 -139906 -3.26794e-11 93231.8)
(1.54068e+06 -138473 2.21539e-11 -129846 -2.5453e-11 94111.1)
(1.53023e+06 -124643 2.95636e-11 -121138 -1.82068e-11 94918.2)
(1.52179e+06 -111277 3.69175e-11 -113885 -1.09278e-11 95629.9)
(1.51507e+06 -98277.1 4.42311e-11 -108173 -3.56611e-12 96222.1)
(1.50988e+06 -85503.6 5.15649e-11 -104014 3.95575e-12 96685.9)
(1.506e+06 -72675.9 5.90629e-11 -101372 1.18007e-11 97018.5)
(1.50327e+06 -59517 6.68774e-11 -100147 2.01266e-11 97229.4)
(1.50145e+06 -45273.6 7.54473e-11 -100206 2.93959e-11 97334.2)
(1.50047e+06 -29846.6 8.48305e-11 -101322 3.96415e-11 97360.6)
(1.49993e+06 -10137.3 9.69057e-11 -103159 5.28397e-11 97376.9)
(1.99093e+06 -217036 3.33539e-11 -224019 -2.83208e-11 103304)
(1.89546e+06 -224452 1.46409e-11 -244468 -3.89317e-11 95753)
(1.84754e+06 -214950 1.40477e-11 -237544 -3.75122e-11 94388)
(1.7889e+06 -208740 9.8112e-12 -233385 -3.88559e-11 92078.5)
(1.74556e+06 -198957 1.01687e-11 -222633 -3.73079e-11 91445)
(1.70461e+06 -188195 1.15088e-11 -210747 -3.50414e-11 91092.8)
(1.67053e+06 -176482 1.44509e-11 -197419 -3.17333e-11 91285.8)
(1.64043e+06 -164260 1.8271e-11 -184056 -2.77541e-11 91690.5)
(1.61472e+06 -151864 2.28037e-11 -170959 -2.32587e-11 92282.7)
(1.59247e+06 -139481 2.77862e-11 -158706 -1.83795e-11 92938.9)
(1.57348e+06 -127269 3.30796e-11 -147553 -1.32104e-11 93612.4)
(1.55728e+06 -115296 3.8568e-11 -137803 -7.79999e-12 94240)
(1.54361e+06 -103583 4.41958e-11 -129636 -2.16249e-12 94784.8)
(1.53217e+06 -92067.2 4.99519e-11 -123226 3.73683e-12 95210)
(1.52276e+06 -80634.4 5.58756e-11 -118684 9.97041e-12 95492.9)
(1.51512e+06 -69016.6 6.20932e-11 -116124 1.67066e-11 95609.1)
(1.50921e+06 -56941 6.87649e-11 -115598 2.41281e-11 95553.8)
(1.50463e+06 -43637.5 7.63084e-11 -117264 3.27291e-11 95298)
(1.50185e+06 -29004.6 8.48513e-11 -121126 4.26165e-11 94865.7)
(1.49975e+06 -9926.17 9.61557e-11 -127528 5.57957e-11 94200.8)
(2.10374e+06 -131435 1.02512e-10 -216185 3.69136e-11 111202)
(2.00673e+06 -147828 7.81596e-11 -232649 1.97745e-11 103964)
(1.94536e+06 -151609 6.69455e-11 -239971 1.29288e-11 99881.1)
(1.88007e+06 -153077 5.68275e-11 -241248 6.57779e-12 96421.8)
(1.82523e+06 -152235 4.98017e-11 -236975 1.9935e-12 94240.9)
(1.77523e+06 -148707 4.52639e-11 -228670 -8.71989e-13 92866.2)
(1.73166e+06 -143309 4.28877e-11 -217414 -2.30177e-12 92223.4)
(1.6932e+06 -136352 4.2249e-11 -204678 -2.43884e-12 92052.4)
(1.65975e+06 -128319 4.30028e-11 -191273 -1.51852e-12 92234.2)
(1.63059e+06 -119567 4.47973e-11 -178080 2.64928e-13 92614.3)
(1.60536e+06 -110388 4.73815e-11 -165643 2.75175e-12 93098.9)
(1.58357e+06 -100987 5.0541e-11 -154470 5.82302e-12 93594.3)
(1.56486e+06 -91486.8 5.41386e-11 -144919 9.40991e-12 94035.1)
(1.54888e+06 -81918 5.80916e-11 -137322 1.34995e-11 94359.2)
(1.5354e+06 -72232.6 6.23922e-11 -131933 1.81352e-11 94523.3)
(1.5241e+06 -62224.1 6.71093e-11 -129049 2.34598e-11 94475.1)
(1.51505e+06 -51660.4 7.23907e-11 -128901 2.96598e-11 94191.8)
(1.50771e+06 -39829.5 7.8586e-11 -131959 3.72157e-11 93595.8)
(1.50312e+06 -26640.1 8.58872e-11 -138477 4.63041e-11 92706.5)
(1.49948e+06 -9163.77 9.58196e-11 -149492 5.88294e-11 91341.3)
(2.1678e+06 -60764.7 1.56133e-10 -192415 8.62967e-11 118516)
(2.07844e+06 -69470.3 1.37594e-10 -209580 7.49692e-11 111680)
(2.00819e+06 -85679.9 1.17101e-10 -226339 6.02518e-11 105747)
(1.94079e+06 -93309.8 1.0266e-10 -233534 5.03359e-11 101324)
(1.88116e+06 -98668.9 9.0965e-11 -233677 4.17605e-11 98239.8)
(1.82657e+06 -101045 8.1987e-11 -229216 3.50485e-11 96049.9)
(1.77805e+06 -101071 7.54546e-11 -220859 2.99514e-11 94704.9)
(1.73455e+06 -99159.5 7.09047e-11 -210296 2.63038e-11 93926)
(1.69609e+06 -95683.1 6.80797e-11 -198391 2.39623e-11 93596.9)
(1.66207e+06 -91032.2 6.66163e-11 -186151 2.27334e-11 93550.3)
(1.6322e+06 -85509.6 6.62634e-11 -174244 2.2471e-11 93680.9)
(1.60602e+06 -79370.2 6.67792e-11 -163303 2.30422e-11 93880)
(1.58324e+06 -72788.1 6.79943e-11 -153811 2.43616e-11 94067.2)
(1.56349e+06 -65854.9 6.97852e-11 -146226 2.63914e-11 94163.2)
(1.54659e+06 -58584.3 7.21042e-11 -140939 2.91523e-11 94108)
(1.53219e+06 -50851 7.49645e-11 -138409 3.27512e-11 93825.7)
(1.52046e+06 -42491 7.84779e-11 -139039 3.73586e-11 93275.8)
(1.51077e+06 -32951.1 8.28705e-11 -143563 4.33704e-11 92338.1)
(1.50456e+06 -22167.5 8.83689e-11 -152475 5.10091e-11 91021.7)
(1.49942e+06 -7652.06 9.61178e-11 -167455 6.19114e-11 89023.3)
(2.13513e+06 8723.76 1.95545e-10 -165834 1.26381e-10 121330)
(2.06493e+06 -1348.64 1.78188e-10 -201824 1.17961e-10 112986)
(2.00037e+06 -21180.1 1.56227e-10 -219186 1.014e-10 107208)
(1.93911e+06 -34159.1 1.39244e-10 -228946 8.87664e-11 102683)
(1.88388e+06 -44372.4 1.25096e-10 -230843 7.7558e-11 99521.9)
(1.83257e+06 -51598.4 1.13516e-10 -227998 6.81052e-11 97217)
(1.78624e+06 -56255.8 1.04369e-10 -221118 6.0303e-11 95722.9)
(1.74398e+06 -58765.5 9.7208e-11 -211853 5.39891e-11 94774.4)
(1.70601e+06 -59461.5 9.18253e-11 -201052 4.90578e-11 94266.1)
(1.67185e+06 -58714.5 8.78927e-11 -189722 4.53427e-11 94038.7)
(1.6414e+06 -56817.6 8.51857e-11 -178550 4.27194e-11 93992.4)
(1.6143e+06 -54030.9 8.34731e-11 -168205 4.10654e-11 94020.1)
(1.59039e+06 -50543.9 8.25926e-11 -159213 4.03003e-11 94040.9)
(1.56936e+06 -46483.2 8.24083e-11 -152093 4.03771e-11 93971.5)
(1.55114e+06 -41898.1 8.28606e-11 -147300 4.13084e-11 93747.3)
(1.53542e+06 -36749.4 8.39124e-11 -145392 4.31595e-11 93281.3)
(1.52251e+06 -30922.7 8.56588e-11 -146869 4.60896e-11 92525.2)
(1.51173e+06 -24071.5 8.81909e-11 -152616 5.03744e-11 91335.6)
(1.50486e+06 -16203.4 9.17264e-11 -163321 5.62379e-11 89711.2)
(1.49915e+06 -5583.08 9.68904e-11 -180913 6.48208e-11 87288.9)
(2.11045e+06 78418.2 2.36378e-10 -134357 1.66709e-10 125185)
(2.04578e+06 62492.5 2.15964e-10 -176186 1.55565e-10 116275)
(1.99108e+06 39072.2 1.93017e-10 -197739 1.37955e-10 110395)
(1.93463e+06 21776.8 1.73875e-10 -212016 1.234e-10 105461)
(1.88381e+06 7467.17 1.57672e-10 -217741 1.10301e-10 101964)
(1.83518e+06 -3911.55 1.43775e-10 -218336 9.87295e-11 99286.7)
(1.7908e+06 -12595.1 1.32305e-10 -214341 8.87668e-11 97457.9)
(1.74967e+06 -19037.2 1.22779e-10 -207507 8.02302e-11 96193)
(1.71228e+06 -23501.9 1.15074e-10 -198679 7.30864e-11 95403.5)
(1.67823e+06 -26340.1 1.08879e-10 -188930 6.7194e-11 94924.7)
(1.64755e+06 -27820.4 1.04004e-10 -178998 6.24628e-11 94657.5)
(1.61996e+06 -28200.3 1.00226e-10 -169621 5.87863e-11 94489.3)
(1.59537e+06 -27678.9 9.73865e-11 -161396 5.60927e-11 94334.2)
(1.57356e+06 -26411.4 9.53378e-11 -154915 5.43303e-11 94102)
(1.55448e+06 -24489.9 9.39976e-11 -150724 5.34979e-11 93718.3)
(1.53791e+06 -21956 9.32867e-11 -149450 5.36215e-11 93089.7)
(1.52418e+06 -18755.2 9.32641e-11 -151736 5.4841e-11 92150.1)
(1.51268e+06 -14798.5 9.38657e-11 -158462 5.72645e-11 90755.4)
(1.50538e+06 -10045.2 9.5368e-11 -170410 6.11778e-11 88903.6)
(1.4991e+06 -3471.21 9.78739e-11 -189977 6.72658e-11 86137.5)
(2.06686e+06 132455 2.64677e-10 -107915 1.9567e-10 127213)
(2.01083e+06 116156 2.45078e-10 -154495 1.85563e-10 118112)
(1.96534e+06 91624.4 2.22642e-10 -178673 1.68303e-10 112337)
(1.91519e+06 72277.7 2.03008e-10 -195942 1.53273e-10 107300)
(1.86998e+06 55280.9 1.85835e-10 -204304 1.39179e-10 103703)
(1.82552e+06 40927.4 1.70592e-10 -207348 1.26278e-10 100873)
(1.7845e+06 29074.8 1.57553e-10 -205557 1.14761e-10 98880.9)
(1.74586e+06 19403.7 1.46307e-10 -200690 1.0453e-10 97439)
(1.71033e+06 11717.4 1.36807e-10 -193579 9.5613e-11 96473.3)
(1.67759e+06 5727.47 1.28789e-10 -185309 8.7919e-11 95822.3)
(1.64777e+06 1202.37 1.22104e-10 -176628 8.13936e-11 95392.1)
(1.6207e+06 -2095.14 1.16553e-10 -168303 7.59536e-11 95071)
(1.59635e+06 -4360.83 1.1199e-10 -160957 7.15403e-11 94773.8)