/*--------------------------------*- C++ -*----------------------------------*\
  =========                 |
  \\      /  F ield         | OpenFOAM: The Open Source CFD Toolbox
   \\    /   O peration     | Website:  https://openfoam.org
    \\  /    A nd           | Version:  9
     \\/     M anipulation  |
\*---------------------------------------------------------------------------*/
FoamFile
{
    format      ascii;
    class       volScalarField;
    location    "15";
    object      sigmaEq;
}
// * * * * * * * * * * * * * * * * * * * * * * * * * * * * * * * * * * * * * //

dimensions      [1 -1 -2 0 0 0 0];

internalField   nonuniform List<scalar> 
1000
(
2.59178e+06
2.466e+06
2.43001e+06
2.43302e+06
2.42457e+06
2.4085e+06
2.38398e+06
2.35189e+06
2.31876e+06
2.27788e+06
3.00907e+06
2.77532e+06
2.64462e+06
2.58766e+06
2.53885e+06
2.49396e+06
2.44765e+06
2.39973e+06
2.34971e+06
2.30215e+06
3.4484e+06
3.06964e+06
2.84271e+06
2.71982e+06
2.62627e+06
2.54831e+06
2.47744e+06
2.4106e+06
2.34474e+06
2.28638e+06
3.85145e+06
3.34747e+06
3.02497e+06
2.83216e+06
2.68927e+06
2.57522e+06
2.47756e+06
2.3909e+06
2.30933e+06
2.24031e+06
4.24816e+06
3.60808e+06
3.19255e+06
2.92555e+06
2.72911e+06
2.57612e+06
2.45009e+06
2.34272e+06
2.24609e+06
2.16604e+06
4.6115e+06
3.85595e+06
3.3435e+06
2.9996e+06
2.74706e+06
2.55355e+06
2.39866e+06
2.27064e+06
2.15971e+06
2.06869e+06
4.90568e+06
4.06678e+06
3.45767e+06
3.04022e+06
2.73498e+06
2.50432e+06
2.32385e+06
2.17789e+06
2.0552e+06
1.95441e+06
5.20087e+06
4.2303e+06
3.52503e+06
3.04173e+06
2.69385e+06
2.43434e+06
2.2354e+06
2.07708e+06
1.94705e+06
1.83935e+06
5.41199e+06
4.29668e+06
3.49634e+06
2.96679e+06
2.60303e+06
2.33625e+06
2.13421e+06
1.97409e+06
1.84359e+06
1.73343e+06
5.76972e+06
4.22357e+06
3.37551e+06
2.86467e+06
2.51863e+06
2.26604e+06
2.07223e+06
1.91678e+06
1.78886e+06
1.67812e+06
10411.4
19157.3
87864.3
184980
292815
404656
513589
617561
713703
804174
22425.3
126339
266586
403989
527315
637701
734906
824208
901327
974419
101090
296190
473530
631661
764537
876689
969862
1.04896e+06
1.1116e+06
1.1718e+06
237473
505097
704694
870902
1.00575e+06
1.11522e+06
1.20112e+06
1.27077e+06
1.32129e+06
1.37108e+06
434034
742655
953601
1.12176e+06
1.25118e+06
1.3514e+06
1.42665e+06
1.485e+06
1.52324e+06
1.56258e+06
689673
999420
1.20908e+06
1.37346e+06
1.49133e+06
1.57872e+06
1.64092e+06
1.6864e+06
1.71203e+06
1.74034e+06
999181
1.2713e+06
1.46707e+06
1.61784e+06
1.72005e+06
1.79192e+06
1.83931e+06
1.8707e+06
1.88354e+06
1.90005e+06
1.35274e+06
1.55598e+06
1.7203e+06
1.84872e+06
1.93097e+06
1.98495e+06
2.01645e+06
2.03301e+06
2.03375e+06
2.03763e+06
1.74387e+06
1.85308e+06
1.96583e+06
2.06256e+06
2.12013e+06
2.15383e+06
2.16813e+06
2.16935e+06
2.15838e+06
2.15028e+06
2.15436e+06
2.15778e+06
2.20325e+06
2.25741e+06
2.28463e+06
2.29459e+06
2.29006e+06
2.27446e+06
2.2545e+06
2.22926e+06
885447
955783
1.02087e+06
1.07964e+06
1.13278e+06
1.18054e+06
1.2234e+06
1.26168e+06
1.29578e+06
1.32595e+06
1.35247e+06
1.37553e+06
1.39528e+06
1.41183e+06
1.4252e+06
1.43549e+06
1.44264e+06
1.44691e+06
1.44828e+06
1.44764e+06
1.03098e+06
1.07347e+06
1.11618e+06
1.15553e+06
1.19247e+06
1.22657e+06
1.25806e+06
1.28683e+06
1.31306e+06
1.33676e+06
1.35807e+06
1.37703e+06
1.39372e+06
1.40822e+06
1.42052e+06
1.43069e+06
1.43861e+06
1.4443e+06
1.44716e+06
1.44707e+06
1.20629e+06
1.22226e+06
1.24219e+06
1.26079e+06
1.27972e+06
1.29806e+06
1.31606e+06
1.33326e+06
1.34972e+06
1.36522e+06
1.37975e+06
1.39322e+06
1.40562e+06
1.41691e+06
1.42701e+06
1.43586e+06
1.44314e+06
1.44861e+06
1.45103e+06
1.44997e+06
1.38691e+06
1.38005e+06
1.37991e+06
1.37965e+06
1.3816e+06
1.38454e+06
1.389e+06
1.39421e+06
1.40031e+06
1.40686e+06
1.41382e+06
1.42093e+06
1.42811e+06
1.43519e+06
1.44199e+06
1.44834e+06
1.45374e+06
1.45783e+06
1.45907e+06
1.45714e+06
1.56185e+06
1.53565e+06
1.51814e+06
1.50136e+06
1.48822e+06
1.47704e+06
1.46881e+06
1.46248e+06
1.45837e+06
1.45587e+06
1.45497e+06
1.45531e+06
1.45675e+06
1.45902e+06
1.46189e+06
1.46505e+06
1.46797e+06
1.4702e+06
1.47024e+06
1.46786e+06
1.7248e+06
1.68238e+06
1.65026e+06
1.61922e+06
1.59317e+06
1.56949e+06
1.54996e+06
1.53308e+06
1.51945e+06
1.50832e+06
1.49972e+06
1.49326e+06
1.48876e+06
1.48593e+06
1.48448e+06
1.48411e+06
1.48426e+06
1.48452e+06
1.48367e+06
1.48147e+06
1.87152e+06
1.81595e+06
1.77239e+06
1.72928e+06
1.69264e+06
1.65813e+06
1.62865e+06
1.60227e+06
1.57989e+06
1.56071e+06
1.54482e+06
1.53181e+06
1.5215e+06
1.5136e+06
1.50782e+06
1.50385e+06
1.50127e+06
1.49967e+06
1.49832e+06
1.49686e+06
1.99827e+06
1.93245e+06
1.88121e+06
1.82793e+06
1.78306e+06
1.73985e+06
1.70218e+06
1.66784e+06
1.63781e+06
1.61142e+06
1.58877e+06
1.56956e+06
1.55363e+06
1.54074e+06
1.53067e+06
1.52314e+06
1.51791e+06
1.51462e+06
1.51315e+06
1.51293e+06
2.10463e+06
2.02932e+06
1.97592e+06
1.91523e+06
1.8636e+06
1.81324e+06
1.76826e+06
1.72703e+06
1.69029e+06
1.6576e+06
1.62901e+06
1.60427e+06
1.58329e+06
1.56585e+06
1.55183e+06
1.541e+06
1.53337e+06
1.52862e+06
1.52731e+06
1.52862e+06
2.18668e+06
2.10711e+06
2.05364e+06
1.99198e+06
1.9362e+06
1.88176e+06
1.83108e+06
1.78399e+06
1.74106e+06
1.70231e+06
1.66785e+06
1.63761e+06
1.61152e+06
1.58947e+06
1.57142e+06
1.55723e+06
1.54712e+06
1.54088e+06
1.53978e+06
1.5428e+06
2.22363e+06
2.14888e+06
2.09365e+06
2.03417e+06
1.97736e+06
1.92198e+06
1.86951e+06
1.82011e+06
1.77444e+06
1.73265e+06
1.69498e+06
1.66148e+06
1.63221e+06
1.60715e+06
1.5864e+06
1.56991e+06
1.55814e+06
1.55096e+06
1.55017e+06
1.55464e+06
2.17172e+06
2.1269e+06
2.07602e+06
2.0236e+06
1.97192e+06
1.92083e+06
1.87172e+06
1.82482e+06
1.78087e+06
1.74014e+06
1.70298e+06
1.66956e+06
1.64006e+06
1.61457e+06
1.59332e+06
1.57638e+06
1.5644e+06
1.55733e+06
1.55741e+06
1.56334e+06
2.13128e+06
2.09393e+06
2.05329e+06
2.00719e+06
1.96138e+06
1.91458e+06
1.86898e+06
1.82468e+06
1.78267e+06
1.74326e+06
1.70694e+06
1.67395e+06
1.64459e+06
1.61905e+06
1.59764e+06
1.58057e+06
1.5686e+06
1.56173e+06
1.56246e+06
1.56935e+06
2.07996e+06
2.05259e+06
2.02058e+06
1.98099e+06
1.94108e+06
1.89894e+06
1.85734e+06
1.81625e+06
1.77685e+06
1.73948e+06
1.70474e+06
1.67294e+06
1.64444e+06
1.61952e+06
1.59854e+06
1.58184e+06
1.57015e+06
1.56373e+06
1.56517e+06
1.57261e+06
2.02034e+06
2.00131e+06
1.97758e+06
1.94493e+06
1.91137e+06
1.87453e+06
1.83753e+06
1.8003e+06
1.76417e+06
1.72951e+06
1.69701e+06
1.66703e+06
1.63999e+06
1.61624e+06
1.59615e+06
1.58024e+06
1.56882e+06
1.56352e+06
1.56283e+06
1.57308e+06
1.95566e+06
1.94429e+06
1.92812e+06
1.90215e+06
1.87473e+06
1.84326e+06
1.81106e+06
1.77803e+06
1.74557e+06
1.7141e+06
1.68434e+06
1.65671e+06
1.63169e+06
1.60962e+06
1.59098e+06
1.5761e+06
1.56588e+06
1.56055e+06
1.56233e+06
1.56959e+06
1.8874e+06
1.88267e+06
1.87322e+06
1.85363e+06
1.83212e+06
1.80607e+06
1.77881e+06
1.75022e+06
1.72176e+06
1.69386e+06
1.66727e+06
1.64243e+06
1.61985e+06
1.59988e+06
1.58301e+06
1.56954e+06
1.56033e+06
1.5554e+06
1.55703e+06
1.56386e+06
1.81698e+06
1.81801e+06
1.81451e+06
1.80083e+06
1.78486e+06
1.7641e+06
1.74175e+06
1.71772e+06
1.69345e+06
1.66939e+06
1.64629e+06
1.6246e+06
1.60483e+06
1.58732e+06
1.57254e+06
1.56073e+06
1.55267e+06
1.54838e+06
1.5498e+06
1.55568e+06
1.74518e+06
1.75105e+06
1.75275e+06
1.74447e+06
1.73368e+06
1.71802e+06
1.70053e+06
1.68112e+06
1.6612e+06
1.64119e+06
1.62185e+06
1.60361e+06
1.58695e+06
1.57221e+06
1.5598e+06
1.54992e+06
1.5432e+06
1.53959e+06
1.54071e+06
1.54546e+06
1.67236e+06
1.68231e+06
1.68854e+06
1.68519e+06
1.67924e+06
1.66849e+06
1.65576e+06
1.64101e+06
1.62553e+06
1.60975e+06
1.59437e+06
1.57982e+06
1.56654e+06
1.55484e+06
1.54505e+06
1.53734e+06
1.53215e+06
1.52938e+06
1.53019e+06
1.53363e+06
1.59856e+06
1.61194e+06
1.62213e+06
1.62329e+06
1.6219e+06
1.61592e+06
1.60791e+06
1.59785e+06
1.58692e+06
1.57551e+06
1.56429e+06
1.55364e+06
1.54397e+06
1.53553e+06
1.5286e+06
1.52327e+06
1.51981e+06
1.51804e+06
1.51861e+06
1.52075e+06
1.52351e+06
1.53984e+06
1.55358e+06
1.55898e+06
1.56197e+06
1.56067e+06
1.5574e+06
1.5521e+06
1.54584e+06
1.53897e+06
1.53209e+06
1.52553e+06
1.51965e+06
1.51467e+06
1.5108e+06
1.50806e+06
1.50653e+06
1.50595e+06
1.50646e+06
1.5074e+06
1.44667e+06
1.46567e+06
1.48273e+06
1.49226e+06
1.4996e+06
1.50305e+06
1.50462e+06
1.50424e+06
1.50283e+06
1.50069e+06
1.49833e+06
1.49604e+06
1.49412e+06
1.49276e+06
1.49209e+06
1.4921e+06
1.49269e+06
1.49352e+06
1.4942e+06
1.49417e+06
1.36738e+06
1.38904e+06
1.40941e+06
1.42316e+06
1.43503e+06
1.44343e+06
1.45007e+06
1.45485e+06
1.45855e+06
1.46136e+06
1.46373e+06
1.46588e+06
1.46807e+06
1.47043e+06
1.47306e+06
1.4759e+06
1.47875e+06
1.48118e+06
1.48233e+06
1.48165e+06
1.28473e+06
1.30936e+06
1.33333e+06
1.35169e+06
1.36847e+06
1.38223e+06
1.39435e+06
1.40468e+06
1.41381e+06
1.42187e+06
1.4292e+06
1.43596e+06
1.44236e+06
1.44851e+06
1.45445e+06
1.46014e+06
1.46528e+06
1.46943e+06
1.47135e+06
1.47042e+06
1.19807e+06
1.22635e+06
1.25456e+06
1.27821e+06
1.30055e+06
1.32028e+06
1.33843e+06
1.35478e+06
1.36975e+06
1.38338e+06
1.39591e+06
1.40744e+06
1.41811e+06
1.42802e+06
1.4372e+06
1.44561e+06
1.45296e+06
1.45881e+06
1.46175e+06
1.46099e+06
1.10647e+06
1.13963e+06
1.17318e+06
1.20319e+06
1.23207e+06
1.25862e+06
1.28354e+06
1.30652e+06
1.32782e+06
1.3474e+06
1.36537e+06
1.38181e+06
1.39678e+06
1.41037e+06
1.42259e+06
1.43344e+06
1.44271e+06
1.45001e+06
1.45405e+06
1.45385e+06
1.01054e+06
1.05036e+06
1.09074e+06
1.12847e+06
1.16502e+06
1.19935e+06
1.23178e+06
1.26197e+06
1.29e+06
1.31579e+06
1.33938e+06
1.36076e+06
1.37997e+06
1.39706e+06
1.41204e+06
1.42493e+06
1.4356e+06
1.44385e+06
1.4487e+06
1.44921e+06
910585
959671
1.00905e+06
1.05626e+06
1.1019e+06
1.14506e+06
1.18578e+06
1.22372e+06
1.25887e+06
1.29108e+06
1.32037e+06
1.3467e+06
1.37007e+06
1.39047e+06
1.40788e+06
1.42229e+06
1.4336e+06
1.4418e+06
1.44647e+06
1.44734e+06
813441
874349
934563
992440
1.04798e+06
1.10037e+06
1.14956e+06
1.19521e+06
1.23727e+06
1.27565e+06
1.31034e+06
1.34131e+06
1.36853e+06
1.39195e+06
1.41146e+06
1.42697e+06
1.43824e+06
1.44538e+06
1.44819e+06
1.44789e+06
1.58449e+06
1.63824e+06
1.74019e+06
1.85405e+06
1.97048e+06
2.07258e+06
2.15344e+06
2.20739e+06
2.23505e+06
2.22951e+06
1.49844e+06
1.54911e+06
1.64487e+06
1.755e+06
1.8725e+06
1.98139e+06
2.07456e+06
2.14392e+06
2.18786e+06
2.19569e+06
1.42085e+06
1.46905e+06
1.55853e+06
1.66225e+06
1.77517e+06
1.88256e+06
1.97852e+06
2.05655e+06
2.11571e+06
2.14919e+06
1.34977e+06
1.39647e+06
1.48125e+06
1.5799e+06
1.6892e+06
1.7954e+06
1.8926e+06
1.97462e+06
2.03853e+06
2.08658e+06
1.28305e+06
1.32853e+06
1.40892e+06
1.50215e+06
1.60663e+06
1.70999e+06
1.80682e+06
1.89244e+06
1.96057e+06
2.01862e+06
1.22034e+06
1.26507e+06
1.34202e+06
1.43063e+06
1.53055e+06
1.63047e+06
1.72509e+06
1.81141e+06
1.88071e+06
1.94533e+06
1.16039e+06
1.2045e+06
1.27845e+06
1.36277e+06
1.45818e+06
1.55451e+06
1.64652e+06
1.73272e+06
1.80218e+06
1.86999e+06
1.10289e+06
1.14653e+06
1.21793e+06
1.29844e+06
1.38957e+06
1.48206e+06
1.57083e+06
1.65567e+06
1.7245e+06
1.79365e+06
1.04746e+06
1.0904e+06
1.1595e+06
1.2365e+06
1.32358e+06
1.41226e+06
1.49769e+06
1.5805e+06
1.64821e+06
1.71719e+06
994497
1.03586e+06
1.10277e+06
1.17644e+06
1.2596e+06
1.34438e+06
1.42632e+06
1.50655e+06
1.57284e+06
1.64081e+06
943064
982613
1.04724e+06
1.11758e+06
1.19684e+06
1.27768e+06
1.35605e+06
1.43333e+06
1.49796e+06
1.56434e+06
893257
930615
992629
1.05939e+06
1.13459e+06
1.21128e+06
1.28596e+06
1.36001e+06
1.42283e+06
1.48732e+06
845420
880469
938654
1.00125e+06
1.07196e+06
1.1442e+06
1.21501e+06
1.28563e+06
1.34652e+06
1.40899e+06
800231
832136
885088
942562
1.00805e+06
1.07536e+06
1.14205e+06
1.20906e+06
1.26797e+06
1.32844e+06
759061
785949
831491
882176
941326
1.00309e+06
1.06539e+06
1.12874e+06
1.18577e+06
1.24446e+06
723866
742163
777121
818924
870342
925867
983532
1.04329e+06
1.09871e+06
1.15603e+06
698566
701506
720418
749251
791330
840189
893435
950172
1.00477e+06
1.06166e+06
685733
660363
657018
671230
702431
744432
793948
848685
903731
961483
695854
613285
575022
572175
594811
632294
680100
735183
793443
854646
699553
526083
466729
449541
468540
505827
556722
616111
680015
747791
)
;

boundaryField
{
    left
    {
        type            calculated;
        value           nonuniform List<scalar> 
30
(
1.57103e+06
1.48524e+06
1.40785e+06
1.33685e+06
1.27026e+06
1.20773e+06
1.14807e+06
1.09102e+06
1.03633e+06
984290
934085
885870
840043
797377
759349
728546
710036
712539
762341
878316
6.08943e+06
4.12667e+06
3.26386e+06
2.79941e+06
2.4802e+06
2.24259e+06
2.0557e+06
1.90332e+06
1.77655e+06
1.66524e+06
)
;
    }
    right
    {
        type            calculated;
        value           nonuniform List<scalar> 
30
(
1.44735e+06
1.44707e+06
1.4498e+06
1.45688e+06
1.46754e+06
1.48117e+06
1.49662e+06
1.51282e+06
1.52864e+06
1.54303e+06
1.55494e+06
1.56387e+06
1.56994e+06
1.57325e+06
1.57324e+06
1.57015e+06
1.56447e+06
1.55621e+06
1.54589e+06
1.53394e+06
1.52095e+06
1.50748e+06
1.49415e+06
1.48156e+06
1.4703e+06
1.46087e+06
1.45379e+06
1.44921e+06
1.44741e+06
1.44755e+06
)
;
    }
    down
    {
        type            calculated;
        value           nonuniform List<scalar> 
30
(
7930.73
5684.25
65461.2
160598
270154
384643
496473
603088
701240
793644
876866
949384
1.016e+06
1.0759e+06
1.12994e+06
1.17835e+06
1.22175e+06
1.26044e+06
1.29486e+06
1.32528e+06
1.352e+06
1.37522e+06
1.39509e+06
1.41172e+06
1.42515e+06
1.43547e+06
1.44262e+06
1.4469e+06
1.44827e+06
1.4478e+06
)
;
    }
    up
    {
        type            calculated;
        value           nonuniform List<scalar> 
30
(
677994
519888
464866
447915
466521
503306
553837
613032
676842
744715
810501
871728
932313
990500
1.04635e+06
1.09902e+06
1.14846e+06
1.19433e+06
1.23659e+06
1.27513e+06
1.30997e+06
1.34106e+06
1.36838e+06
1.39188e+06
1.41145e+06
1.42698e+06
1.43826e+06
1.44539e+06
1.44818e+06
1.44798e+06
)
;
    }
    hole
    {
        type            calculated;
        value           nonuniform List<scalar> 
20
(
2.39326e+06
2.74993e+06
3.18899e+06
3.73428e+06
4.2173e+06
4.47642e+06
4.7546e+06
5.08554e+06
4.93191e+06
5.0376e+06
3938.07
3872.94
50729.5
173468
364827
622387
938312
1.30126e+06
1.70398e+06
2.11278e+06
)
;
    }
    frontAndBack
    {
        type            empty;
    }
}


// ************************************************************************* //
