/*--------------------------------*- C++ -*----------------------------------*\
  =========                 |
  \\      /  F ield         | OpenFOAM: The Open Source CFD Toolbox
   \\    /   O peration     | Website:  https://openfoam.org
    \\  /    A nd           | Version:  9
     \\/     M anipulation  |
\*---------------------------------------------------------------------------*/
FoamFile
{
    format      ascii;
    class       volVectorField;
    location    "5";
    object      D;
}
// * * * * * * * * * * * * * * * * * * * * * * * * * * * * * * * * * * * * * //

dimensions      [0 1 0 0 0 0 0];

internalField   nonuniform List<vector> 
1000
(
(3.38132e-06 1.13688e-06 0)
(3.1552e-06 1.25566e-06 0)
(2.99071e-06 1.35563e-06 0)
(2.87187e-06 1.43377e-06 0)
(2.78707e-06 1.50123e-06 0)
(2.72726e-06 1.55926e-06 0)
(2.68679e-06 1.61157e-06 0)
(2.66111e-06 1.65921e-06 0)
(2.64665e-06 1.70366e-06 0)
(2.64159e-06 1.7458e-06 0)
(3.04715e-06 1.02513e-06 0)
(2.81233e-06 1.11143e-06 0)
(2.64267e-06 1.18713e-06 0)
(2.52061e-06 1.24557e-06 0)
(2.43366e-06 1.29691e-06 0)
(2.37211e-06 1.34106e-06 0)
(2.32995e-06 1.38111e-06 0)
(2.30237e-06 1.41774e-06 0)
(2.28572e-06 1.45173e-06 0)
(2.27751e-06 1.48489e-06 0)
(2.70585e-06 9.13137e-07 0)
(2.46887e-06 9.64833e-07 0)
(2.29866e-06 1.01525e-06 0)
(2.17687e-06 1.05375e-06 0)
(2.09039e-06 1.08925e-06 0)
(2.02917e-06 1.12008e-06 0)
(1.98695e-06 1.14867e-06 0)
(1.95883e-06 1.17515e-06 0)
(1.94111e-06 1.19967e-06 0)
(1.9312e-06 1.22424e-06 0)
(2.35915e-06 8.02702e-07 0)
(2.12684e-06 8.19025e-07 0)
(1.96105e-06 8.44071e-07 0)
(1.84325e-06 8.63053e-07 0)
(1.76011e-06 8.83469e-07 0)
(1.70145e-06 9.01933e-07 0)
(1.66097e-06 9.20133e-07 0)
(1.63375e-06 9.37524e-07 0)
(1.61628e-06 9.53761e-07 0)
(1.60573e-06 9.70661e-07 0)
(2.00793e-06 6.95467e-07 0)
(1.78732e-06 6.77087e-07 0)
(1.63113e-06 6.77767e-07 0)
(1.52135e-06 6.78497e-07 0)
(1.4446e-06 6.85295e-07 0)
(1.39085e-06 6.9291e-07 0)
(1.35392e-06 7.0226e-07 0)
(1.32899e-06 7.12017e-07 0)
(1.31287e-06 7.21424e-07 0)
(1.30265e-06 7.31844e-07 0)
(1.65368e-06 5.9219e-07 0)
(1.45128e-06 5.41198e-07 0)
(1.31001e-06 5.1987e-07 0)
(1.21242e-06 5.04654e-07 0)
(1.14521e-06 5.00142e-07 0)
(1.09871e-06 4.99068e-07 0)
(1.06706e-06 5.01585e-07 0)
(1.04571e-06 5.05538e-07 0)
(1.0319e-06 5.09862e-07 0)
(1.02277e-06 5.15338e-07 0)
(1.29505e-06 4.92806e-07 0)
(1.1179e-06 4.12814e-07 0)
(9.97321e-07 3.7352e-07 0)
(9.16399e-07 3.46134e-07 0)
(8.61983e-07 3.33666e-07 0)
(8.24987e-07 3.26781e-07 0)
(8.00147e-07 3.24909e-07 0)
(7.83446e-07 3.2516e-07 0)
(7.72649e-07 3.26297e-07 0)
(7.6521e-07 3.28513e-07 0)
(9.34554e-07 3.94481e-07 0)
(7.88559e-07 2.9144e-07 0)
(6.94862e-07 2.41169e-07 0)
(6.34922e-07 2.07448e-07 0)
(5.9601e-07 1.91643e-07 0)
(5.70108e-07 1.82565e-07 0)
(5.53007e-07 1.79093e-07 0)
(5.41519e-07 1.77901e-07 0)
(5.3408e-07 1.77764e-07 0)
(5.28692e-07 1.78438e-07 0)
(5.64113e-07 2.87506e-07 0)
(4.60976e-07 1.73575e-07 0)
(4.01691e-07 1.24178e-07 0)
(3.66504e-07 9.34384e-08 0)
(3.45164e-07 8.02612e-08 0)
(3.31196e-07 7.29837e-08 0)
(3.22177e-07 7.04589e-08 0)
(3.16004e-07 6.96184e-08 0)
(3.11941e-07 6.95691e-08 0)
(3.0874e-07 6.993e-08 0)
(1.9441e-07 1.50453e-07 0)
(1.46574e-07 6.38463e-08 0)
(1.28334e-07 3.34363e-08 0)
(1.18686e-07 1.81553e-08 0)
(1.13085e-07 1.28988e-08 0)
(1.09171e-07 1.0525e-08 0)
(1.06614e-07 1.01983e-08 0)
(1.04737e-07 1.04014e-08 0)
(1.03454e-07 1.07947e-08 0)
(1.0232e-07 1.12284e-08 0)
(5.96274e-06 1.84171e-06 0)
(5.95294e-06 2.07086e-06 0)
(5.94619e-06 2.28438e-06 0)
(5.94646e-06 2.47987e-06 0)
(5.95546e-06 2.65932e-06 0)
(5.97385e-06 2.82498e-06 0)
(6.00173e-06 2.97941e-06 0)
(6.03852e-06 3.12486e-06 0)
(6.0839e-06 3.26309e-06 0)
(6.13673e-06 3.39607e-06 0)
(5.77575e-06 1.82658e-06 0)
(5.74931e-06 2.05507e-06 0)
(5.73131e-06 2.26599e-06 0)
(5.72335e-06 2.45754e-06 0)
(5.72635e-06 2.63218e-06 0)
(5.73974e-06 2.7923e-06 0)
(5.7631e-06 2.9407e-06 0)
(5.79533e-06 3.07977e-06 0)
(5.83598e-06 3.21135e-06 0)
(5.88348e-06 3.33767e-06 0)
(5.57743e-06 1.79589e-06 0)
(5.53127e-06 2.02379e-06 0)
(5.49794e-06 2.23042e-06 0)
(5.47789e-06 2.41579e-06 0)
(5.47133e-06 2.58364e-06 0)
(5.47668e-06 2.73669e-06 0)
(5.49299e-06 2.87796e-06 0)
(5.51859e-06 3.00985e-06 0)
(5.55291e-06 3.13427e-06 0)
(5.59378e-06 3.25353e-06 0)
(5.36311e-06 1.75127e-06 0)
(5.29479e-06 1.97808e-06 0)
(5.24366e-06 2.17944e-06 0)
(5.20928e-06 2.35725e-06 0)
(5.19099e-06 2.51694e-06 0)
(5.18637e-06 2.66161e-06 0)
(5.19398e-06 2.79459e-06 0)
(5.21159e-06 2.91828e-06 0)
(5.23848e-06 3.03468e-06 0)
(5.27187e-06 3.14607e-06 0)
(5.13032e-06 1.69313e-06 0)
(5.03772e-06 1.91704e-06 0)
(4.96753e-06 2.11147e-06 0)
(4.91803e-06 2.27999e-06 0)
(4.88735e-06 2.42991e-06 0)
(4.8722e-06 2.56478e-06 0)
(4.8706e-06 2.68823e-06 0)
(4.87983e-06 2.80266e-06 0)
(4.89898e-06 2.91017e-06 0)
(4.9247e-06 3.01288e-06 0)
(4.87873e-06 1.62284e-06 0)
(4.76046e-06 1.84076e-06 0)
(4.67081e-06 2.02625e-06 0)
(4.60623e-06 2.18387e-06 0)
(4.56327e-06 2.32272e-06 0)
(4.53774e-06 2.4466e-06 0)
(4.52708e-06 2.5595e-06 0)
(4.52808e-06 2.66374e-06 0)
(4.53966e-06 2.76157e-06 0)
(4.55796e-06 2.85484e-06 0)
(4.60898e-06 1.54145e-06 0)
(4.46467e-06 1.74923e-06 0)
(4.356e-06 1.92323e-06 0)
(4.27701e-06 2.06822e-06 0)
(4.22255e-06 2.1947e-06 0)
(4.18738e-06 2.30658e-06 0)
(4.16833e-06 2.40808e-06 0)
(4.16176e-06 2.50141e-06 0)
(4.16633e-06 2.58892e-06 0)
(4.17783e-06 2.67215e-06 0)
(4.32248e-06 1.45049e-06 0)
(4.15302e-06 1.6433e-06 0)
(4.02654e-06 1.803e-06 0)
(3.93441e-06 1.93361e-06 0)
(3.86964e-06 2.04661e-06 0)
(3.82595e-06 2.14568e-06 0)
(3.79951e-06 2.23518e-06 0)
(3.78631e-06 2.31708e-06 0)
(3.78465e-06 2.39385e-06 0)
(3.79027e-06 2.46651e-06 0)
(4.02102e-06 1.35152e-06 0)
(3.82867e-06 1.52431e-06 0)
(3.68644e-06 1.66675e-06 0)
(3.58296e-06 1.7813e-06 0)
(3.50949e-06 1.87982e-06 0)
(3.4587e-06 1.96548e-06 0)
(3.4261e-06 2.04259e-06 0)
(3.4074e-06 2.11285e-06 0)
(3.40043e-06 2.17856e-06 0)
(3.40124e-06 2.24052e-06 0)
(3.70661e-06 1.24634e-06 0)
(3.49497e-06 1.39425e-06 0)
(3.33982e-06 1.51667e-06 0)
(3.22726e-06 1.61363e-06 0)
(3.147e-06 1.69689e-06 0)
(3.09073e-06 1.76877e-06 0)
(3.05339e-06 1.83341e-06 0)
(3.03044e-06 1.89201e-06 0)
(3.01922e-06 1.94685e-06 0)
(3.01663e-06 1.99743e-06 0)
(6.19986e-06 3.52399e-06 0)
(6.27233e-06 3.65095e-06 0)
(6.35036e-06 3.77587e-06 0)
(6.43333e-06 3.89935e-06 0)
(6.5208e-06 4.02202e-06 0)
(6.61227e-06 4.14422e-06 0)
(6.70737e-06 4.2664e-06 0)
(6.80568e-06 4.3888e-06 0)
(6.90687e-06 4.51173e-06 0)
(7.0106e-06 4.63537e-06 0)
(7.11659e-06 4.75993e-06 0)
(7.22454e-06 4.88555e-06 0)
(7.33419e-06 5.01237e-06 0)
(7.44527e-06 5.1405e-06 0)
(7.55755e-06 5.26999e-06 0)
(7.67076e-06 5.4009e-06 0)
(7.78468e-06 5.53319e-06 0)
(7.89903e-06 5.66677e-06 0)
(8.01362e-06 5.8014e-06 0)
(8.1282e-06 5.93668e-06 0)
(5.94929e-06 3.46075e-06 0)
(6.03069e-06 3.58559e-06 0)
(6.11644e-06 3.70852e-06 0)
(6.20587e-06 3.83024e-06 0)
(6.29884e-06 3.95141e-06 0)
(6.39491e-06 4.07235e-06 0)
(6.49389e-06 4.19348e-06 0)
(6.59544e-06 4.31507e-06 0)
(6.69935e-06 4.43737e-06 0)
(6.80536e-06 4.5606e-06 0)
(6.91326e-06 4.68492e-06 0)
(7.02284e-06 4.81048e-06 0)
(7.1339e-06 4.93742e-06 0)
(7.24624e-06 5.06582e-06 0)
(7.3597e-06 5.19576e-06 0)
(7.47407e-06 5.32728e-06 0)
(7.5892e-06 5.46035e-06 0)
(7.70489e-06 5.59487e-06 0)
(7.82098e-06 5.73062e-06 0)
(7.9372e-06 5.86726e-06 0)
(5.66323e-06 3.37297e-06 0)
(5.75613e-06 3.49803e-06 0)
(5.85218e-06 3.62124e-06 0)
(5.95049e-06 3.7432e-06 0)
(6.05129e-06 3.8647e-06 0)
(6.15416e-06 3.98599e-06 0)
(6.25911e-06 4.10757e-06 0)
(6.36589e-06 4.22967e-06 0)
(6.4744e-06 4.35259e-06 0)
(6.58447e-06 4.4765e-06 0)
(6.696e-06 4.60162e-06 0)
(6.80884e-06 4.72807e-06 0)
(6.92287e-06 4.85599e-06 0)
(7.03797e-06 4.9855e-06 0)
(7.15403e-06 5.11666e-06 0)
(7.27092e-06 5.24953e-06 0)
(7.38854e-06 5.38412e-06 0)
(7.50673e-06 5.52038e-06 0)
(7.62535e-06 5.65822e-06 0)
(7.74409e-06 5.7974e-06 0)
(5.34586e-06 3.26258e-06 0)
(5.45244e-06 3.38966e-06 0)
(5.56098e-06 3.51497e-06 0)
(5.67026e-06 3.63879e-06 0)
(5.78092e-06 3.76214e-06 0)
(5.89253e-06 3.88519e-06 0)
(6.0053e-06 4.0085e-06 0)
(6.11905e-06 4.13231e-06 0)
(6.23383e-06 4.25693e-06 0)
(6.34955e-06 4.38257e-06 0)
(6.4662e-06 4.50943e-06 0)
(6.58371e-06 4.63768e-06 0)
(6.70206e-06 4.76745e-06 0)
(6.82119e-06 4.89887e-06 0)
(6.94104e-06 5.03205e-06 0)
(7.06156e-06 5.16705e-06 0)
(7.18268e-06 5.30395e-06 0)
(7.30427e-06 5.44278e-06 0)
(7.42626e-06 5.58356e-06 0)
(7.54829e-06 5.72623e-06 0)
(5.00412e-06 3.12745e-06 0)
(5.12599e-06 3.25861e-06 0)
(5.24869e-06 3.3881e-06 0)
(5.37047e-06 3.51562e-06 0)
(5.49254e-06 3.64256e-06 0)
(5.61433e-06 3.76893e-06 0)
(5.73634e-06 3.89543e-06 0)
(5.8584e-06 4.02227e-06 0)
(5.98073e-06 4.14982e-06 0)
(6.10331e-06 4.27831e-06 0)
(6.22623e-06 4.40798e-06 0)
(6.34951e-06 4.53899e-06 0)
(6.47319e-06 4.67152e-06 0)
(6.59728e-06 4.80571e-06 0)
(6.72181e-06 4.94171e-06 0)
(6.84677e-06 5.07963e-06 0)
(6.97214e-06 5.21961e-06 0)
(7.09785e-06 5.36174e-06 0)
(7.22385e-06 5.50624e-06 0)
(7.34984e-06 5.65313e-06 0)
(4.64357e-06 2.96839e-06 0)
(4.78189e-06 3.10552e-06 0)
(4.92e-06 3.24114e-06 0)
(5.05544e-06 3.3741e-06 0)
(5.19008e-06 3.50624e-06 0)
(5.32317e-06 3.63744e-06 0)
(5.45549e-06 3.76851e-06 0)
(5.58692e-06 3.89968e-06 0)
(5.7178e-06 4.03136e-06 0)
(5.8482e-06 4.16381e-06 0)
(5.97829e-06 4.2973e-06 0)
(6.10817e-06 4.43204e-06 0)
(6.23796e-06 4.56823e-06 0)
(6.36776e-06 4.70604e-06 0)
(6.49764e-06 4.84565e-06 0)
(6.62765e-06 4.98723e-06 0)
(6.75784e-06 5.13098e-06 0)
(6.88821e-06 5.27708e-06 0)
(7.01873e-06 5.42588e-06 0)
(7.14922e-06 5.57752e-06 0)
(4.27018e-06 2.78567e-06 0)
(4.42553e-06 2.93072e-06 0)
(4.57982e-06 3.07433e-06 0)
(4.72967e-06 3.21451e-06 0)
(4.87762e-06 3.35343e-06 0)
(5.02282e-06 3.49096e-06 0)
(5.16621e-06 3.62795e-06 0)
(5.30776e-06 3.76472e-06 0)
(5.4479e-06 3.9017e-06 0)
(5.58679e-06 4.03922e-06 0)
(5.7247e-06 4.17757e-06 0)
(5.8618e-06 4.317e-06 0)
(5.99828e-06 4.45774e-06 0)
(6.1343e-06 4.60001e-06 0)
(6.27e-06 4.74401e-06 0)
(6.40552e-06 4.88996e-06 0)
(6.54094e-06 5.03812e-06 0)
(6.67634e-06 5.18876e-06 0)
(6.81176e-06 5.34232e-06 0)
(6.94716e-06 5.49906e-06 0)
(3.88957e-06 2.58095e-06 0)
(4.06201e-06 2.73571e-06 0)
(4.23264e-06 2.88883e-06 0)
(4.39726e-06 3.03786e-06 0)
(4.55888e-06 3.18499e-06 0)
(4.71663e-06 3.33028e-06 0)
(4.87156e-06 3.47451e-06 0)
(5.02374e-06 3.61812e-06 0)
(5.17365e-06 3.76155e-06 0)
(5.32154e-06 3.9052e-06 0)
(5.46773e-06 4.04939e-06 0)
(5.61248e-06 4.19443e-06 0)
(5.75605e-06 4.34057e-06 0)
(5.89866e-06 4.48807e-06 0)
(6.04052e-06 4.63718e-06 0)
(6.18182e-06 4.78815e-06 0)
(6.32274e-06 4.94129e-06 0)
(6.46341e-06 5.09692e-06 0)
(6.60397e-06 5.25559e-06 0)
(6.74453e-06 5.41761e-06 0)
(3.50746e-06 2.35613e-06 0)
(3.69654e-06 2.52251e-06 0)
(3.88309e-06 2.68632e-06 0)
(4.06255e-06 2.84571e-06 0)
(4.23779e-06 3.00223e-06 0)
(4.40825e-06 3.15641e-06 0)
(4.57485e-06 3.30896e-06 0)
(4.73784e-06 3.46043e-06 0)
(4.89772e-06 3.61134e-06 0)
(5.05483e-06 3.7621e-06 0)
(5.20954e-06 3.91308e-06 0)
(5.36218e-06 4.06463e-06 0)
(5.51305e-06 4.21703e-06 0)
(5.66246e-06 4.37056e-06 0)
(5.81066e-06 4.5255e-06 0)
(5.95792e-06 4.68213e-06 0)
(6.10447e-06 4.84078e-06 0)
(6.25056e-06 5.00183e-06 0)
(6.39637e-06 5.16586e-06 0)
(6.54223e-06 5.33323e-06 0)
(3.12831e-06 2.11467e-06 0)
(3.33317e-06 2.29385e-06 0)
(3.53397e-06 2.46869e-06 0)
(3.72792e-06 2.63955e-06 0)
(3.91651e-06 2.80672e-06 0)
(4.09975e-06 2.97101e-06 0)
(4.27819e-06 3.13303e-06 0)
(4.45222e-06 3.29342e-06 0)
(4.62229e-06 3.45273e-06 0)
(4.78882e-06 3.61145e-06 0)
(4.95222e-06 3.77002e-06 0)
(5.11289e-06 3.92881e-06 0)
(5.27118e-06 4.08816e-06 0)
(5.42746e-06 4.24836e-06 0)
(5.58206e-06 4.40971e-06 0)
(5.73531e-06 4.57251e-06 0)
(5.8875e-06 4.73712e-06 0)
(6.039e-06 4.9039e-06 0)
(6.19003e-06 5.07346e-06 0)
(6.34119e-06 5.24617e-06 0)
(2.83589e-06 1.93364e-06 0)
(3.0495e-06 2.12212e-06 0)
(3.25778e-06 2.30321e-06 0)
(3.45959e-06 2.4806e-06 0)
(3.65577e-06 2.65428e-06 0)
(3.84635e-06 2.82502e-06 0)
(4.03182e-06 2.99337e-06 0)
(4.2125e-06 3.1599e-06 0)
(4.38882e-06 3.32512e-06 0)
(4.56117e-06 3.48949e-06 0)
(4.72997e-06 3.65341e-06 0)
(4.89561e-06 3.81726e-06 0)
(5.05847e-06 3.98136e-06 0)
(5.21894e-06 4.14599e-06 0)
(5.37737e-06 4.31144e-06 0)
(5.53414e-06 4.47799e-06 0)
(5.68958e-06 4.64596e-06 0)
(5.84414e-06 4.81569e-06 0)
(5.99809e-06 4.98772e-06 0)
(6.15221e-06 5.16236e-06 0)
(2.64082e-06 1.82537e-06 0)
(2.85445e-06 2.01382e-06 0)
(3.06279e-06 2.19639e-06 0)
(3.26526e-06 2.37578e-06 0)
(3.46243e-06 2.55194e-06 0)
(3.65426e-06 2.72538e-06 0)
(3.84116e-06 2.89657e-06 0)
(4.02334e-06 3.06595e-06 0)
(4.20118e-06 3.23393e-06 0)
(4.37502e-06 3.40092e-06 0)
(4.54522e-06 3.56726e-06 0)
(4.71215e-06 3.73329e-06 0)
(4.87617e-06 3.89927e-06 0)
(5.03766e-06 4.06548e-06 0)
(5.19696e-06 4.23216e-06 0)
(5.35447e-06 4.39956e-06 0)
(5.51053e-06 4.56794e-06 0)
(5.66563e-06 4.73759e-06 0)
(5.82006e-06 4.90892e-06 0)
(5.97471e-06 5.08217e-06 0)
(2.46863e-06 1.72142e-06 0)
(2.67842e-06 1.90931e-06 0)
(2.88462e-06 2.0924e-06 0)
(3.08554e-06 2.27301e-06 0)
(3.28191e-06 2.45094e-06 0)
(3.47337e-06 2.62653e-06 0)
(3.66029e-06 2.8001e-06 0)
(3.84273e-06 2.97198e-06 0)
(4.02102e-06 3.14249e-06 0)
(4.19541e-06 3.31193e-06 0)
(4.36622e-06 3.48059e-06 0)
(4.53376e-06 3.64873e-06 0)
(4.69838e-06 3.81658e-06 0)
(4.86042e-06 3.98436e-06 0)
(5.02022e-06 4.15227e-06 0)
(5.17816e-06 4.3205e-06 0)
(5.3346e-06 4.48926e-06 0)
(5.49005e-06 4.65875e-06 0)
(5.6448e-06 4.82924e-06 0)
(5.79983e-06 5.00089e-06 0)
(2.31432e-06 1.62131e-06 0)
(2.51907e-06 1.80768e-06 0)
(2.72157e-06 1.99059e-06 0)
(2.91949e-06 2.17191e-06 0)
(3.11365e-06 2.35119e-06 0)
(3.30344e-06 2.52859e-06 0)
(3.48917e-06 2.70427e-06 0)
(3.67079e-06 2.87841e-06 0)
(3.84855e-06 3.05125e-06 0)
(4.02263e-06 3.22299e-06 0)
(4.19329e-06 3.39385e-06 0)
(4.3608e-06 3.56401e-06 0)
(4.52547e-06 3.73366e-06 0)
(4.6876e-06 3.90296e-06 0)
(4.84751e-06 4.07205e-06 0)
(5.00559e-06 4.24107e-06 0)
(5.16217e-06 4.41014e-06 0)
(5.31775e-06 4.57943e-06 0)
(5.47268e-06 4.74901e-06 0)
(5.6279e-06 4.91893e-06 0)
(2.17609e-06 1.52609e-06 0)
(2.37469e-06 1.71037e-06 0)
(2.57223e-06 1.89252e-06 0)
(2.76593e-06 2.07393e-06 0)
(2.9567e-06 2.254e-06 0)
(3.14372e-06 2.43271e-06 0)
(3.32723e-06 2.61006e-06 0)
(3.5071e-06 2.78612e-06 0)
(3.68348e-06 2.96098e-06 0)
(3.85649e-06 3.13478e-06 0)
(4.02633e-06 3.30763e-06 0)
(4.19323e-06 3.47966e-06 0)
(4.35743e-06 3.65098e-06 0)
(4.51922e-06 3.82169e-06 0)
(4.67891e-06 3.99189e-06 0)
(4.83681e-06 4.16164e-06 0)
(4.9933e-06 4.331e-06 0)
(5.14873e-06 4.50001e-06 0)
(5.30377e-06 4.66854e-06 0)
(5.45911e-06 4.83669e-06 0)
(2.0513e-06 1.4357e-06 0)
(2.24313e-06 1.61737e-06 0)
(2.43487e-06 1.79824e-06 0)
(2.62353e-06 1.97926e-06 0)
(2.81002e-06 2.15966e-06 0)
(2.99339e-06 2.33926e-06 0)
(3.17385e-06 2.51791e-06 0)
(3.35116e-06 2.69554e-06 0)
(3.52543e-06 2.87214e-06 0)
(3.69669e-06 3.04773e-06 0)
(3.86512e-06 3.22236e-06 0)
(4.03087e-06 3.39606e-06 0)
(4.19416e-06 3.5689e-06 0)
(4.35524e-06 3.74091e-06 0)
(4.51436e-06 3.91211e-06 0)
(4.67186e-06 4.08251e-06 0)
(4.82801e-06 4.25208e-06 0)
(4.9833e-06 4.42071e-06 0)
(5.13801e-06 4.58827e-06 0)
(5.29306e-06 4.75474e-06 0)
(1.93779e-06 1.35021e-06 0)
(2.12246e-06 1.52897e-06 0)
(2.30781e-06 1.70817e-06 0)
(2.49081e-06 1.88838e-06 0)
(2.67234e-06 2.06869e-06 0)
(2.85139e-06 2.24877e-06 0)
(3.02812e-06 2.42833e-06 0)
(3.20223e-06 2.60718e-06 0)
(3.37377e-06 2.7852e-06 0)
(3.54274e-06 2.9623e-06 0)
(3.70923e-06 3.13845e-06 0)
(3.87339e-06 3.31362e-06 0)
(4.03537e-06 3.48779e-06 0)
(4.19538e-06 3.66093e-06 0)
(4.35366e-06 3.83301e-06 0)
(4.51048e-06 4.00397e-06 0)
(4.66611e-06 4.17368e-06 0)
(4.82099e-06 4.342e-06 0)
(4.97534e-06 4.50862e-06 0)
(5.13001e-06 4.6734e-06 0)
(1.83342e-06 1.26941e-06 0)
(2.01075e-06 1.44506e-06 0)
(2.18936e-06 1.62232e-06 0)
(2.36629e-06 1.8014e-06 0)
(2.54238e-06 1.98127e-06 0)
(2.7166e-06 2.16149e-06 0)
(2.88908e-06 2.34162e-06 0)
(3.05946e-06 2.52137e-06 0)
(3.22779e-06 2.70049e-06 0)
(3.39398e-06 2.87883e-06 0)
(3.55812e-06 3.05624e-06 0)
(3.72028e-06 3.23264e-06 0)
(3.88061e-06 3.40794e-06 0)
(4.03926e-06 3.58205e-06 0)
(4.19644e-06 3.75487e-06 0)
(4.35238e-06 3.92628e-06 0)
(4.50731e-06 4.09609e-06 0)
(4.66161e-06 4.26407e-06 0)
(4.81547e-06 4.42982e-06 0)
(4.96964e-06 4.59312e-06 0)
(1.73631e-06 1.19305e-06 0)
(1.90623e-06 1.36553e-06 0)
(2.0779e-06 1.5407e-06 0)
(2.24848e-06 1.71841e-06 0)
(2.41878e-06 1.89757e-06 0)
(2.5878e-06 2.07764e-06 0)
(2.75562e-06 2.25803e-06 0)
(2.92189e-06 2.43837e-06 0)
(3.0866e-06 2.6183e-06 0)
(3.24965e-06 2.79759e-06 0)
(3.41108e-06 2.97601e-06 0)
(3.57094e-06 3.1534e-06 0)
(3.72933e-06 3.32962e-06 0)
(3.88638e-06 3.50451e-06 0)
(4.04223e-06 3.67792e-06 0)
(4.19711e-06 3.84968e-06 0)
(4.35119e-06 4.01954e-06 0)
(4.50478e-06 4.18722e-06 0)
(4.65804e-06 4.35221e-06 0)
(4.81157e-06 4.51421e-06 0)
(1.64471e-06 1.12085e-06 0)
(1.80722e-06 1.2902e-06 0)
(1.97182e-06 1.46318e-06 0)
(2.1359e-06 1.63938e-06 0)
(2.30018e-06 1.81764e-06 0)
(2.46374e-06 1.9973e-06 0)
(2.62662e-06 2.17771e-06 0)
(2.78848e-06 2.35835e-06 0)
(2.94927e-06 2.53883e-06 0)
(3.10889e-06 2.71879e-06 0)
(3.26735e-06 2.89796e-06 0)
(3.42466e-06 3.07611e-06 0)
(3.58088e-06 3.25302e-06 0)
(3.73612e-06 3.42851e-06 0)
(3.89048e-06 3.60237e-06 0)
(4.04415e-06 3.77437e-06 0)
(4.19724e-06 3.94424e-06 0)
(4.35002e-06 4.11163e-06 0)
(4.50258e-06 4.27599e-06 0)
(4.65538e-06 4.43697e-06 0)
(1.55701e-06 1.05252e-06 0)
(1.71213e-06 1.21886e-06 0)
(1.86963e-06 1.38966e-06 0)
(2.02709e-06 1.56426e-06 0)
(2.18521e-06 1.74147e-06 0)
(2.34312e-06 1.92055e-06 0)
(2.50087e-06 2.10073e-06 0)
(2.6581e-06 2.28144e-06 0)
(2.81478e-06 2.4622e-06 0)
(2.97077e-06 2.64258e-06 0)
(3.12605e-06 2.82225e-06 0)
(3.28062e-06 3.00092e-06 0)
(3.43451e-06 3.17832e-06 0)
(3.58779e-06 3.35421e-06 0)
(3.74054e-06 3.52836e-06 0)
(3.89288e-06 3.7005e-06 0)
(4.0449e-06 3.87033e-06 0)
(4.19678e-06 4.03749e-06 0)
(4.34856e-06 4.20136e-06 0)
(4.50056e-06 4.36161e-06 0)
(1.4717e-06 9.87827e-07 0)
(1.61945e-06 1.15133e-06 0)
(1.76982e-06 1.31999e-06 0)
(1.92061e-06 1.49297e-06 0)
(2.07249e-06 1.66904e-06 0)
(2.22464e-06 1.84736e-06 0)
(2.37713e-06 2.02713e-06 0)
(2.52961e-06 2.2077e-06 0)
(2.68204e-06 2.3885e-06 0)
(2.83426e-06 2.56907e-06 0)
(2.98625e-06 2.749e-06 0)
(3.13797e-06 2.92795e-06 0)
(3.28943e-06 3.10562e-06 0)
(3.44066e-06 3.28173e-06 0)
(3.59171e-06 3.45601e-06 0)
(3.74264e-06 3.62819e-06 0)
(3.89352e-06 3.79793e-06 0)
(4.04445e-06 3.96489e-06 0)
(4.19542e-06 4.12845e-06 0)
(4.34656e-06 4.28827e-06 0)
(1.38732e-06 9.2654e-07 0)
(1.52771e-06 1.08741e-06 0)
(1.67092e-06 1.25403e-06 0)
(1.81502e-06 1.42539e-06 0)
(1.96059e-06 1.60025e-06 0)
(2.10695e-06 1.77771e-06 0)
(2.25412e-06 1.9569e-06 0)
(2.4018e-06 2.13712e-06 0)
(2.54992e-06 2.31775e-06 0)
(2.69834e-06 2.49828e-06 0)
(2.84698e-06 2.67824e-06 0)
(2.99581e-06 2.85726e-06 0)
(3.14479e-06 3.03499e-06 0)
(3.29393e-06 3.21114e-06 0)
(3.44323e-06 3.3854e-06 0)
(3.59273e-06 3.5575e-06 0)
(3.74245e-06 3.72711e-06 0)
(3.89239e-06 3.89389e-06 0)
(4.04254e-06 4.05729e-06 0)
(4.19283e-06 4.21698e-06 0)
(1.30244e-06 8.68576e-07 0)
(1.43543e-06 1.02703e-06 0)
(1.57146e-06 1.19169e-06 0)
(1.70884e-06 1.36146e-06 0)
(1.84811e-06 1.53505e-06 0)
(1.98867e-06 1.71154e-06 0)
(2.13053e-06 1.89e-06 0)
(2.27343e-06 2.06969e-06 0)
(2.41727e-06 2.24994e-06 0)
(2.56189e-06 2.4302e-06 0)
(2.70723e-06 2.60998e-06 0)
(2.85319e-06 2.78885e-06 0)
(2.99972e-06 2.96645e-06 0)
(3.14679e-06 3.14245e-06 0)
(3.29438e-06 3.31655e-06 0)
(3.44246e-06 3.48846e-06 0)
(3.59101e-06 3.65788e-06 0)
(3.73999e-06 3.82451e-06 0)
(3.88932e-06 3.98787e-06 0)
(4.0388e-06 4.14771e-06 0)
(1.21556e-06 8.13771e-07 0)
(1.34108e-06 9.70021e-07 0)
(1.46988e-06 1.13283e-06 0)
(1.60054e-06 1.30102e-06 0)
(1.73354e-06 1.47331e-06 0)
(1.86835e-06 1.64872e-06 0)
(2.00499e-06 1.8263e-06 0)
(2.14319e-06 2.00528e-06 0)
(2.28285e-06 2.18497e-06 0)
(2.4238e-06 2.36476e-06 0)
(2.56594e-06 2.54414e-06 0)
(2.70915e-06 2.72267e-06 0)
(2.85334e-06 2.89995e-06 0)
(2.99844e-06 3.07564e-06 0)
(3.14439e-06 3.24943e-06 0)
(3.29112e-06 3.42104e-06 0)
(3.43857e-06 3.59021e-06 0)
(3.58664e-06 3.75668e-06 0)
(3.7352e-06 3.9201e-06 0)
(3.88394e-06 4.08031e-06 0)
(1.12515e-06 7.6231e-07 0)
(1.24307e-06 9.16505e-07 0)
(1.3646e-06 1.07751e-06 0)
(1.48855e-06 1.24411e-06 0)
(1.61535e-06 1.415e-06 0)
(1.74453e-06 1.5892e-06 0)
(1.87609e-06 1.76574e-06 0)
(2.00976e-06 1.94383e-06 0)
(2.14543e-06 2.12274e-06 0)
(2.28292e-06 2.30185e-06 0)
(2.42207e-06 2.48063e-06 0)
(2.56273e-06 2.65862e-06 0)
(2.70479e-06 2.8354e-06 0)
(2.84811e-06 3.01061e-06 0)
(2.99258e-06 3.18396e-06 0)
(3.13811e-06 3.35516e-06 0)
(3.28457e-06 3.524e-06 0)
(3.43182e-06 3.69029e-06 0)
(3.57969e-06 3.85381e-06 0)
(3.7278e-06 4.01455e-06 0)
(1.02942e-06 7.13919e-07 0)
(1.1396e-06 8.66185e-07 0)
(1.25381e-06 1.02541e-06 0)
(1.37112e-06 1.19039e-06 0)
(1.49183e-06 1.3598e-06 0)
(1.61558e-06 1.53267e-06 0)
(1.74229e-06 1.70801e-06 0)
(1.87172e-06 1.88502e-06 0)
(2.00371e-06 2.06296e-06 0)
(2.13803e-06 2.24121e-06 0)
(2.27452e-06 2.4192e-06 0)
(2.41296e-06 2.59647e-06 0)
(2.55319e-06 2.77259e-06 0)
(2.69502e-06 2.9472e-06 0)
(2.83829e-06 3.11998e-06 0)
(2.98284e-06 3.29069e-06 0)
(3.12851e-06 3.45913e-06 0)
(3.2751e-06 3.62518e-06 0)
(3.42241e-06 3.7888e-06 0)
(3.57003e-06 3.95011e-06 0)
(9.2658e-07 6.69364e-07 0)
(1.02888e-06 8.19655e-07 0)
(1.13576e-06 9.76982e-07 0)
(1.24652e-06 1.14016e-06 0)
(1.36136e-06 1.30789e-06 0)
(1.47994e-06 1.47919e-06 0)
(1.60215e-06 1.65309e-06 0)
(1.72771e-06 1.82877e-06 0)
(1.85642e-06 2.0055e-06 0)
(1.98802e-06 2.18264e-06 0)
(2.12228e-06 2.35964e-06 0)
(2.25894e-06 2.53599e-06 0)
(2.39777e-06 2.71128e-06 0)
(2.53852e-06 2.88514e-06 0)
(2.68098e-06 3.05725e-06 0)
(2.82491e-06 3.22738e-06 0)
(2.97008e-06 3.39536e-06 0)
(3.11625e-06 3.56112e-06 0)
(3.26318e-06 3.72477e-06 0)
(3.41048e-06 3.88659e-06 0)
(8.14044e-07 6.27577e-07 0)
(9.08357e-07 7.75862e-07 0)
(1.00798e-06 9.31197e-07 0)
(1.11241e-06 1.09246e-06 0)
(1.22172e-06 1.25835e-06 0)
(1.33556e-06 1.42792e-06 0)
(1.45375e-06 1.6002e-06 0)
(1.57598e-06 1.77437e-06 0)
(1.70199e-06 1.94971e-06 0)
(1.83145e-06 2.12558e-06 0)
(1.96408e-06 2.30142e-06 0)
(2.09957e-06 2.47672e-06 0)
(2.23761e-06 2.65107e-06 0)
(2.37788e-06 2.82409e-06 0)
(2.5201e-06 2.99547e-06 0)
(2.66394e-06 3.16497e-06 0)
(2.8091e-06 3.33244e-06 0)
(2.95526e-06 3.49787e-06 0)
(3.10211e-06 3.66144e-06 0)
(3.24926e-06 3.82361e-06 0)
(6.90338e-07 5.91016e-07 0)
(7.76607e-07 7.36815e-07 0)
(8.69139e-07 8.89668e-07 0)
(9.67554e-07 1.04852e-06 0)
(1.07175e-06 1.21211e-06 0)
(1.18137e-06 1.3795e-06 0)
(1.29613e-06 1.54973e-06 0)
(1.41566e-06 1.72201e-06 0)
(1.53963e-06 1.89559e-06 0)
(1.66764e-06 2.06986e-06 0)
(1.79935e-06 2.24424e-06 0)
(1.93436e-06 2.41825e-06 0)
(2.0723e-06 2.59146e-06 0)
(2.2128e-06 2.76349e-06 0)
(2.35546e-06 2.93405e-06 0)
(2.49989e-06 3.10288e-06 0)
(2.64568e-06 3.26986e-06 0)
(2.79238e-06 3.43496e-06 0)
(2.9396e-06 3.5984e-06 0)
(3.08685e-06 3.76066e-06 0)
(9.89191e-08 1.07224e-08 0)
(2.98811e-07 6.59279e-08 0)
(5.11283e-07 1.68699e-07 0)
(7.39019e-07 3.1219e-07 0)
(9.86396e-07 4.92524e-07 0)
(1.25478e-06 7.03298e-07 0)
(1.54525e-06 9.37665e-07 0)
(1.85731e-06 1.18845e-06 0)
(2.19004e-06 1.4484e-06 0)
(2.54169e-06 1.71156e-06 0)
(9.31822e-08 9.58148e-09 0)
(2.81685e-07 5.91937e-08 0)
(4.81542e-07 1.52521e-07 0)
(6.94829e-07 2.84017e-07 0)
(9.25534e-07 4.50756e-07 0)
(1.17492e-06 6.47355e-07 0)
(1.4441e-06 8.6787e-07 0)
(1.7326e-06 1.10597e-06 0)
(2.03938e-06 1.35469e-06 0)
(2.36259e-06 1.60931e-06 0)
(8.80251e-08 8.23874e-09 0)
(2.6632e-07 5.23828e-08 0)
(4.5501e-07 1.3688e-07 0)
(6.55483e-07 2.57176e-07 0)
(8.71292e-07 4.11074e-07 0)
(1.10351e-06 5.94012e-07 0)
(1.3533e-06 8.00811e-07 0)
(1.6205e-06 1.02602e-06 0)
(1.90471e-06 1.26332e-06 0)
(2.20395e-06 1.50935e-06 0)
(8.33058e-08 6.68281e-09 0)
(2.52321e-07 4.55473e-08 0)
(4.31129e-07 1.2207e-07 0)
(6.20484e-07 2.32406e-07 0)
(8.23559e-07 3.74896e-07 0)
(1.04114e-06 5.45607e-07 0)
(1.27432e-06 7.39912e-07 0)
(1.52278e-06 9.52944e-07 0)
(1.78658e-06 1.17871e-06 0)
(2.06331e-06 1.4143e-06 0)
(7.88935e-08 4.89829e-09 0)
(2.39255e-07 3.8449e-08 0)
(4.08992e-07 1.0741e-07 0)
(5.88274e-07 2.08464e-07 0)
(7.79945e-07 3.40351e-07 0)
(9.84518e-07 4.99641e-07 0)
(1.20309e-06 6.82199e-07 0)
(1.43519e-06 8.83705e-07 0)
(1.68136e-06 1.09868e-06 0)
(1.93843e-06 1.32416e-06 0)
(7.47522e-08 2.91471e-09 0)
(2.27011e-07 3.11345e-08 0)
(3.88396e-07 9.29766e-08 0)
(5.5855e-07 1.85513e-07 0)
(7.40028e-07 3.07766e-07 0)
(9.33055e-07 4.56672e-07 0)
(1.13868e-06 6.28456e-07 0)
(1.35624e-06 8.19144e-07 0)
(1.58669e-06 1.02375e-06 0)
(1.82635e-06 1.23911e-06 0)
(7.07985e-08 7.2223e-10 0)
(2.1533e-07 2.34969e-08 0)
(3.68846e-07 7.84642e-08 0)
(5.30519e-07 1.62983e-07 0)
(7.02667e-07 2.76287e-07 0)
(8.8526e-07 4.15595e-07 0)
(1.07932e-06 5.77451e-07 0)
(1.28399e-06 7.5814e-07 0)
(1.50051e-06 9.53155e-07 0)
(1.72486e-06 1.15899e-06 0)
(6.70013e-08 -1.65099e-09 0)
(2.04114e-07 1.55688e-08 0)
(3.50154e-07 6.38821e-08 0)
(5.03866e-07 1.4086e-07 0)
(6.67369e-07 2.45881e-07 0)
(8.40397e-07 3.76361e-07 0)
(1.02394e-06 5.29089e-07 0)
(1.21698e-06 7.00518e-07 0)
(1.42098e-06 8.86589e-07 0)
(1.63177e-06 1.08352e-06 0)
(6.33117e-08 -4.20615e-09 0)
(1.93218e-07 7.30724e-09 0)
(3.3205e-07 4.90932e-08 0)
(4.78168e-07 1.18881e-07 0)
(6.33519e-07 2.16151e-07 0)
(7.97641e-07 3.3846e-07 0)
(9.7149e-07 4.82797e-07 0)
(1.15396e-06 6.45729e-07 0)
(1.34658e-06 8.23571e-07 0)
(1.54524e-06 1.01232e-06 0)
(5.97028e-08 -6.92592e-09 0)
(1.82559e-07 -1.27267e-09 0)
(3.14377e-07 3.4084e-08 0)
(4.5316e-07 9.69942e-08 0)
(6.00706e-07 1.86996e-07 0)
(7.56392e-07 3.01732e-07 0)
(9.21137e-07 4.38343e-07 0)
(1.09381e-06 5.93472e-07 0)
(1.27592e-06 7.63743e-07 0)
(1.4636e-06 9.45029e-07 0)
(5.6145e-08 -9.80895e-09 0)
(1.72052e-07 -1.01909e-08 0)
(2.96977e-07 1.87872e-08 0)
(4.28585e-07 7.50743e-08 0)
(5.68537e-07 1.58225e-07 0)
(7.16091e-07 2.65929e-07 0)
(8.72132e-07 3.95428e-07 0)
(1.03555e-06 5.43421e-07 0)
(1.20782e-06 7.06768e-07 0)
(1.38534e-06 8.81296e-07 0)
(5.26194e-08 -1.285e-08 0)
(1.61644e-07 -1.94488e-08 0)
(2.79743e-07 3.18394e-09 0)
(4.04248e-07 5.30843e-08 0)
(5.36693e-07 1.29774e-07 0)
(6.7626e-07 2.30948e-07 0)
(8.23807e-07 3.53904e-07 0)
(9.78305e-07 4.95378e-07 0)
(1.14115e-06 6.5241e-07 0)
(1.3091e-06 8.20848e-07 0)
(4.91146e-08 -1.60567e-08 0)
(1.51313e-07 -2.90753e-08 0)
(2.62606e-07 -1.27772e-08 0)
(3.79995e-07 3.09575e-08 0)
(5.04894e-07 1.01557e-07 0)
(6.36458e-07 1.96677e-07 0)
(7.75539e-07 3.13628e-07 0)
(9.21236e-07 4.49168e-07 0)
(1.07486e-06 6.00466e-07 0)
(1.23355e-06 7.63437e-07 0)
(4.56302e-08 -1.94558e-08 0)
(1.41073e-07 -3.91033e-08 0)
(2.45541e-07 -2.91123e-08 0)
(3.55717e-07 8.71338e-09 0)
(4.72895e-07 7.36141e-08 0)
(5.96274e-07 1.63161e-07 0)
(7.26727e-07 2.74628e-07 0)
(8.63531e-07 4.04786e-07 0)
(1.00792e-06 5.50899e-07 0)
(1.15744e-06 7.08983e-07 0)
(4.21972e-08 -2.30973e-08 0)
(1.31049e-07 -4.96205e-08 0)
(2.28643e-07 -4.59013e-08 0)
(3.3139e-07 -1.3702e-08 0)
(4.40499e-07 4.59157e-08 0)
(5.55305e-07 1.30372e-07 0)
(6.76751e-07 2.36863e-07 0)
(8.04335e-07 3.62164e-07 0)
(9.39232e-07 5.03609e-07 0)
(1.07942e-06 6.57337e-07 0)
(3.88822e-08 -2.71508e-08 0)
(1.21448e-07 -6.07532e-08 0)
(2.12065e-07 -6.31153e-08 0)
(3.07022e-07 -3.60885e-08 0)
(4.07512e-07 1.87724e-08 0)
(5.13134e-07 9.8674e-08 0)
(6.24962e-07 2.00705e-07 0)
(7.42766e-07 3.21648e-07 0)
(8.67682e-07 4.58899e-07 0)
(9.98126e-07 6.08744e-07 0)
(3.59319e-08 -3.18167e-08 0)
(1.12909e-07 -7.2753e-08 0)
(1.96335e-07 -8.09206e-08 0)
(2.8284e-07 -5.85621e-08 0)
(3.73807e-07 -7.88658e-09 0)
(4.69289e-07 6.79982e-08 0)
(5.70576e-07 1.66066e-07 0)
(6.77743e-07 2.83111e-07 0)
(7.91908e-07 4.16596e-07 0)
(9.11923e-07 5.62972e-07 0)
(3.38706e-08 -3.79628e-08 0)
(1.06172e-07 -8.60111e-08 0)
(1.81967e-07 -9.89629e-08 0)
(2.58958e-07 -8.02294e-08 0)
(3.3915e-07 -3.29189e-08 0)
(4.23207e-07 3.95787e-08 0)
(5.12741e-07 1.34165e-07 0)
(6.08143e-07 2.47709e-07 0)
(7.10536e-07 3.77756e-07 0)
(8.1919e-07 5.20954e-07 0)
(3.5251e-08 -4.62249e-08 0)
(1.03989e-07 -1.01005e-07 0)
(1.70715e-07 -1.17582e-07 0)
(2.35992e-07 -1.016e-07 0)
(3.03269e-07 -5.69402e-08 0)
(3.73976e-07 1.2676e-08 0)
(4.50059e-07 1.04167e-07 0)
(5.32173e-07 2.14513e-07 0)
(6.21439e-07 3.41382e-07 0)
(7.17473e-07 4.81627e-07 0)
(4.54814e-08 -6.11947e-08 0)
(1.08096e-07 -1.18094e-07 0)
(1.6341e-07 -1.34424e-07 0)
(2.13858e-07 -1.19011e-07 0)
(2.65748e-07 -7.60542e-08 0)
(3.20899e-07 -8.84661e-09 0)
(3.81649e-07 7.97461e-08 0)
(4.48767e-07 1.86968e-07 0)
(5.23401e-07 3.10642e-07 0)
(6.05366e-07 4.47863e-07 0)
)
;

boundaryField
{
    left
    {
        type            fixedDisplacement;
        value           uniform (0 0 0);
    }
    right
    {
        type            solidTraction;
        tractionSeries  
{
        file            "$FOAM_CASE/constant/timeVsTraction";
        outOfBounds     clamp;
}
        pressure        uniform 0;
        secondOrder     false;
        setEffectiveTraction false;
        relaxationFactor 1;
        value           nonuniform List<vector> 
30
(
(8.18525e-06 6.00417e-06 1.68496e-21)
(7.99459e-06 5.93543e-06 1.6905e-21)
(7.80225e-06 5.86716e-06 1.73339e-21)
(7.60768e-06 5.79812e-06 1.82166e-21)
(7.4109e-06 5.72751e-06 1.95245e-21)
(7.21237e-06 5.65461e-06 2.12173e-21)
(7.01279e-06 5.57899e-06 2.32267e-21)
(6.813e-06 5.50043e-06 2.54802e-21)
(6.61386e-06 5.41893e-06 2.78963e-21)
(6.41624e-06 5.3347e-06 3.03832e-21)
(6.22933e-06 5.25182e-06 3.21834e-21)
(6.05211e-06 5.17036e-06 3.30171e-21)
(5.87741e-06 5.08768e-06 3.35845e-21)
(5.70559e-06 5.0042e-06 3.38967e-21)
(5.5368e-06 4.92049e-06 3.39051e-21)
(5.37065e-06 4.8371e-06 3.36288e-21)
(5.20743e-06 4.75435e-06 3.31136e-21)
(5.0468e-06 4.67282e-06 3.23584e-21)
(4.8884e-06 4.59287e-06 3.14071e-21)
(4.73182e-06 4.51482e-06 3.02983e-21)
(4.57658e-06 4.43891e-06 2.90809e-21)
(4.42215e-06 4.36529e-06 2.78065e-21)
(4.26799e-06 4.29402e-06 2.65332e-21)
(4.11354e-06 4.22503e-06 2.5318e-21)
(3.9583e-06 4.15816e-06 2.42211e-21)
(3.80184e-06 4.09313e-06 2.32922e-21)
(3.64383e-06 4.02954e-06 2.25937e-21)