/*--------------------------------*- C++ -*----------------------------------*\
  =========                 |
  \\      /  F ield         | OpenFOAM: The Open Source CFD Toolbox
   \\    /   O peration     | Website:  https://openfoam.org
    \\  /    A nd           | Version:  9
     \\/     M anipulation  |
\*---------------------------------------------------------------------------*/
FoamFile
{
    format      ascii;
    class       volVectorField;
    location    "5";
    object      D_0;
}
// * * * * * * * * * * * * * * * * * * * * * * * * * * * * * * * * * * * * * //

dimensions      [0 1 0 0 0 0 0];

internalField   nonuniform List<vector> 
1000
(
(2.70567e-06 9.0956e-07 0)
(2.52475e-06 1.00454e-06 0)
(2.39314e-06 1.08451e-06 0)
(2.29804e-06 1.147e-06 0)
(2.23018e-06 1.20096e-06 0)
(2.18231e-06 1.24738e-06 0)
(2.14991e-06 1.28921e-06 0)
(2.12935e-06 1.32732e-06 0)
(2.11776e-06 1.36287e-06 0)
(2.1137e-06 1.39657e-06 0)
(2.43828e-06 8.20128e-07 0)
(2.2504e-06 8.89129e-07 0)
(2.11464e-06 9.49677e-07 0)
(2.01697e-06 9.96417e-07 0)
(1.94737e-06 1.03749e-06 0)
(1.8981e-06 1.0728e-06 0)
(1.86435e-06 1.10484e-06 0)
(1.84227e-06 1.13413e-06 0)
(1.82892e-06 1.16131e-06 0)
(1.82233e-06 1.18783e-06 0)
(2.16519e-06 7.30512e-07 0)
(1.97557e-06 7.71829e-07 0)
(1.83937e-06 8.12148e-07 0)
(1.7419e-06 8.42944e-07 0)
(1.67268e-06 8.71339e-07 0)
(1.62367e-06 8.96003e-07 0)
(1.58986e-06 9.1887e-07 0)
(1.56734e-06 9.40048e-07 0)
(1.55315e-06 9.59658e-07 0)
(1.54519e-06 9.79309e-07 0)
(1.88777e-06 6.42153e-07 0)
(1.70189e-06 6.55175e-07 0)
(1.56921e-06 6.75196e-07 0)
(1.47493e-06 6.90376e-07 0)
(1.40837e-06 7.06709e-07 0)
(1.36141e-06 7.21478e-07 0)
(1.329e-06 7.36036e-07 0)
(1.30719e-06 7.49945e-07 0)
(1.2932e-06 7.62927e-07 0)
(1.28475e-06 7.76438e-07 0)
(1.60673e-06 5.56373e-07 0)
(1.4302e-06 5.41629e-07 0)
(1.30521e-06 5.42156e-07 0)
(1.21734e-06 5.42733e-07 0)
(1.15589e-06 5.48172e-07 0)
(1.11286e-06 5.5426e-07 0)
(1.08329e-06 5.61737e-07 0)
(1.06332e-06 5.69536e-07 0)
(1.05041e-06 5.77053e-07 0)
(1.04221e-06 5.8538e-07 0)
(1.32326e-06 4.73756e-07 0)
(1.1613e-06 4.32926e-07 0)
(1.04824e-06 4.15848e-07 0)
(9.70127e-07 4.03668e-07 0)
(9.16322e-07 4.00057e-07 0)
(8.79096e-07 3.99191e-07 0)
(8.53746e-07 4.01199e-07 0)
(8.36645e-07 4.04353e-07 0)
(8.25576e-07 4.07805e-07 0)
(8.18257e-07 4.12178e-07 0)
(1.03629e-06 3.94252e-07 0)
(8.9453e-07 3.30228e-07 0)
(7.98023e-07 2.98781e-07 0)
(7.33247e-07 2.76868e-07 0)
(6.89685e-07 2.6689e-07 0)
(6.60066e-07 2.61371e-07 0)
(6.40175e-07 2.59866e-07 0)
(6.26795e-07 2.6006e-07 0)
(6.18141e-07 2.60961e-07 0)
(6.12176e-07 2.62726e-07 0)
(7.47832e-07 3.15593e-07 0)
(6.30988e-07 2.3314e-07 0)
(5.55996e-07 1.92916e-07 0)
(5.08013e-07 1.65938e-07 0)
(4.76863e-07 1.53286e-07 0)
(4.56127e-07 1.46013e-07 0)
(4.42432e-07 1.43228e-07 0)
(4.33227e-07 1.42266e-07 0)
(4.27264e-07 1.4215e-07 0)
(4.22942e-07 1.42682e-07 0)
(4.51408e-07 2.30012e-07 0)
(3.68859e-07 1.38856e-07 0)
(3.21407e-07 9.93411e-08 0)
(2.93236e-07 7.47468e-08 0)
(2.76153e-07 6.41948e-08 0)
(2.64971e-07 5.8365e-08 0)
(2.57747e-07 5.63376e-08 0)
(2.52801e-07 5.56592e-08 0)
(2.49544e-07 5.56142e-08 0)
(2.46976e-07 5.58981e-08 0)
(1.55573e-07 1.20368e-07 0)
(1.17284e-07 5.10823e-08 0)
(1.02681e-07 2.67581e-08 0)
(9.49563e-08 1.45277e-08 0)
(9.04726e-08 1.03171e-08 0)
(8.73397e-08 8.41368e-09 0)
(8.52913e-08 8.14877e-09 0)
(8.37878e-08 8.30845e-09 0)
(8.27588e-08 8.62068e-09 0)
(8.18495e-08 8.96576e-09 0)
(4.77131e-06 1.4737e-06 0)
(4.76342e-06 1.65705e-06 0)
(4.75798e-06 1.82788e-06 0)
(4.75817e-06 1.98427e-06 0)
(4.76535e-06 2.12783e-06 0)
(4.78005e-06 2.26034e-06 0)
(4.80235e-06 2.38387e-06 0)
(4.83178e-06 2.50022e-06 0)
(4.86809e-06 2.61079e-06 0)
(4.91036e-06 2.71716e-06 0)
(4.62168e-06 1.46159e-06 0)
(4.60048e-06 1.6444e-06 0)
(4.58604e-06 1.81314e-06 0)
(4.57965e-06 1.96638e-06 0)
(4.58203e-06 2.10608e-06 0)
(4.59274e-06 2.23416e-06 0)
(4.61142e-06 2.35287e-06 0)
(4.63721e-06 2.4641e-06 0)
(4.66973e-06 2.56935e-06 0)
(4.70775e-06 2.67039e-06 0)
(4.46298e-06 1.43701e-06 0)
(4.426e-06 1.61935e-06 0)
(4.39931e-06 1.78465e-06 0)
(4.38325e-06 1.93294e-06 0)
(4.37798e-06 2.06721e-06 0)
(4.38226e-06 2.18963e-06 0)
(4.39531e-06 2.30263e-06 0)
(4.4158e-06 2.40812e-06 0)
(4.44325e-06 2.50764e-06 0)
(4.47596e-06 2.60303e-06 0)
(4.29148e-06 1.40129e-06 0)
(4.23677e-06 1.58275e-06 0)
(4.19583e-06 1.74383e-06 0)
(4.16831e-06 1.88607e-06 0)
(4.15367e-06 2.0138e-06 0)
(4.14998e-06 2.12953e-06 0)
(4.15607e-06 2.23589e-06 0)
(4.17016e-06 2.33482e-06 0)
(4.19169e-06 2.42792e-06 0)
(4.21841e-06 2.51702e-06 0)
(4.1052e-06 1.35475e-06 0)
(4.03106e-06 1.53388e-06 0)
(3.97488e-06 1.68942e-06 0)
(3.93527e-06 1.82422e-06 0)
(3.91072e-06 1.94414e-06 0)
(3.89861e-06 2.05201e-06 0)
(3.89733e-06 2.15075e-06 0)
(3.90472e-06 2.24227e-06 0)
(3.92005e-06 2.32827e-06 0)
(3.94064e-06 2.41042e-06 0)
(3.90387e-06 1.29849e-06 0)
(3.8092e-06 1.47282e-06 0)
(3.73746e-06 1.6212e-06 0)
(3.68578e-06 1.74728e-06 0)
(3.65142e-06 1.85834e-06 0)
(3.631e-06 1.95742e-06 0)
(3.62248e-06 2.04772e-06 0)
(3.62328e-06 2.1311e-06 0)
(3.63256e-06 2.20935e-06 0)
(3.6472e-06 2.28394e-06 0)
(3.68802e-06 1.23335e-06 0)
(3.57252e-06 1.39956e-06 0)
(3.48556e-06 1.53874e-06 0)
(3.42237e-06 1.65471e-06 0)
(3.3788e-06 1.75588e-06 0)
(3.35066e-06 1.84536e-06 0)
(3.33543e-06 1.92654e-06 0)
(3.33018e-06 2.00119e-06 0)
(3.33383e-06 2.07119e-06 0)
(3.34304e-06 2.13775e-06 0)
(3.45876e-06 1.16055e-06 0)
(3.32315e-06 1.31477e-06 0)
(3.22195e-06 1.44251e-06 0)
(3.14823e-06 1.54698e-06 0)
(3.09642e-06 1.63736e-06 0)
(3.06146e-06 1.7166e-06 0)
(3.04032e-06 1.78818e-06 0)
(3.02975e-06 1.85369e-06 0)
(3.02843e-06 1.91509e-06 0)
(3.03292e-06 1.97321e-06 0)
(3.21754e-06 1.08133e-06 0)
(3.06362e-06 1.21954e-06 0)
(2.94982e-06 1.33347e-06 0)
(2.86702e-06 1.42509e-06 0)
(2.80824e-06 1.50389e-06 0)
(2.76761e-06 1.57241e-06 0)
(2.74153e-06 1.63407e-06 0)
(2.72656e-06 1.69027e-06 0)
(2.72097e-06 1.74283e-06 0)
(2.72162e-06 1.79239e-06 0)
(2.96596e-06 9.97156e-07 0)
(2.79661e-06 1.11546e-06 0)
(2.67247e-06 1.21337e-06 0)
(2.58241e-06 1.29092e-06 0)
(2.51819e-06 1.35751e-06 0)
(2.47317e-06 1.41501e-06 0)
(2.44328e-06 1.4667e-06 0)
(2.4249e-06 1.51358e-06 0)
(2.41591e-06 1.55744e-06 0)
(2.41383e-06 1.59789e-06 0)
(4.96088e-06 2.81948e-06 0)
(5.01887e-06 2.92103e-06 0)
(5.08131e-06 3.02096e-06 0)
(5.1477e-06 3.11973e-06 0)
(5.21769e-06 3.21786e-06 0)
(5.29089e-06 3.31561e-06 0)
(5.36699e-06 3.41334e-06 0)
(5.44566e-06 3.51126e-06 0)
(5.52663e-06 3.60959e-06 0)
(5.60963e-06 3.7085e-06 0)
(5.69444e-06 3.80814e-06 0)
(5.78082e-06 3.90863e-06 0)
(5.86855e-06 4.01008e-06 0)
(5.95744e-06 4.11256e-06 0)
(6.04727e-06 4.21615e-06 0)
(6.13786e-06 4.32087e-06 0)
(6.22901e-06 4.42669e-06 0)
(6.3205e-06 4.53354e-06 0)
(6.41219e-06 4.64123e-06 0)
(6.50386e-06 4.74944e-06 0)
(4.7604e-06 2.76884e-06 0)
(4.82553e-06 2.8687e-06 0)
(4.89415e-06 2.96704e-06 0)
(4.96571e-06 3.0644e-06 0)
(5.0401e-06 3.16133e-06 0)
(5.11698e-06 3.25807e-06 0)
(5.19618e-06 3.35497e-06 0)
(5.27744e-06 3.45223e-06 0)
(5.36058e-06 3.55007e-06 0)
(5.44541e-06 3.64864e-06 0)
(5.53175e-06 3.74809e-06 0)
(5.61943e-06 3.84854e-06 0)
(5.70829e-06 3.95008e-06 0)
(5.79819e-06 4.05279e-06 0)
(5.88896e-06 4.15674e-06 0)
(5.98048e-06 4.26194e-06 0)
(6.0726e-06 4.36839e-06 0)
(6.16516e-06 4.47599e-06 0)
(6.25805e-06 4.58457e-06 0)
(6.35104e-06 4.69387e-06 0)
(4.53153e-06 2.69857e-06 0)
(4.60587e-06 2.79861e-06 0)
(4.68272e-06 2.89717e-06 0)
(4.76139e-06 2.99473e-06 0)
(4.84204e-06 3.09192e-06 0)
(4.92436e-06 3.18895e-06 0)
(5.00834e-06 3.28621e-06 0)
(5.09377e-06 3.38388e-06 0)
(5.1806e-06 3.48221e-06 0)
(5.26868e-06 3.58134e-06 0)
(5.35791e-06 3.68142e-06 0)
(5.4482e-06 3.78258e-06 0)
(5.53944e-06 3.88491e-06 0)
(5.63154e-06 3.98851e-06 0)
(5.7244e-06 4.09343e-06 0)
(5.81794e-06 4.19972e-06 0)
(5.91205e-06 4.30738e-06 0)
(6.00661e-06 4.41638e-06 0)
(6.10152e-06 4.52663e-06 0)
(6.19653e-06 4.63796e-06 0)
(4.27762e-06 2.61021e-06 0)
(4.36289e-06 2.71187e-06 0)
(4.44974e-06 2.81211e-06 0)
(4.53718e-06 2.91116e-06 0)
(4.62573e-06 3.00984e-06 0)
(4.71503e-06 3.10827e-06 0)
(4.80526e-06 3.20692e-06 0)
(4.89628e-06 3.30596e-06 0)
(4.98812e-06 3.40565e-06 0)
(5.08071e-06 3.50616e-06 0)
(5.17405e-06 3.60764e-06 0)
(5.26808e-06 3.71024e-06 0)
(5.36277e-06 3.81405e-06 0)
(5.45809e-06 3.91918e-06 0)
(5.55399e-06 4.02571e-06 0)
(5.65042e-06 4.13371e-06 0)
(5.74733e-06 4.24322e-06 0)
(5.84463e-06 4.35427e-06 0)
(5.94223e-06 4.46688e-06 0)
(6.03987e-06 4.581e-06 0)
(4.00419e-06 2.50207e-06 0)
(4.1017e-06 2.60699e-06 0)
(4.19988e-06 2.71058e-06 0)
(4.29733e-06 2.81259e-06 0)
(4.395e-06 2.91414e-06 0)
(4.49245e-06 3.01523e-06 0)
(4.59007e-06 3.11642e-06 0)
(4.68774e-06 3.21789e-06 0)
(4.78562e-06 3.31993e-06 0)
(4.8837e-06 3.42272e-06 0)
(4.98205e-06 3.52645e-06 0)
(5.08069e-06 3.63125e-06 0)
(5.17965e-06 3.73727e-06 0)
(5.27894e-06 3.84463e-06 0)
(5.37858e-06 3.95342e-06 0)
(5.47856e-06 4.06375e-06 0)
(5.57888e-06 4.17572e-06 0)
(5.67947e-06 4.28942e-06 0)
(5.78028e-06 4.405e-06 0)
(5.88109e-06 4.5225e-06 0)
(3.7157e-06 2.37477e-06 0)
(3.82638e-06 2.48448e-06 0)
(3.93689e-06 2.59297e-06 0)
(4.04527e-06 2.69934e-06 0)
(4.15299e-06 2.80505e-06 0)
(4.25949e-06 2.91e-06 0)
(4.36536e-06 3.01486e-06 0)
(4.47053e-06 3.11979e-06 0)
(4.57525e-06 3.22513e-06 0)
(4.67958e-06 3.33109e-06 0)
(4.78367e-06 3.43788e-06 0)
(4.88759e-06 3.54567e-06 0)
(4.99145e-06 3.65462e-06 0)
(5.0953e-06 3.76486e-06 0)
(5.19922e-06 3.87655e-06 0)
(5.30325e-06 3.98981e-06 0)
(5.40742e-06 4.10479e-06 0)
(5.51172e-06 4.22167e-06 0)
(5.61616e-06 4.34069e-06 0)
(5.72057e-06 4.46199e-06 0)
(3.41694e-06 2.22857e-06 0)
(3.54125e-06 2.3446e-06 0)
(3.6647e-06 2.45949e-06 0)
(3.7846e-06 2.57163e-06 0)
(3.90299e-06 2.68277e-06 0)
(4.01916e-06 2.79279e-06 0)
(4.1339e-06 2.90238e-06 0)
(4.24716e-06 3.01179e-06 0)
(4.35929e-06 3.12138e-06 0)
(4.47042e-06 3.23139e-06 0)
(4.58077e-06 3.34207e-06 0)
(4.69046e-06 3.45361e-06 0)
(4.79967e-06 3.5662e-06 0)
(4.9085e-06 3.68001e-06 0)
(5.01708e-06 3.79521e-06 0)
(5.12551e-06 3.91197e-06 0)
(5.23387e-06 4.03049e-06 0)
(5.34221e-06 4.15099e-06 0)
(5.45056e-06 4.27383e-06 0)
(5.55889e-06 4.3992e-06 0)
(3.11238e-06 2.06475e-06 0)
(3.25036e-06 2.18856e-06 0)
(3.3869e-06 2.31106e-06 0)
(3.51862e-06 2.43029e-06 0)
(3.64794e-06 2.54799e-06 0)
(3.77417e-06 2.66422e-06 0)
(3.89814e-06 2.7796e-06 0)
(4.0199e-06 2.89449e-06 0)
(4.13985e-06 3.00924e-06 0)
(4.25818e-06 3.12415e-06 0)
(4.37516e-06 3.23951e-06 0)
(4.49098e-06 3.35553e-06 0)
(4.60585e-06 3.47245e-06 0)
(4.71996e-06 3.59044e-06 0)
(4.83347e-06 3.70973e-06 0)
(4.94653e-06 3.8305e-06 0)
(5.05928e-06 3.953e-06 0)
(5.17184e-06 4.0775e-06 0)
(5.2843e-06 4.20443e-06 0)
(5.39676e-06 4.33403e-06 0)
(2.8066e-06 1.88487e-06 0)
(2.95791e-06 2.01797e-06 0)
(3.10719e-06 2.14902e-06 0)
(3.25079e-06 2.27654e-06 0)
(3.39101e-06 2.40175e-06 0)
(3.5274e-06 2.5251e-06 0)
(3.66071e-06 2.64713e-06 0)
(3.79113e-06 2.76832e-06 0)
(3.91906e-06 2.88904e-06 0)
(4.04477e-06 3.00964e-06 0)
(4.16856e-06 3.13043e-06 0)
(4.29069e-06 3.25167e-06 0)
(4.41141e-06 3.37359e-06 0)
(4.53096e-06 3.49641e-06 0)
(4.64954e-06 3.62036e-06 0)
(4.76737e-06 3.74566e-06 0)
(4.88463e-06 3.87258e-06 0)
(5.00152e-06 4.00141e-06 0)
(5.11819e-06 4.13263e-06 0)
(5.23489e-06 4.26652e-06 0)
(2.50319e-06 1.69168e-06 0)
(2.66712e-06 1.83502e-06 0)
(2.8278e-06 1.9749e-06 0)
(2.983e-06 2.11158e-06 0)
(3.13392e-06 2.24532e-06 0)
(3.28054e-06 2.37676e-06 0)
(3.42333e-06 2.50637e-06 0)
(3.56258e-06 2.63468e-06 0)
(3.69866e-06 2.76213e-06 0)
(3.83191e-06 2.88911e-06 0)
(3.96266e-06 3.01596e-06 0)
(4.09121e-06 3.143e-06 0)
(4.21787e-06 3.27047e-06 0)
(4.34292e-06 3.39863e-06 0)
(4.46662e-06 3.52771e-06 0)
(4.58924e-06 3.65795e-06 0)
(4.71101e-06 3.78964e-06 0)
(4.83223e-06 3.92305e-06 0)
(4.95308e-06 4.0587e-06 0)
(5.07403e-06 4.19686e-06 0)
(2.26917e-06 1.54683e-06 0)
(2.44011e-06 1.69762e-06 0)
(2.60677e-06 1.84248e-06 0)
(2.76827e-06 1.9844e-06 0)
(2.92525e-06 2.12335e-06 0)
(3.07775e-06 2.25994e-06 0)
(3.22617e-06 2.39462e-06 0)
(3.37074e-06 2.52785e-06 0)
(3.51183e-06 2.66002e-06 0)
(3.64974e-06 2.79151e-06 0)
(3.78481e-06 2.92265e-06 0)
(3.91734e-06 3.05373e-06 0)
(4.04766e-06 3.18501e-06 0)
(4.17606e-06 3.31671e-06 0)
(4.30282e-06 3.44907e-06 0)
(4.42826e-06 3.58231e-06 0)
(4.55263e-06 3.71669e-06 0)
(4.6763e-06 3.85248e-06 0)
(4.79949e-06 3.99009e-06 0)
(4.92281e-06 4.12981e-06 0)
(2.11305e-06 1.4602e-06 0)
(2.284e-06 1.61096e-06 0)
(2.45072e-06 1.75701e-06 0)
(2.61274e-06 1.90052e-06 0)
(2.77052e-06 2.04145e-06 0)
(2.92403e-06 2.18021e-06 0)
(3.07358e-06 2.31716e-06 0)
(3.21936e-06 2.45266e-06 0)
(3.36167e-06 2.58705e-06 0)
(3.50077e-06 2.72064e-06 0)
(3.63696e-06 2.85372e-06 0)
(3.77053e-06 2.98653e-06 0)
(3.90178e-06 3.11932e-06 0)
(4.03099e-06 3.25229e-06 0)
(4.15845e-06 3.38564e-06 0)
(4.28448e-06 3.51955e-06 0)
(4.40935e-06 3.65426e-06 0)
(4.53345e-06 3.78998e-06 0)
(4.65702e-06 3.92705e-06 0)
(4.78076e-06 4.06565e-06 0)
(1.97524e-06 1.37702e-06 0)
(2.14312e-06 1.52734e-06 0)
(2.30813e-06 1.6738e-06 0)
(2.46891e-06 1.81828e-06 0)
(2.62605e-06 1.96063e-06 0)
(2.77926e-06 2.1011e-06 0)
(2.92883e-06 2.23996e-06 0)
(3.07482e-06 2.37746e-06 0)
(3.21749e-06 2.51387e-06 0)
(3.35703e-06 2.64942e-06 0)
(3.49371e-06 2.78435e-06 0)
(3.62777e-06 2.91887e-06 0)
(3.75949e-06 3.05315e-06 0)
(3.88915e-06 3.18738e-06 0)
(4.01701e-06 3.32171e-06 0)
(4.14339e-06 3.45629e-06 0)
(4.26856e-06 3.5913e-06 0)
(4.39294e-06 3.7269e-06 0)
(4.51677e-06 3.86329e-06 0)
(4.64081e-06 4.00062e-06 0)
(1.85174e-06 1.29692e-06 0)
(2.01559e-06 1.44601e-06 0)
(2.17764e-06 1.59234e-06 0)
(2.33602e-06 1.73738e-06 0)
(2.49139e-06 1.88081e-06 0)
(2.64326e-06 2.02273e-06 0)
(2.79188e-06 2.16327e-06 0)
(2.93721e-06 2.30259e-06 0)
(3.07946e-06 2.44086e-06 0)
(3.21875e-06 2.57826e-06 0)
(3.35531e-06 2.71494e-06 0)
(3.48935e-06 2.85107e-06 0)
(3.62111e-06 2.9868e-06 0)
(3.75083e-06 3.12224e-06 0)
(3.87879e-06 3.25751e-06 0)
(4.00528e-06 3.39274e-06 0)
(4.13056e-06 3.528e-06 0)
(4.25505e-06 3.66343e-06 0)
(4.37901e-06 3.7991e-06 0)
(4.50321e-06 3.93504e-06 0)
(1.74111e-06 1.22072e-06 0)
(1.90004e-06 1.36814e-06 0)
(2.05811e-06 1.51385e-06 0)
(2.21312e-06 1.65898e-06 0)
(2.36577e-06 1.80304e-06 0)
(2.51543e-06 1.946e-06 0)
(2.66228e-06 2.08789e-06 0)
(2.8062e-06 2.22873e-06 0)
(2.94734e-06 2.36863e-06 0)
(3.08578e-06 2.50766e-06 0)
(3.22168e-06 2.64595e-06 0)
(3.35523e-06 2.78357e-06 0)
(3.48662e-06 2.92063e-06 0)
(3.61608e-06 3.05721e-06 0)
(3.74385e-06 3.19337e-06 0)
(3.87019e-06 3.32918e-06 0)
(3.99541e-06 3.46467e-06 0)
(4.11978e-06 3.59988e-06 0)
(4.24384e-06 3.73472e-06 0)
(4.36813e-06 3.86925e-06 0)
(1.64123e-06 1.14839e-06 0)
(1.79474e-06 1.29372e-06 0)
(1.94817e-06 1.43841e-06 0)
(2.09914e-06 1.58322e-06 0)
(2.24837e-06 1.72754e-06 0)
(2.39511e-06 1.87122e-06 0)
(2.53951e-06 2.01414e-06 0)
(2.68139e-06 2.15625e-06 0)
(2.82084e-06 2.29753e-06 0)
(2.95789e-06 2.43801e-06 0)
(3.09266e-06 2.57771e-06 0)
(3.22529e-06 2.71668e-06 0)
(3.35595e-06 2.85495e-06 0)
(3.48484e-06 2.99257e-06 0)
(3.61216e-06 3.12953e-06 0)
(3.73817e-06 3.26586e-06 0)
(3.86312e-06 3.40152e-06 0)
(3.98738e-06 3.53644e-06 0)
(4.11116e-06 3.67049e-06 0)
(4.23522e-06 3.80368e-06 0)
(1.55038e-06 1.07998e-06 0)
(1.69816e-06 1.22298e-06 0)
(1.84648e-06 1.36634e-06 0)
(1.99291e-06 1.5105e-06 0)
(2.13817e-06 1.65475e-06 0)
(2.28146e-06 1.79881e-06 0)
(2.42287e-06 1.94246e-06 0)
(2.56219e-06 2.08555e-06 0)
(2.69946e-06 2.22796e-06 0)
(2.83466e-06 2.36965e-06 0)
(2.96789e-06 2.51057e-06 0)
(3.09924e-06 2.65071e-06 0)
(3.22885e-06 2.79005e-06 0)
(3.35689e-06 2.92857e-06 0)
(3.48353e-06 3.06624e-06 0)
(3.60901e-06 3.20301e-06 0)
(3.73354e-06 3.33878e-06 0)
(3.85747e-06 3.47345e-06 0)
(3.98097e-06 3.60676e-06 0)
(4.10473e-06 3.7386e-06 0)
(1.46685e-06 1.01532e-06 0)
(1.60875e-06 1.15583e-06 0)
(1.75167e-06 1.29764e-06 0)
(1.89325e-06 1.4409e-06 0)
(2.03415e-06 1.58479e-06 0)
(2.17357e-06 1.72897e-06 0)
(2.31158e-06 1.87308e-06 0)
(2.44792e-06 2.01688e-06 0)
(2.58261e-06 2.16018e-06 0)
(2.7156e-06 2.30285e-06 0)
(2.84694e-06 2.44479e-06 0)
(2.97669e-06 2.58591e-06 0)
(3.10498e-06 2.72615e-06 0)
(3.23193e-06 2.86545e-06 0)
(3.35769e-06 3.00371e-06 0)
(3.48247e-06 3.14084e-06 0)
(3.60643e-06 3.2767e-06 0)
(3.7299e-06 3.4111e-06 0)
(3.85301e-06 3.54371e-06 0)
(3.97637e-06 3.67436e-06 0)
(1.38912e-06 9.54213e-07 0)
(1.52509e-06 1.09219e-06 0)
(1.66245e-06 1.23232e-06 0)
(1.79895e-06 1.37449e-06 0)
(1.93522e-06 1.51782e-06 0)
(2.07047e-06 1.66187e-06 0)
(2.20476e-06 1.80619e-06 0)
(2.33781e-06 1.95046e-06 0)
(2.4696e-06 2.09441e-06 0)
(2.60007e-06 2.23784e-06 0)
(2.72925e-06 2.38058e-06 0)
(2.85716e-06 2.5225e-06 0)
(2.98389e-06 2.66348e-06 0)
(3.10956e-06 2.8034e-06 0)
(3.23427e-06 2.94214e-06 0)
(3.35819e-06 3.07955e-06 0)
(3.48147e-06 3.21545e-06 0)
(3.60437e-06 3.3496e-06 0)
(3.72699e-06 3.48161e-06 0)
(3.84985e-06 3.61122e-06 0)
(1.3158e-06 8.96434e-07 0)
(1.44584e-06 1.03191e-06 0)
(1.57755e-06 1.17029e-06 0)
(1.70884e-06 1.31125e-06 0)
(1.8403e-06 1.45386e-06 0)
(1.97117e-06 1.59759e-06 0)
(2.1015e-06 1.74191e-06 0)
(2.23102e-06 1.88643e-06 0)
(2.35968e-06 2.03081e-06 0)
(2.48741e-06 2.17478e-06 0)
(2.6142e-06 2.31812e-06 0)
(2.74007e-06 2.46065e-06 0)
(2.86507e-06 2.60218e-06 0)
(2.98928e-06 2.74258e-06 0)
(3.1128e-06 2.88167e-06 0)
(3.23575e-06 3.01929e-06 0)
(3.35825e-06 3.15519e-06 0)
(3.4805e-06 3.28912e-06 0)
(3.60256e-06 3.42062e-06 0)
(3.72482e-06 3.54942e-06 0)
(1.24561e-06 8.41752e-07 0)
(1.36973e-06 9.7482e-07 0)
(1.49575e-06 1.11145e-06 0)
(1.62175e-06 1.25113e-06 0)
(1.74827e-06 1.3929e-06 0)
(1.87463e-06 1.53616e-06 0)
(2.00085e-06 1.68031e-06 0)
(2.12666e-06 1.82488e-06 0)
(2.25203e-06 1.96949e-06 0)
(2.37685e-06 2.1138e-06 0)
(2.5011e-06 2.25754e-06 0)
(2.62478e-06 2.40048e-06 0)
(2.74791e-06 2.5424e-06 0)
(2.87056e-06 2.68312e-06 0)
(2.99278e-06 2.82245e-06 0)
(3.11467e-06 2.96018e-06 0)
(3.23631e-06 3.09605e-06 0)
(3.35783e-06 3.22979e-06 0)
(3.47928e-06 3.3609e-06 0)
(3.6009e-06 3.48912e-06 0)
(1.17733e-06 7.89977e-07 0)
(1.29555e-06 9.20775e-07 0)
(1.41587e-06 1.0557e-06 0)
(1.53652e-06 1.19408e-06 0)
(1.65804e-06 1.33493e-06 0)
(1.77979e-06 1.4776e-06 0)
(1.90181e-06 1.62141e-06 0)
(2.02382e-06 1.76587e-06 0)
(2.14578e-06 1.91051e-06 0)
(2.26759e-06 2.05497e-06 0)
(2.3892e-06 2.19892e-06 0)
(2.5106e-06 2.34208e-06 0)
(2.63179e-06 2.48423e-06 0)
(2.75279e-06 2.62512e-06 0)
(2.87365e-06 2.76456e-06 0)
(2.99442e-06 2.90231e-06 0)
(3.11514e-06 3.03811e-06 0)
(3.2359e-06 3.17169e-06 0)
(3.3567e-06 3.30255e-06 0)
(3.47764e-06 3.43043e-06 0)
(1.10979e-06 7.40929e-07 0)
(1.22212e-06 8.69624e-07 0)
(1.33671e-06 1.00291e-06 0)
(1.452e-06 1.14e-06 0)
(1.56849e-06 1.27988e-06 0)
(1.68559e-06 1.42185e-06 0)
(1.80335e-06 1.56521e-06 0)
(1.92152e-06 1.70939e-06 0)
(2.04003e-06 1.8539e-06 0)
(2.15879e-06 1.99832e-06 0)
(2.27773e-06 2.14229e-06 0)
(2.39681e-06 2.28551e-06 0)
(2.51601e-06 2.42771e-06 0)
(2.63534e-06 2.56863e-06 0)
(2.75481e-06 2.70805e-06 0)
(2.87443e-06 2.84574e-06 0)
(2.99422e-06 2.98144e-06 0)
(3.1142e-06 3.11488e-06 0)
(3.23433e-06 3.24561e-06 0)
(3.35459e-06 3.37338e-06 0)
(1.04186e-06 6.9454e-07 0)
(1.14826e-06 8.213e-07 0)
(1.2571e-06 9.53026e-07 0)
(1.36702e-06 1.08884e-06 0)
(1.47845e-06 1.22771e-06 0)
(1.59092e-06 1.3689e-06 0)
(1.70443e-06 1.51167e-06 0)
(1.81876e-06 1.65542e-06 0)
(1.93385e-06 1.79963e-06 0)
(2.04957e-06 1.94384e-06 0)
(2.16586e-06 2.08767e-06 0)
(2.28265e-06 2.23077e-06 0)
(2.3999e-06 2.37286e-06 0)
(2.51757e-06 2.51366e-06 0)
(2.63566e-06 2.65295e-06 0)
(2.75414e-06 2.79049e-06 0)
(2.87301e-06 2.92604e-06 0)
(2.99221e-06 3.05935e-06 0)
(3.11169e-06 3.19005e-06 0)
(3.2313e-06 3.31794e-06 0)
(9.72327e-07 6.50677e-07 0)
(1.07275e-06 7.75673e-07 0)
(1.1758e-06 9.05916e-07 0)
(1.28034e-06 1.04047e-06 0)
(1.38675e-06 1.17829e-06 0)
(1.49462e-06 1.31862e-06 0)
(1.60394e-06 1.46069e-06 0)
(1.71452e-06 1.60388e-06 0)
(1.82626e-06 1.74763e-06 0)
(1.93904e-06 1.89147e-06 0)
(2.05277e-06 2.03498e-06 0)
(2.16736e-06 2.17781e-06 0)
(2.28273e-06 2.31964e-06 0)
(2.39883e-06 2.4602e-06 0)
(2.51561e-06 2.59924e-06 0)
(2.63302e-06 2.73654e-06 0)
(2.75099e-06 2.87188e-06 0)
(2.86947e-06 3.00507e-06 0)
(2.98833e-06 3.13582e-06 0)
(3.10735e-06 3.264e-06 0)
(8.99969e-07 6.09489e-07 0)
(9.9431e-07 7.3284e-07 0)
(1.09154e-06 8.6164e-07 0)
(1.19071e-06 9.94917e-07 0)
(1.29216e-06 1.13163e-06 0)
(1.39551e-06 1.27099e-06 0)
(1.50077e-06 1.41223e-06 0)
(1.60773e-06 1.5547e-06 0)
(1.71628e-06 1.69783e-06 0)
(1.82628e-06 1.84112e-06 0)
(1.93762e-06 1.98415e-06 0)
(2.05017e-06 2.12655e-06 0)
(2.16383e-06 2.26797e-06 0)
(2.27851e-06 2.40815e-06 0)
(2.3941e-06 2.54684e-06 0)
(2.51054e-06 2.68381e-06 0)
(2.62773e-06 2.81889e-06 0)
(2.74555e-06 2.95193e-06 0)
(2.86386e-06 3.08277e-06 0)
(2.98237e-06 3.21137e-06 0)
(8.2335e-07 5.70756e-07 0)
(9.115e-07 6.92564e-07 0)
(1.00287e-06 8.19943e-07 0)
(1.09672e-06 9.5192e-07 0)
(1.1933e-06 1.08745e-06 0)
(1.29231e-06 1.22575e-06 0)
(1.39369e-06 1.36602e-06 0)
(1.49724e-06 1.50763e-06 0)
(1.60285e-06 1.64999e-06 0)
(1.71032e-06 1.79259e-06 0)
(1.81953e-06 1.93499e-06 0)
(1.9303e-06 2.07681e-06 0)
(2.0425e-06 2.21771e-06 0)
(2.15598e-06 2.3574e-06 0)
(2.27062e-06 2.49564e-06 0)
(2.38627e-06 2.63221e-06 0)
(2.50283e-06 2.76697e-06 0)
(2.62012e-06 2.89983e-06 0)
(2.73798e-06 3.03073e-06 0)
(2.8561e-06 3.1598e-06 0)
(7.41052e-07 5.35092e-07 0)
(8.22892e-07 6.5532e-07 0)
(9.08392e-07 7.81179e-07 0)
(9.97006e-07 9.11719e-07 0)
(1.08888e-06 1.0459e-06 0)
(1.18376e-06 1.18295e-06 0)
(1.28153e-06 1.32206e-06 0)
(1.38199e-06 1.46261e-06 0)
(1.48497e-06 1.604e-06 0)
(1.59026e-06 1.74571e-06 0)
(1.69768e-06 1.88731e-06 0)
(1.80703e-06 2.0284e-06 0)
(1.91811e-06 2.16864e-06 0)
(2.03073e-06 2.30773e-06 0)
(2.14471e-06 2.44543e-06 0)
(2.25987e-06 2.58154e-06 0)
(2.37603e-06 2.71593e-06 0)
(2.49298e-06 2.84856e-06 0)
(2.61054e-06 2.97949e-06 0)
(2.7284e-06 3.10896e-06 0)
(6.50992e-07 5.0164e-07 0)
(7.26438e-07 6.20263e-07 0)
(8.06129e-07 7.44528e-07 0)
(8.8968e-07 8.73532e-07 0)
(9.77126e-07 1.00625e-06 0)
(1.0682e-06 1.14191e-06 0)
(1.16276e-06 1.27973e-06 0)
(1.26056e-06 1.41907e-06 0)
(1.36137e-06 1.55934e-06 0)
(1.46496e-06 1.70004e-06 0)
(1.57108e-06 1.84071e-06 0)
(1.67948e-06 1.98096e-06 0)
(1.78992e-06 2.12045e-06 0)
(1.90216e-06 2.25887e-06 0)
(2.01595e-06 2.39598e-06 0)
(2.13104e-06 2.53159e-06 0)
(2.24719e-06 2.66558e-06 0)
(2.36413e-06 2.79793e-06 0)
(2.48163e-06 2.9288e-06 0)
(2.59937e-06 3.05855e-06 0)
(5.51997e-07 4.72367e-07 0)
(6.21004e-07 5.89e-07 0)
(6.95024e-07 7.1128e-07 0)
(7.73754e-07 8.38357e-07 0)
(8.57114e-07 9.69233e-07 0)
(9.4481e-07 1.10314e-06 0)
(1.03663e-06 1.23933e-06 0)
(1.13226e-06 1.37715e-06 0)
(1.23144e-06 1.51602e-06 0)
(1.33386e-06 1.65544e-06 0)
(1.43924e-06 1.79495e-06 0)
(1.54726e-06 1.93417e-06 0)
(1.65763e-06 2.07274e-06 0)
(1.77004e-06 2.21037e-06 0)
(1.88419e-06 2.34682e-06 0)
(1.99975e-06 2.4819e-06 0)
(2.1164e-06 2.61549e-06 0)
(2.23377e-06 2.74758e-06 0)
(2.35156e-06 2.87834e-06 0)
(2.46939e-06 3.00817e-06 0)
(7.91268e-08 8.55968e-09 0)
(2.39027e-07 5.26924e-08 0)
(4.09004e-07 1.34885e-07 0)
(5.91208e-07 2.4966e-07 0)
(7.89139e-07 3.93917e-07 0)
(1.00389e-06 5.62532e-07 0)
(1.23633e-06 7.50029e-07 0)
(1.48606e-06 9.50664e-07 0)
(1.75233e-06 1.15863e-06 0)
(2.03374e-06 1.36917e-06 0)
(7.45356e-08 7.64621e-09 0)
(2.25321e-07 4.73027e-08 0)
(3.85202e-07 1.21939e-07 0)
(5.55841e-07 2.27116e-07 0)
(7.40429e-07 3.60495e-07 0)
(9.39979e-07 5.17768e-07 0)
(1.15537e-06 6.9418e-07 0)
(1.38624e-06 8.84666e-07 0)
(1.63174e-06 1.08365e-06 0)
(1.89039e-06 1.28736e-06 0)
(7.04084e-08 6.57129e-09 0)
(2.13024e-07 4.18514e-08 0)
(3.63969e-07 1.09422e-07 0)
(5.24351e-07 2.05636e-07 0)
(6.97017e-07 3.2874e-07 0)
(8.82821e-07 4.75082e-07 0)
(1.08271e-06 6.40519e-07 0)
(1.29653e-06 8.20691e-07 0)
(1.52397e-06 1.01054e-06 0)
(1.76343e-06 1.20737e-06 0)
(6.66316e-08 5.32592e-09 0)
(2.01822e-07 3.63804e-08 0)
(3.44857e-07 9.75689e-08 0)
(4.96342e-07 1.85814e-07 0)
(6.58816e-07 2.99789e-07 0)
(8.32905e-07 4.36347e-07 0)
(1.01949e-06 5.91786e-07 0)
(1.21831e-06 7.62213e-07 0)
(1.42942e-06 9.42832e-07 0)
(1.65087e-06 1.13131e-06 0)
(6.31005e-08 3.89754e-09 0)
(1.91365e-07 3.06991e-08 0)
(3.27141e-07 8.58356e-08 0)
(4.70564e-07 1.66654e-07 0)
(6.23911e-07 2.72144e-07 0)
(7.87591e-07 3.99562e-07 0)
(9.62481e-07 5.45602e-07 0)
(1.14821e-06 7.06806e-07 0)
(1.34521e-06 8.78786e-07 0)
(1.55092e-06 1.05918e-06 0)
(5.97863e-08 2.30991e-09 0)
(1.81566e-07 2.48446e-08 0)
(3.10659e-07 7.42842e-08 0)
(4.46776e-07 1.48285e-07 0)
(5.91965e-07 2.46066e-07 0)
(7.46405e-07 3.65176e-07 0)
(9.10933e-07 5.02595e-07 0)
(1.08502e-06 6.55141e-07 0)
(1.26943e-06 8.18824e-07 0)
(1.46122e-06 9.91115e-07 0)
(5.66221e-08 5.54974e-10 0)
(1.72218e-07 1.87315e-08 0)
(2.95013e-07 6.26688e-08 0)
(4.24343e-07 1.30254e-07 0)
(5.62065e-07 2.20873e-07 0)
(7.08154e-07 3.32303e-07 0)
(8.63426e-07 4.61777e-07 0)
(1.02719e-06 6.06323e-07 0)
(1.20046e-06 7.62333e-07 0)
(1.37999e-06 9.27007e-07 0)
(5.35832e-08 -1.34455e-09 0)
(1.63242e-07 1.23857e-08 0)
(2.80055e-07 5.09973e-08 0)
(4.03014e-07 1.12547e-07 0)
(5.33817e-07 1.96538e-07 0)
(6.72249e-07 3.00903e-07 0)
(8.19102e-07 4.23073e-07 0)
(9.73569e-07 5.60209e-07 0)
(1.1368e-06 7.09063e-07 0)
(1.30548e-06 8.66607e-07 0)
(5.06305e-08 -3.38984e-09 0)
(1.54522e-07 5.77268e-09 0)
(2.65567e-07 3.91599e-08 0)
(3.82449e-07 9.49552e-08 0)
(5.06728e-07 1.72744e-07 0)
(6.38033e-07 2.7057e-07 0)
(7.77127e-07 3.86025e-07 0)
(9.23128e-07 5.16362e-07 0)
(1.07725e-06 6.58632e-07 0)
(1.23623e-06 8.0963e-07 0)
(4.77423e-08 -5.56694e-09 0)
(1.45992e-07 -1.09541e-09 0)
(2.51424e-07 2.71456e-08 0)
(3.62437e-07 7.74364e-08 0)
(4.80469e-07 1.49408e-07 0)
(6.05022e-07 2.41175e-07 0)
(7.36829e-07 3.50448e-07 0)
(8.74985e-07 4.74541e-07 0)
(1.02071e-06 6.10752e-07 0)
(1.17088e-06 7.55779e-07 0)
(4.48951e-08 -7.87482e-09 0)
(1.37584e-07 -8.23465e-09 0)
(2.375e-07 1.49006e-08 0)
(3.42771e-07 5.98905e-08 0)
(4.54726e-07 1.2638e-07 0)
(5.72771e-07 2.12519e-07 0)
(6.97611e-07 3.16101e-07 0)
(8.28361e-07 4.34484e-07 0)
(9.66198e-07 5.65155e-07 0)
(1.10824e-06 7.04775e-07 0)
(4.20737e-08 -1.03093e-08 0)
(1.29255e-07 -1.56462e-08 0)
(2.2371e-07 2.40958e-09 0)
(3.23296e-07 4.22877e-08 0)
(4.29244e-07 1.03606e-07 0)
(5.40896e-07 1.8452e-07 0)
(6.58938e-07 2.82867e-07 0)
(7.82548e-07 3.96034e-07 0)
(9.12842e-07 5.21652e-07 0)
(1.04722e-06 6.56398e-07 0)
(3.9269e-08 -1.28767e-08 0)
(1.20988e-07 -2.33534e-08 0)
(2.09997e-07 -1.03688e-08 0)
(3.0389e-07 2.45743e-08 0)
(4.03798e-07 8.10185e-08 0)
(5.09045e-07 1.57088e-07 0)
(6.20311e-07 2.5063e-07 0)
(7.36876e-07 3.59049e-07 0)
(8.59788e-07 4.80079e-07 0)
(9.86762e-07 6.10452e-07 0)
(3.64807e-08 -1.55984e-08 0)
(1.12794e-07 -3.13829e-08 0)
(1.96344e-07 -2.34476e-08 0)
(2.84464e-07 6.76602e-09 0)
(3.78194e-07 5.865e-08 0)
(4.7689e-07 1.3026e-07 0)
(5.8125e-07 2.19413e-07 0)
(6.90696e-07 3.23526e-07 0)
(8.06214e-07 4.40408e-07 0)
(9.25847e-07 5.6687e-07 0)
(3.37339e-08 -1.85148e-08 0)
(1.04775e-07 -3.98051e-08 0)
(1.82824e-07 -3.68909e-08 0)
(2.65001e-07 -1.11806e-08 0)
(3.52273e-07 3.64757e-08 0)
(4.44108e-07 1.04012e-07 0)
(5.41258e-07 1.89185e-07 0)
(6.43324e-07 2.89411e-07 0)
(7.51245e-07 4.02558e-07 0)
(8.63405e-07 5.25535e-07 0)
(3.10819e-08 -2.17618e-08 0)
(9.70956e-08 -4.87215e-08 0)
(1.69562e-07 -5.06759e-08 0)
(2.45506e-07 -2.91055e-08 0)
(3.25881e-07 1.47445e-08 0)
(4.10364e-07 7.8637e-08 0)
(4.99817e-07 1.60241e-07 0)
(5.94054e-07 2.56981e-07 0)
(6.93985e-07 3.66772e-07 0)
(7.98344e-07 4.86641e-07 0)
(2.87225e-08 -2.55004e-08 0)
(9.02679e-08 -5.83338e-08 0)
(1.56983e-07 -6.4936e-08 0)
(2.26163e-07 -4.71015e-08 0)
(2.98915e-07 -6.60029e-09 0)
(3.75283e-07 5.40786e-08 0)
(4.56298e-07 1.32511e-07 0)
(5.4202e-07 2.26133e-07 0)
(6.33346e-07 3.32911e-07 0)
(7.29356e-07 4.50004e-07 0)
(2.70759e-08 -3.04265e-08 0)
(8.48847e-08 -6.89558e-08 0)
(1.45495e-07 -7.93876e-08 0)
(2.07061e-07 -6.44535e-08 0)
(2.71189e-07 -2.66444e-08 0)
(3.38412e-07 3.13246e-08 0)
(4.10019e-07 1.06973e-07 0)
(4.86325e-07 1.97792e-07 0)
(5.68227e-07 3.01818e-07 0)
(6.55144e-07 4.1637e-07 0)
(2.81878e-08 -3.70489e-08 0)
(8.31518e-08 -8.09692e-08 0)
(1.36505e-07 -9.43025e-08 0)
(1.88694e-07 -8.15691e-08 0)
(2.42485e-07 -4.58805e-08 0)
(2.99022e-07 9.78323e-09 0)
(3.59863e-07 8.29544e-08 0)
(4.25533e-07 1.71215e-07 0)
(4.96929e-07 2.72698e-07 0)
(5.73744e-07 3.84886e-07 0)
(3.63912e-08 -4.90469e-08 0)
(8.64566e-08 -9.46633e-08 0)
(1.30676e-07 -1.07796e-07 0)
(1.70995e-07 -9.55178e-08 0)
(2.1247e-07 -6.11912e-08 0)
(2.56555e-07 -7.45495e-09 0)
(3.05124e-07 6.33966e-08 0)
(3.58791e-07 1.49157e-07 0)
(4.18477e-07 2.48084e-07 0)
(4.84032e-07 3.5785e-07 0)
)
;

boundaryField
{
    left
    {
        type            fixedDisplacement;
        value           uniform (0 0 0);
    }
    right
    {
        type            solidTraction;
        tractionSeries  
{
        file            "$FOAM_CASE/constant/timeVsTraction";
        outOfBounds     clamp;
}
        pressure        uniform 0;
        secondOrder     false;
        setEffectiveTraction false;
        relaxationFactor 1;
        value           nonuniform List<vector> 
30
(
(6.54951e-06 4.80342e-06 2.11646e-21)
(6.39696e-06 4.7484e-06 2.12475e-21)
(6.24306e-06 4.69376e-06 2.16797e-21)
(6.08738e-06 4.6385e-06 2.25218e-21)
(5.92994e-06 4.58199e-06 2.37485e-21)
(5.7711e-06 4.52366e-06 2.53268e-21)
(5.61141e-06 4.46314e-06 2.72006e-21)
(5.45155e-06 4.40028e-06 2.93103e-21)
(5.29221e-06 4.33507e-06 3.15892e-21)
(5.13408e-06 4.26768e-06 3.39615e-21)
(4.98451e-06 4.20138e-06 3.56183e-21)
(4.84269e-06 4.1362e-06 3.62858e-21)
(4.70289e-06 4.07006e-06 3.67419e-21)
(4.56537e-06 4.00326e-06 3.69945e-21)
(4.43029e-06 3.93629e-06 3.70052e-21)
(4.29731e-06 3.86958e-06 3.67891e-21)
(4.16667e-06 3.80337e-06 3.63824e-21)
(4.0381e-06 3.73813e-06 3.57841e-21)
(3.91132e-06 3.67416e-06 3.50293e-21)
(3.78599e-06 3.61171e-06 3.41489e-21)
(3.66173e-06 3.55097e-06 3.31816e-21)
(3.53812e-06 3.49206e-06 3.21684e-21)
(3.41472e-06 3.43502e-06 3.11554e-21)
(3.2911e-06 3.37981e-06 3.0189e-21)
(3.16684e-06 3.32629e-06 2.93152e-21)
(3.04161e-06 3.27424e-06 2.85751e-21)
(2.91515e-06 3.22335e-06 2.8017e-21)