/*--------------------------------*- C++ -*----------------------------------*\
  =========                 |
  \\      /  F ield         | OpenFOAM: The Open Source CFD Toolbox
   \\    /   O peration     | Website:  https://openfoam.org
    \\  /    A nd           | Version:  9
     \\/     M anipulation  |
\*---------------------------------------------------------------------------*/
FoamFile
{
    format      ascii;
    class       volVectorField;
    location    "5";
    object      D;
}
// * * * * * * * * * * * * * * * * * * * * * * * * * * * * * * * * * * * * * //

dimensions      [0 1 0 0 0 0 0];

internalField   nonuniform List<vector> 
1000
(
(3.38121e-06 1.13536e-06 0)
(3.15467e-06 1.25429e-06 0)
(2.99004e-06 1.35411e-06 0)
(2.87105e-06 1.43222e-06 0)
(2.78616e-06 1.49954e-06 0)
(2.72627e-06 1.5575e-06 0)
(2.68572e-06 1.60969e-06 0)
(2.65997e-06 1.65722e-06 0)
(2.64546e-06 1.70157e-06 0)
(2.64032e-06 1.74359e-06 0)
(3.04707e-06 1.02366e-06 0)
(2.81184e-06 1.11012e-06 0)
(2.64205e-06 1.18568e-06 0)
(2.51987e-06 1.2441e-06 0)
(2.43283e-06 1.29533e-06 0)
(2.37121e-06 1.33941e-06 0)
(2.32899e-06 1.37936e-06 0)
(2.30137e-06 1.4159e-06 0)
(2.28467e-06 1.44982e-06 0)
(2.27641e-06 1.48285e-06 0)
(2.70581e-06 9.11732e-07 0)
(2.46842e-06 9.63584e-07 0)
(2.29811e-06 1.01387e-06 0)
(2.1762e-06 1.05237e-06 0)
(2.08965e-06 1.08777e-06 0)
(2.02837e-06 1.11855e-06 0)
(1.98611e-06 1.14705e-06 0)
(1.95795e-06 1.17345e-06 0)
(1.9402e-06 1.19791e-06 0)
(1.93025e-06 1.22237e-06 0)
(2.35916e-06 8.01371e-07 0)
(2.12645e-06 8.17846e-07 0)
(1.96056e-06 8.42772e-07 0)
(1.84266e-06 8.61781e-07 0)
(1.75946e-06 8.8211e-07 0)
(1.70076e-06 9.00541e-07 0)
(1.66025e-06 9.18675e-07 0)
(1.63299e-06 9.36002e-07 0)
(1.61549e-06 9.52195e-07 0)
(1.60493e-06 9.68988e-07 0)
(2.00799e-06 6.94233e-07 0)
(1.78701e-06 6.75996e-07 0)
(1.63073e-06 6.76571e-07 0)
(1.52086e-06 6.77348e-07 0)
(1.44405e-06 6.84073e-07 0)
(1.39027e-06 6.91675e-07 0)
(1.35332e-06 7.00973e-07 0)
(1.32836e-06 7.1068e-07 0)
(1.31222e-06 7.20055e-07 0)
(1.30198e-06 7.30386e-07 0)
(1.65377e-06 5.91087e-07 0)
(1.45103e-06 5.40229e-07 0)
(1.3097e-06 5.18803e-07 0)
(1.21202e-06 5.03655e-07 0)
(1.14477e-06 4.99084e-07 0)
(1.09825e-06 4.98014e-07 0)
(1.06657e-06 5.00491e-07 0)
(1.0452e-06 5.0441e-07 0)
(1.03136e-06 5.08713e-07 0)
(1.02222e-06 5.14122e-07 0)
(1.29521e-06 4.9187e-07 0)
(1.11776e-06 4.12008e-07 0)
(9.97113e-07 3.7262e-07 0)
(9.1612e-07 3.45319e-07 0)
(8.61669e-07 3.32799e-07 0)
(8.24651e-07 3.25933e-07 0)
(7.99785e-07 3.24034e-07 0)
(7.83066e-07 3.2427e-07 0)
(7.72236e-07 3.25396e-07 0)
(7.64794e-07 3.27567e-07 0)
(9.34703e-07 3.93753e-07 0)
(7.88464e-07 2.9082e-07 0)
(6.94724e-07 2.40449e-07 0)
(6.34727e-07 2.06826e-07 0)
(5.95786e-07 1.90979e-07 0)
(5.69869e-07 1.81934e-07 0)
(5.52744e-07 1.78447e-07 0)
(5.41241e-07 1.77254e-07 0)
(5.33775e-07 1.77113e-07 0)
(5.28385e-07 1.77761e-07 0)
(5.64343e-07 2.87169e-07 0)
(4.60949e-07 1.73286e-07 0)
(4.01653e-07 1.23775e-07 0)
(3.66439e-07 9.31138e-08 0)
(3.45071e-07 7.98958e-08 0)
(3.31091e-07 7.2654e-08 0)
(3.22047e-07 7.01198e-08 0)
(3.15863e-07 6.92861e-08 0)
(3.11777e-07 6.9236e-08 0)
(3.08572e-07 6.95858e-08 0)
(1.94545e-07 1.50132e-07 0)
(1.4652e-07 6.36614e-08 0)
(1.2831e-07 3.32603e-08 0)
(1.18654e-07 1.80277e-08 0)
(1.1304e-07 1.27621e-08 0)
(1.09124e-07 1.04044e-08 0)
(1.06557e-07 1.00728e-08 0)
(1.04678e-07 1.02782e-08 0)
(1.03386e-07 1.06704e-08 0)
(1.02252e-07 1.11008e-08 0)
(5.96246e-06 1.83996e-06 0)
(5.95253e-06 2.06897e-06 0)
(5.94563e-06 2.2824e-06 0)
(5.94574e-06 2.47783e-06 0)
(5.95456e-06 2.6572e-06 0)
(5.97277e-06 2.82277e-06 0)
(6.00047e-06 2.9771e-06 0)
(6.03709e-06 3.12244e-06 0)
(6.0823e-06 3.26055e-06 0)
(6.13498e-06 3.39339e-06 0)
(5.77539e-06 1.82483e-06 0)
(5.74883e-06 2.0532e-06 0)
(5.73066e-06 2.26402e-06 0)
(5.72256e-06 2.45551e-06 0)
(5.72538e-06 2.63006e-06 0)
(5.73861e-06 2.79009e-06 0)
(5.76179e-06 2.93839e-06 0)
(5.79386e-06 3.07735e-06 0)
(5.83435e-06 3.20881e-06 0)
(5.88172e-06 3.33498e-06 0)
(5.57706e-06 1.79414e-06 0)
(5.53076e-06 2.02195e-06 0)
(5.49725e-06 2.22847e-06 0)
(5.47703e-06 2.41378e-06 0)
(5.47028e-06 2.58156e-06 0)
(5.47547e-06 2.73452e-06 0)
(5.4916e-06 2.87569e-06 0)
(5.51706e-06 3.00746e-06 0)
(5.55121e-06 3.13177e-06 0)
(5.59196e-06 3.25088e-06 0)
(5.36276e-06 1.7495e-06 0)
(5.29427e-06 1.97627e-06 0)
(5.24294e-06 2.17752e-06 0)
(5.20838e-06 2.35527e-06 0)
(5.1899e-06 2.51487e-06 0)
(5.18512e-06 2.65946e-06 0)
(5.19256e-06 2.79232e-06 0)
(5.21003e-06 2.9159e-06 0)
(5.23676e-06 3.03218e-06 0)
(5.27004e-06 3.14342e-06 0)
(5.13e-06 1.69138e-06 0)
(5.03719e-06 1.91529e-06 0)
(4.96679e-06 2.1096e-06 0)
(4.91711e-06 2.27806e-06 0)
(4.88623e-06 2.42789e-06 0)
(4.87092e-06 2.56266e-06 0)
(4.86916e-06 2.686e-06 0)
(4.87826e-06 2.80031e-06 0)
(4.89726e-06 2.9077e-06 0)
(4.92289e-06 3.01026e-06 0)
(4.87845e-06 1.6211e-06 0)
(4.75992e-06 1.83907e-06 0)
(4.67007e-06 2.02443e-06 0)
(4.60529e-06 2.182e-06 0)
(4.56214e-06 2.32073e-06 0)
(4.53646e-06 2.44452e-06 0)
(4.52565e-06 2.55729e-06 0)
(4.52654e-06 2.66142e-06 0)
(4.53797e-06 2.75912e-06 0)
(4.5562e-06 2.85224e-06 0)
(4.60874e-06 1.53974e-06 0)
(4.46413e-06 1.7476e-06 0)
(4.35525e-06 1.92147e-06 0)
(4.27607e-06 2.0664e-06 0)
(4.22143e-06 2.19276e-06 0)
(4.18612e-06 2.30454e-06 0)
(4.16693e-06 2.40592e-06 0)
(4.16026e-06 2.49913e-06 0)
(4.16469e-06 2.58651e-06 0)
(4.17615e-06 2.6696e-06 0)
(4.32227e-06 1.44881e-06 0)
(4.15247e-06 1.64175e-06 0)
(4.02579e-06 1.80129e-06 0)
(3.93347e-06 1.93186e-06 0)
(3.86855e-06 2.04473e-06 0)
(3.82473e-06 2.14369e-06 0)
(3.79817e-06 2.23306e-06 0)
(3.78488e-06 2.31485e-06 0)
(3.78311e-06 2.39148e-06 0)
(3.78868e-06 2.46402e-06 0)
(4.02084e-06 1.34988e-06 0)
(3.82812e-06 1.52282e-06 0)
(3.6857e-06 1.66511e-06 0)
(3.58205e-06 1.77961e-06 0)
(3.50844e-06 1.878e-06 0)
(3.45754e-06 1.96356e-06 0)
(3.42484e-06 2.04053e-06 0)
(3.40607e-06 2.11068e-06 0)
(3.39899e-06 2.17626e-06 0)
(3.39977e-06 2.23811e-06 0)
(3.70647e-06 1.24475e-06 0)
(3.49442e-06 1.39283e-06 0)
(3.33911e-06 1.51508e-06 0)
(3.2264e-06 1.612e-06 0)
(3.14602e-06 1.69513e-06 0)
(3.08966e-06 1.76692e-06 0)
(3.05223e-06 1.83143e-06 0)
(3.02921e-06 1.88994e-06 0)
(3.01791e-06 1.94465e-06 0)
(3.01527e-06 1.99515e-06 0)
(6.19794e-06 3.52119e-06 0)
(6.27027e-06 3.64799e-06 0)
(6.34816e-06 3.77276e-06 0)
(6.43098e-06 3.89608e-06 0)
(6.51831e-06 4.01858e-06 0)
(6.60966e-06 4.14062e-06 0)
(6.70462e-06 4.26262e-06 0)
(6.80281e-06 4.38485e-06 0)
(6.90388e-06 4.5076e-06 0)
(7.0075e-06 4.63107e-06 0)
(7.11337e-06 4.75545e-06 0)
(7.22121e-06 4.88089e-06 0)
(7.33075e-06 5.00753e-06 0)
(7.44173e-06 5.13548e-06 0)
(7.55391e-06 5.26479e-06 0)
(7.66702e-06 5.39552e-06 0)
(7.78083e-06 5.52764e-06 0)
(7.89509e-06 5.66104e-06 0)
(8.00959e-06 5.7955e-06 0)
(8.12406e-06 5.9306e-06 0)
(5.94736e-06 3.45795e-06 0)
(6.02863e-06 3.58264e-06 0)
(6.11424e-06 3.70541e-06 0)
(6.20354e-06 3.82698e-06 0)
(6.29637e-06 3.94798e-06 0)
(6.39232e-06 4.06875e-06 0)
(6.49117e-06 4.18971e-06 0)
(6.5926e-06 4.31112e-06 0)
(6.69639e-06 4.43325e-06 0)
(6.80229e-06 4.55629e-06 0)
(6.91008e-06 4.68043e-06 0)
(7.01954e-06 4.80581e-06 0)
(7.13049e-06 4.93257e-06 0)
(7.24273e-06 5.06079e-06 0)
(7.35608e-06 5.19056e-06 0)
(7.47035e-06 5.32189e-06 0)
(7.58538e-06 5.45478e-06 0)
(7.70097e-06 5.58912e-06 0)
(7.81696e-06 5.7247e-06 0)
(7.93308e-06 5.86117e-06 0)
(5.66124e-06 3.3702e-06 0)
(5.75403e-06 3.49511e-06 0)
(5.84994e-06 3.61816e-06 0)
(5.94814e-06 3.73996e-06 0)
(6.04881e-06 3.86128e-06 0)
(6.15157e-06 3.98241e-06 0)
(6.25639e-06 4.10381e-06 0)
(6.36305e-06 4.22574e-06 0)
(6.47145e-06 4.34847e-06 0)
(6.58141e-06 4.47221e-06 0)
(6.69283e-06 4.59714e-06 0)
(6.80555e-06 4.72341e-06 0)
(6.91948e-06 4.85115e-06 0)
(7.03447e-06 4.98047e-06 0)
(7.15043e-06 5.11144e-06 0)
(7.26722e-06 5.24413e-06 0)
(7.38474e-06 5.37854e-06 0)
(7.50282e-06 5.51463e-06 0)
(7.62134e-06 5.65228e-06 0)
(7.73999e-06 5.79129e-06 0)
(5.34388e-06 3.25981e-06 0)
(5.45035e-06 3.38674e-06 0)
(5.55876e-06 3.5119e-06 0)
(5.66792e-06 3.63556e-06 0)
(5.77846e-06 3.75874e-06 0)
(5.88995e-06 3.88162e-06 0)
(6.0026e-06 4.00476e-06 0)
(6.11624e-06 4.12838e-06 0)
(6.23091e-06 4.25282e-06 0)
(6.34652e-06 4.37828e-06 0)
(6.46306e-06 4.50496e-06 0)
(6.58047e-06 4.63302e-06 0)
(6.6987e-06 4.76261e-06 0)
(6.81772e-06 4.89384e-06 0)
(6.93747e-06 5.02683e-06 0)
(7.05788e-06 5.16165e-06 0)
(7.1789e-06 5.29836e-06 0)
(7.30039e-06 5.43701e-06 0)
(7.42228e-06 5.57761e-06 0)
(7.54421e-06 5.7201e-06 0)
(5.00214e-06 3.12472e-06 0)
(5.12392e-06 3.25572e-06 0)
(5.24649e-06 3.38505e-06 0)
(5.36817e-06 3.51242e-06 0)
(5.49011e-06 3.63918e-06 0)
(5.6118e-06 3.76538e-06 0)
(5.73368e-06 3.8917e-06 0)
(5.85564e-06 4.01836e-06 0)
(5.97785e-06 4.14573e-06 0)
(6.10032e-06 4.27404e-06 0)
(6.22313e-06 4.40351e-06 0)
(6.3463e-06 4.53433e-06 0)
(6.46987e-06 4.66668e-06 0)
(6.59385e-06 4.80068e-06 0)
(6.71827e-06 4.93649e-06 0)
(6.84312e-06 5.07422e-06 0)
(6.96839e-06 5.214e-06 0)
(7.094e-06 5.35595e-06 0)
(7.2199e-06 5.50026e-06 0)
(7.34579e-06 5.64697e-06 0)
(4.64164e-06 2.96567e-06 0)
(4.77988e-06 3.10267e-06 0)
(4.91785e-06 3.23811e-06 0)
(5.0532e-06 3.37092e-06 0)
(5.1877e-06 3.50288e-06 0)
(5.32069e-06 3.63392e-06 0)
(5.45289e-06 3.7648e-06 0)
(5.58421e-06 3.89579e-06 0)
(5.71498e-06 4.02729e-06 0)
(5.84526e-06 4.15956e-06 0)
(5.97524e-06 4.29285e-06 0)
(6.10501e-06 4.4274e-06 0)
(6.23469e-06 4.56339e-06 0)
(6.36438e-06 4.70101e-06 0)
(6.49414e-06 4.84043e-06 0)
(6.62405e-06 4.98181e-06 0)
(6.75414e-06 5.12536e-06 0)
(6.88439e-06 5.27127e-06 0)
(7.01481e-06 5.41987e-06 0)
(7.1452e-06 5.57133e-06 0)
(4.26832e-06 2.783e-06 0)
(4.42361e-06 2.92791e-06 0)
(4.57774e-06 3.07134e-06 0)
(4.7275e-06 3.21137e-06 0)
(4.87532e-06 3.35011e-06 0)
(5.02041e-06 3.48747e-06 0)
(5.16368e-06 3.62428e-06 0)
(5.30512e-06 3.76087e-06 0)
(5.44514e-06 3.89766e-06 0)
(5.58392e-06 4.03499e-06 0)
(5.72172e-06 4.17314e-06 0)
(5.8587e-06 4.31238e-06 0)
(5.99507e-06 4.45292e-06 0)
(6.13098e-06 4.59499e-06 0)
(6.26657e-06 4.73879e-06 0)
(6.40197e-06 4.88454e-06 0)
(6.53728e-06 5.0325e-06 0)
(6.67257e-06 5.18293e-06 0)
(6.80789e-06 5.33629e-06 0)
(6.94317e-06 5.49283e-06 0)
(3.88781e-06 2.57832e-06 0)
(4.0602e-06 2.73295e-06 0)
(4.23067e-06 2.88589e-06 0)
(4.3952e-06 3.03477e-06 0)
(4.55667e-06 3.18172e-06 0)
(4.71432e-06 3.32683e-06 0)
(4.86913e-06 3.47088e-06 0)
(5.02119e-06 3.6143e-06 0)
(5.17098e-06 3.75754e-06 0)
(5.31875e-06 3.901e-06 0)
(5.46483e-06 4.04499e-06 0)
(5.60947e-06 4.18982e-06 0)
(5.75292e-06 4.33576e-06 0)
(5.89541e-06 4.48306e-06 0)
(6.03715e-06 4.63196e-06 0)
(6.17834e-06 4.78272e-06 0)
(6.31914e-06 4.93565e-06 0)
(6.4597e-06 5.09108e-06 0)
(6.60015e-06 5.24954e-06 0)
(6.74059e-06 5.41135e-06 0)
(3.5058e-06 2.35357e-06 0)
(3.69484e-06 2.51981e-06 0)
(3.88122e-06 2.68344e-06 0)
(4.06059e-06 2.84267e-06 0)
(4.23569e-06 2.99901e-06 0)
(4.40603e-06 3.15302e-06 0)
(4.57251e-06 3.30538e-06 0)
(4.73539e-06 3.45667e-06 0)
(4.89515e-06 3.60738e-06 0)
(5.05214e-06 3.75794e-06 0)
(5.20673e-06 3.90872e-06 0)
(5.35925e-06 4.06006e-06 0)
(5.51e-06 4.21225e-06 0)
(5.65929e-06 4.36557e-06 0)
(5.80737e-06 4.52029e-06 0)
(5.95451e-06 4.6767e-06 0)
(6.10094e-06 4.83514e-06 0)
(6.24692e-06 4.99597e-06 0)
(6.39261e-06 5.15978e-06 0)
(6.53835e-06 5.32694e-06 0)
(3.1268e-06 2.11221e-06 0)
(3.33161e-06 2.29123e-06 0)
(3.53225e-06 2.46591e-06 0)
(3.72609e-06 2.63658e-06 0)
(3.91455e-06 2.80357e-06 0)
(4.09766e-06 2.96768e-06 0)
(4.27598e-06 3.12951e-06 0)
(4.44988e-06 3.2897e-06 0)
(4.61982e-06 3.44881e-06 0)
(4.78623e-06 3.60733e-06 0)
(4.94951e-06 3.76569e-06 0)
(5.11005e-06 3.92427e-06 0)
(5.26822e-06 4.08339e-06 0)
(5.42438e-06 4.24338e-06 0)
(5.57885e-06 4.40451e-06 0)
(5.73198e-06 4.56709e-06 0)
(5.88404e-06 4.73147e-06 0)
(6.03542e-06 4.89802e-06 0)
(6.18633e-06 5.06735e-06 0)
(6.33738e-06 5.23983e-06 0)
(2.8345e-06 1.93125e-06 0)
(3.04802e-06 2.11951e-06 0)
(3.25617e-06 2.30045e-06 0)
(3.45786e-06 2.47765e-06 0)
(3.65391e-06 2.65116e-06 0)
(3.84436e-06 2.82171e-06 0)
(4.02971e-06 2.98987e-06 0)
(4.21026e-06 3.1562e-06 0)
(4.38645e-06 3.32122e-06 0)
(4.55868e-06 3.48537e-06 0)
(4.72735e-06 3.64909e-06 0)
(4.89286e-06 3.81272e-06 0)
(5.0556e-06 3.97659e-06 0)
(5.21594e-06 4.141e-06 0)
(5.37424e-06 4.30623e-06 0)
(5.53088e-06 4.47255e-06 0)
(5.6862e-06 4.64029e-06 0)
(5.84064e-06 4.80979e-06 0)
(5.99447e-06 4.98158e-06 0)
(6.14847e-06 5.15599e-06 0)
(2.63948e-06 1.82295e-06 0)
(2.85301e-06 2.0112e-06 0)
(3.06121e-06 2.1936e-06 0)
(3.26357e-06 2.37281e-06 0)
(3.46061e-06 2.54878e-06 0)
(3.65232e-06 2.72203e-06 0)
(3.83909e-06 2.89303e-06 0)
(4.02114e-06 3.0622e-06 0)
(4.19886e-06 3.22998e-06 0)
(4.37258e-06 3.39676e-06 0)
(4.54265e-06 3.5629e-06 0)
(4.70946e-06 3.72871e-06 0)
(4.87336e-06 3.89447e-06 0)
(5.03472e-06 4.06046e-06 0)
(5.19389e-06 4.22691e-06 0)
(5.35128e-06 4.39408e-06 0)
(5.50721e-06 4.56223e-06 0)
(5.66219e-06 4.73165e-06 0)
(5.8165e-06 4.90274e-06 0)
(5.97103e-06 5.07576e-06 0)
(2.46731e-06 1.71899e-06 0)
(2.67701e-06 1.90665e-06 0)
(2.88308e-06 2.08958e-06 0)
(3.08388e-06 2.26999e-06 0)
(3.28013e-06 2.44774e-06 0)
(3.47148e-06 2.62314e-06 0)
(3.65826e-06 2.79652e-06 0)
(3.84059e-06 2.9682e-06 0)
(4.01876e-06 3.1385e-06 0)
(4.19302e-06 3.30774e-06 0)
(4.36371e-06 3.47619e-06 0)
(4.53113e-06 3.64411e-06 0)
(4.69562e-06 3.81174e-06 0)
(4.85754e-06 3.9793e-06 0)
(5.01721e-06 4.14699e-06 0)
(5.17503e-06 4.31499e-06 0)
(5.33135e-06 4.48352e-06 0)
(5.48668e-06 4.65278e-06 0)
(5.64131e-06 4.82303e-06 0)
(5.79621e-06 4.99444e-06 0)
(2.31303e-06 1.61887e-06 0)
(2.5177e-06 1.805e-06 0)
(2.72006e-06 1.98775e-06 0)
(2.91788e-06 2.16887e-06 0)
(3.11191e-06 2.34796e-06 0)
(3.30159e-06 2.52517e-06 0)
(3.48719e-06 2.70065e-06 0)
(3.6687e-06 2.8746e-06 0)
(3.84634e-06 3.04723e-06 0)
(4.02029e-06 3.21876e-06 0)
(4.19083e-06 3.38941e-06 0)
(4.35822e-06 3.55936e-06 0)
(4.52277e-06 3.72879e-06 0)
(4.68477e-06 3.89786e-06 0)
(4.84457e-06 4.06673e-06 0)
(5.00252e-06 4.23553e-06 0)
(5.15898e-06 4.40437e-06 0)
(5.31444e-06 4.57342e-06 0)
(5.46925e-06 4.74276e-06 0)
(5.62435e-06 4.91245e-06 0)
(2.17483e-06 1.52363e-06 0)
(2.37335e-06 1.70768e-06 0)
(2.57074e-06 1.88965e-06 0)
(2.76436e-06 2.07087e-06 0)
(2.955e-06 2.25075e-06 0)
(3.14191e-06 2.42926e-06 0)
(3.3253e-06 2.60641e-06 0)
(3.50505e-06 2.78226e-06 0)
(3.68131e-06 2.95693e-06 0)
(3.8542e-06 3.13051e-06 0)
(4.02392e-06 3.30315e-06 0)
(4.1907e-06 3.47497e-06 0)
(4.35479e-06 3.64607e-06 0)
(4.51646e-06 3.81657e-06 0)
(4.67602e-06 3.98654e-06 0)
(4.8338e-06 4.15607e-06 0)
(4.99017e-06 4.32519e-06 0)
(5.14549e-06 4.49397e-06 0)
(5.30041e-06 4.66227e-06 0)
(5.45562e-06 4.83017e-06 0)
(2.05005e-06 1.43324e-06 0)
(2.24182e-06 1.61467e-06 0)
(2.43341e-06 1.79536e-06 0)
(2.62198e-06 1.97617e-06 0)
(2.80834e-06 2.15638e-06 0)
(2.99161e-06 2.33578e-06 0)
(3.17195e-06 2.51423e-06 0)
(3.34915e-06 2.69165e-06 0)
(3.5233e-06 2.86805e-06 0)
(3.69445e-06 3.04343e-06 0)
(3.86276e-06 3.21785e-06 0)
(4.0284e-06 3.39134e-06 0)
(4.19157e-06 3.56396e-06 0)
(4.35253e-06 3.73575e-06 0)
(4.51154e-06 3.90673e-06 0)
(4.66891e-06 4.0769e-06 0)
(4.82494e-06 4.24624e-06 0)
(4.98012e-06 4.41464e-06 0)
(5.13471e-06 4.58197e-06 0)
(5.28963e-06 4.74819e-06 0)
(1.93655e-06 1.34774e-06 0)
(2.12116e-06 1.52626e-06 0)
(2.30637e-06 1.70527e-06 0)
(2.48928e-06 1.88528e-06 0)
(2.67069e-06 2.06538e-06 0)
(2.84964e-06 2.24527e-06 0)
(3.02626e-06 2.42462e-06 0)
(3.20026e-06 2.60327e-06 0)
(3.37169e-06 2.78108e-06 0)
(3.54054e-06 2.95797e-06 0)
(3.70692e-06 3.13391e-06 0)
(3.87096e-06 3.30886e-06 0)
(4.03282e-06 3.48282e-06 0)
(4.19272e-06 3.65574e-06 0)
(4.35088e-06 3.8276e-06 0)
(4.50759e-06 3.99832e-06 0)
(4.6631e-06 4.16781e-06 0)
(4.81786e-06 4.3359e-06 0)
(4.97209e-06 4.50229e-06 0)
(5.12664e-06 4.66683e-06 0)
(1.83219e-06 1.26693e-06 0)
(2.00946e-06 1.44234e-06 0)
(2.18794e-06 1.61941e-06 0)
(2.36479e-06 1.79827e-06 0)
(2.54075e-06 1.97794e-06 0)
(2.71488e-06 2.15796e-06 0)
(2.88724e-06 2.33789e-06 0)
(3.05752e-06 2.51742e-06 0)
(3.22573e-06 2.69634e-06 0)
(3.39182e-06 2.87446e-06 0)
(3.55584e-06 3.05167e-06 0)
(3.71789e-06 3.22786e-06 0)
(3.87811e-06 3.40294e-06 0)
(4.03665e-06 3.57683e-06 0)
(4.19371e-06 3.74942e-06 0)
(4.34953e-06 3.92061e-06 0)
(4.50435e-06 4.09019e-06 0)
(4.65853e-06 4.25795e-06 0)
(4.81227e-06 4.42347e-06 0)
(4.96632e-06 4.58652e-06 0)
(1.73509e-06 1.19056e-06 0)
(1.90495e-06 1.36281e-06 0)
(2.07648e-06 1.53777e-06 0)
(2.24699e-06 1.71527e-06 0)
(2.41717e-06 1.89423e-06 0)
(2.5861e-06 2.07408e-06 0)
(2.75381e-06 2.25427e-06 0)
(2.91998e-06 2.4344e-06 0)
(3.08458e-06 2.61412e-06 0)
(3.24752e-06 2.79319e-06 0)
(3.40884e-06 2.9714e-06 0)
(3.56859e-06 3.14858e-06 0)
(3.72687e-06 3.32458e-06 0)
(3.8838e-06 3.49925e-06 0)
(4.03954e-06 3.67245e-06 0)
(4.19431e-06 3.84398e-06 0)
(4.34827e-06 4.01361e-06 0)
(4.50175e-06 4.18106e-06 0)
(4.65488e-06 4.34582e-06 0)
(4.8083e-06 4.50759e-06 0)
(1.64349e-06 1.11835e-06 0)
(1.80594e-06 1.28747e-06 0)
(1.97042e-06 1.46024e-06 0)
(2.13442e-06 1.63622e-06 0)
(2.29859e-06 1.81428e-06 0)
(2.46205e-06 1.99373e-06 0)
(2.62483e-06 2.17392e-06 0)
(2.78658e-06 2.35436e-06 0)
(2.94727e-06 2.53462e-06 0)
(3.10679e-06 2.71437e-06 0)
(3.26514e-06 2.89333e-06 0)
(3.42233e-06 3.07126e-06 0)
(3.57845e-06 3.24795e-06 0)
(3.73357e-06 3.42322e-06 0)
(3.88783e-06 3.59686e-06 0)
(4.04138e-06 3.76864e-06 0)
(4.19436e-06 3.93828e-06 0)
(4.34702e-06 4.10545e-06 0)
(4.49946e-06 4.26959e-06 0)
(4.65214e-06 4.43033e-06 0)
(1.5558e-06 1.05001e-06 0)
(1.71085e-06 1.21612e-06 0)
(1.86823e-06 1.38671e-06 0)
(2.02562e-06 1.56109e-06 0)
(2.18363e-06 1.73809e-06 0)
(2.34145e-06 1.91695e-06 0)
(2.49909e-06 2.09692e-06 0)
(2.65623e-06 2.27742e-06 0)
(2.8128e-06 2.45797e-06 0)
(2.96868e-06 2.63814e-06 0)
(3.12386e-06 2.81759e-06 0)
(3.27832e-06 2.99604e-06 0)
(3.43211e-06 3.17322e-06 0)
(3.58528e-06 3.3489e-06 0)
(3.73792e-06 3.52282e-06 0)
(3.89014e-06 3.69475e-06 0)
(4.04205e-06 3.86435e-06 0)
(4.19381e-06 4.03128e-06 0)
(4.34548e-06 4.19494e-06 0)
(4.49735e-06 4.35496e-06 0)
(1.47049e-06 9.85305e-07 0)
(1.61818e-06 1.14858e-06 0)
(1.76843e-06 1.31702e-06 0)
(1.91915e-06 1.48978e-06 0)
(2.07092e-06 1.66563e-06 0)
(2.22298e-06 1.84374e-06 0)
(2.37536e-06 2.0233e-06 0)
(2.52775e-06 2.20366e-06 0)
(2.68007e-06 2.38424e-06 0)
(2.8322e-06 2.56459e-06 0)
(2.98408e-06 2.74431e-06 0)
(3.1357e-06 2.92304e-06 0)
(3.28705e-06 3.1005e-06 0)
(3.43817e-06 3.27639e-06 0)
(3.5891e-06 3.45045e-06 0)
(3.73992e-06 3.62241e-06 0)
(3.89069e-06 3.79193e-06 0)
(4.0415e-06 3.95866e-06 0)
(4.19235e-06 4.12201e-06 0)
(4.34338e-06 4.2816e-06 0)
(1.38611e-06 9.24007e-07 0)
(1.52644e-06 1.08465e-06 0)
(1.66954e-06 1.25104e-06 0)
(1.81355e-06 1.42218e-06 0)
(1.95903e-06 1.59682e-06 0)
(2.1053e-06 1.77407e-06 0)
(2.25237e-06 1.95305e-06 0)
(2.39995e-06 2.13306e-06 0)
(2.54797e-06 2.31347e-06 0)
(2.69628e-06 2.49378e-06 0)
(2.84483e-06 2.67353e-06 0)
(2.99355e-06 2.85233e-06 0)
(3.14242e-06 3.02984e-06 0)
(3.29145e-06 3.20577e-06 0)
(3.44065e-06 3.37982e-06 0)
(3.59003e-06 3.5517e-06 0)
(3.73963e-06 3.72109e-06 0)
(3.88946e-06 3.88765e-06 0)
(4.03949e-06 4.05083e-06 0)
(4.18966e-06 4.21031e-06 0)
(1.30123e-06 8.66028e-07 0)
(1.43416e-06 1.02425e-06 0)
(1.57008e-06 1.18869e-06 0)
(1.70738e-06 1.35823e-06 0)
(1.84655e-06 1.53161e-06 0)
(1.98702e-06 1.70788e-06 0)
(2.12879e-06 1.88612e-06 0)
(2.27159e-06 2.0656e-06 0)
(2.41532e-06 2.24564e-06 0)
(2.55985e-06 2.42568e-06 0)
(2.70508e-06 2.60524e-06 0)
(2.85093e-06 2.7839e-06 0)
(2.99736e-06 2.96128e-06 0)
(3.14432e-06 3.13706e-06 0)
(3.2918e-06 3.31094e-06 0)
(3.43977e-06 3.48264e-06 0)
(3.5882e-06 3.65184e-06 0)
(3.73707e-06 3.81825e-06 0)
(3.88628e-06 3.9814e-06 0)
(4.03564e-06 4.14102e-06 0)
(1.21436e-06 8.1121e-07 0)
(1.33981e-06 9.6723e-07 0)
(1.46851e-06 1.12981e-06 0)
(1.59908e-06 1.29778e-06 0)
(1.73198e-06 1.46985e-06 0)
(1.86671e-06 1.64504e-06 0)
(2.00325e-06 1.82241e-06 0)
(2.14135e-06 2.00117e-06 0)
(2.28091e-06 2.18064e-06 0)
(2.42176e-06 2.36022e-06 0)
(2.56379e-06 2.53939e-06 0)
(2.7069e-06 2.7177e-06 0)
(2.85099e-06 2.89476e-06 0)
(2.99598e-06 3.07023e-06 0)
(3.14182e-06 3.2438e-06 0)
(3.28844e-06 3.4152e-06 0)
(3.43577e-06 3.58415e-06 0)
(3.58372e-06 3.7504e-06 0)
(3.73216e-06 3.91361e-06 0)
(3.88078e-06 4.07361e-06 0)
(1.12395e-06 7.59727e-07 0)
(1.2418e-06 9.13692e-07 0)
(1.36323e-06 1.07447e-06 0)
(1.4871e-06 1.24084e-06 0)
(1.6138e-06 1.41152e-06 0)
(1.74289e-06 1.5855e-06 0)
(1.87434e-06 1.76183e-06 0)
(2.00792e-06 1.9397e-06 0)
(2.1435e-06 2.11839e-06 0)
(2.28088e-06 2.29729e-06 0)
(2.41992e-06 2.47585e-06 0)
(2.56048e-06 2.65362e-06 0)
(2.70243e-06 2.83018e-06 0)
(2.84564e-06 3.00518e-06 0)
(2.99001e-06 3.17831e-06 0)
(3.13542e-06 3.3493e-06 0)
(3.28176e-06 3.51792e-06 0)
(3.4289e-06 3.68399e-06 0)
(3.57665e-06 3.84731e-06 0)
(3.72463e-06 4.00784e-06 0)
(1.02822e-06 7.11324e-07 0)
(1.13833e-06 8.63359e-07 0)
(1.25244e-06 1.02236e-06 0)
(1.36966e-06 1.18711e-06 0)
(1.49028e-06 1.3563e-06 0)
(1.61393e-06 1.52895e-06 0)
(1.74055e-06 1.70407e-06 0)
(1.86988e-06 1.88087e-06 0)
(2.00177e-06 2.05859e-06 0)
(2.13599e-06 2.23662e-06 0)
(2.27237e-06 2.4144e-06 0)
(2.41071e-06 2.59146e-06 0)
(2.55083e-06 2.76736e-06 0)
(2.69255e-06 2.94175e-06 0)
(2.83572e-06 3.11431e-06 0)
(2.98015e-06 3.2848e-06 0)
(3.12571e-06 3.45303e-06 0)
(3.27218e-06 3.61887e-06 0)
(3.41936e-06 3.78228e-06 0)
(3.56686e-06 3.94339e-06 0)
(9.25386e-07 6.66738e-07 0)
(1.02761e-06 8.16799e-07 0)
(1.13438e-06 9.73902e-07 0)
(1.24506e-06 1.13685e-06 0)
(1.35981e-06 1.30437e-06 0)
(1.47829e-06 1.47545e-06 0)
(1.6004e-06 1.64913e-06 0)
(1.72587e-06 1.8246e-06 0)
(1.85448e-06 2.00111e-06 0)
(1.98598e-06 2.17804e-06 0)
(2.12013e-06 2.35481e-06 0)
(2.25669e-06 2.53095e-06 0)
(2.39541e-06 2.70603e-06 0)
(2.53606e-06 2.87967e-06 0)
(2.6784e-06 3.05157e-06 0)
(2.82221e-06 3.22148e-06 0)
(2.96727e-06 3.38924e-06 0)
(3.11333e-06 3.5548e-06 0)
(3.26013e-06 3.71824e-06 0)
(3.4073e-06 3.87986e-06 0)
(8.1286e-07 6.24941e-07 0)
(9.07088e-07 7.72993e-07 0)
(1.00661e-06 9.28104e-07 0)
(1.11096e-06 1.08914e-06 0)
(1.22016e-06 1.25481e-06 0)
(1.33391e-06 1.42416e-06 0)
(1.452e-06 1.59622e-06 0)
(1.57414e-06 1.77018e-06 0)
(1.70004e-06 1.9453e-06 0)
(1.82941e-06 2.12096e-06 0)
(1.96194e-06 2.29657e-06 0)
(2.09732e-06 2.47166e-06 0)
(2.23525e-06 2.64579e-06 0)
(2.37542e-06 2.8186e-06 0)
(2.51752e-06 2.98976e-06 0)
(2.66125e-06 3.15905e-06 0)
(2.80629e-06 3.32631e-06 0)
(2.95233e-06 3.49152e-06 0)
(3.09905e-06 3.65489e-06 0)
(3.24608e-06 3.81686e-06 0)
(6.89132e-07 5.8834e-07 0)
(7.75312e-07 7.33908e-07 0)
(8.67749e-07 8.86538e-07 0)
(9.66073e-07 1.04516e-06 0)
(1.07018e-06 1.20854e-06 0)
(1.1797e-06 1.37571e-06 0)
(1.29437e-06 1.54572e-06 0)
(1.4138e-06 1.71778e-06 0)
(1.53767e-06 1.89115e-06 0)
(1.66559e-06 2.06521e-06 0)
(1.79719e-06 2.23938e-06 0)
(1.9321e-06 2.41317e-06 0)
(2.06994e-06 2.58616e-06 0)
(2.21033e-06 2.75798e-06 0)
(2.35288e-06 2.92832e-06 0)
(2.4972e-06 3.09694e-06 0)
(2.64287e-06 3.26371e-06 0)
(2.78944e-06 3.4286e-06 0)
(2.93654e-06 3.59183e-06 0)
(3.08367e-06 3.7539e-06 0)
(9.88458e-08 1.05957e-08 0)
(2.98626e-07 6.55913e-08 0)
(5.10957e-07 1.68041e-07 0)
(7.38584e-07 3.11268e-07 0)
(9.85839e-07 4.91333e-07 0)
(1.25411e-06 7.01863e-07 0)
(1.54447e-06 9.3601e-07 0)
(1.85641e-06 1.18659e-06 0)
(2.189e-06 1.44637e-06 0)
(2.54048e-06 1.70931e-06 0)
(9.31083e-08 9.4583e-09 0)
(2.81496e-07 5.88634e-08 0)
(4.81209e-07 1.51873e-07 0)
(6.94381e-07 2.83097e-07 0)
(9.24956e-07 4.49558e-07 0)
(1.17423e-06 6.45899e-07 0)
(1.44327e-06 8.66177e-07 0)
(1.73166e-06 1.10405e-06 0)
(2.0383e-06 1.35261e-06 0)
(2.3614e-06 1.607e-06 0)
(8.79509e-08 8.11897e-09 0)
(2.66127e-07 5.20638e-08 0)
(4.54677e-07 1.36258e-07 0)
(6.55039e-07 2.56293e-07 0)
(8.70727e-07 4.09922e-07 0)
(1.10284e-06 5.92608e-07 0)
(1.35252e-06 7.99174e-07 0)
(1.61961e-06 1.02416e-06 0)
(1.90368e-06 1.26128e-06 0)
(2.2028e-06 1.50704e-06 0)
(8.32301e-08 6.56585e-09 0)
(2.52123e-07 4.5233e-08 0)
(4.30786e-07 1.21457e-07 0)
(6.20025e-07 2.3153e-07 0)
(8.22974e-07 3.73746e-07 0)
(1.04044e-06 5.44195e-07 0)
(1.27351e-06 7.3826e-07 0)
(1.52187e-06 9.51055e-07 0)
(1.78555e-06 1.17665e-06 0)
(2.06221e-06 1.41198e-06 0)
(7.88182e-08 4.78449e-09 0)
(2.39056e-07 3.81427e-08 0)
(4.08649e-07 1.06815e-07 0)
(5.87818e-07 2.07614e-07 0)
(7.79364e-07 3.39233e-07 0)
(9.83834e-07 4.98264e-07 0)
(1.20229e-06 6.8058e-07 0)
(1.4343e-06 8.81843e-07 0)
(1.68034e-06 1.09663e-06 0)
(1.93734e-06 1.32185e-06 0)
(7.46759e-08 2.80273e-09 0)
(2.26808e-07 3.08315e-08 0)
(3.88046e-07 9.23905e-08 0)
(5.58085e-07 1.84671e-07 0)
(7.39436e-07 3.06655e-07 0)
(9.32361e-07 4.553e-07 0)
(1.13787e-06 6.26839e-07 0)
(1.35534e-06 8.17282e-07 0)
(1.58566e-06 1.02169e-06 0)
(1.82527e-06 1.2368e-06 0)
(7.0722e-08 6.12565e-10 0)
(2.15126e-07 2.31994e-08 0)
(3.68494e-07 7.78904e-08 0)
(5.30053e-07 1.62159e-07 0)
(7.02074e-07 2.75197e-07 0)
(8.84566e-07 4.14245e-07 0)
(1.07851e-06 5.75852e-07 0)
(1.28309e-06 7.56294e-07 0)
(1.49949e-06 9.51097e-07 0)
(1.72379e-06 1.15669e-06 0)
(6.69241e-08 -1.75939e-09 0)
(2.03908e-07 1.52739e-08 0)
(3.49797e-07 6.3315e-08 0)
(5.03395e-07 1.40043e-07 0)
(6.66769e-07 2.448e-07 0)
(8.39697e-07 3.75019e-07 0)
(1.02312e-06 5.27496e-07 0)
(1.21609e-06 6.98678e-07 0)
(1.41995e-06 8.84528e-07 0)
(1.6307e-06 1.08122e-06 0)
(6.32341e-08 -4.31308e-09 0)
(1.9301e-07 7.0158e-09 0)
(3.31691e-07 4.85341e-08 0)
(4.77694e-07 1.18076e-07 0)
(6.32915e-07 2.15083e-07 0)
(7.96939e-07 3.37131e-07 0)
(9.70668e-07 4.81215e-07 0)
(1.15306e-06 6.43899e-07 0)
(1.34555e-06 8.2151e-07 0)
(1.54417e-06 1.01003e-06 0)
(5.96245e-08 -7.03211e-09 0)
(1.82349e-07 -1.56237e-09 0)
(3.14014e-07 3.35295e-08 0)
(4.52683e-07 9.61951e-08 0)
(6.00098e-07 1.85935e-07 0)
(7.55687e-07 3.00411e-07 0)
(9.20312e-07 4.36766e-07 0)
(1.09291e-06 5.91648e-07 0)
(1.2749e-06 7.6168e-07 0)
(1.46252e-06 9.4274e-07 0)
(5.60661e-08 -9.91441e-09 0)
(1.71841e-07 -1.04788e-08 0)
(2.96611e-07 1.82373e-08 0)
(4.28104e-07 7.42811e-08 0)
(5.67926e-07 1.5717e-07 0)
(7.15383e-07 2.64615e-07 0)
(8.71305e-07 3.93857e-07 0)
(1.03465e-06 5.41602e-07 0)
(1.20679e-06 7.04704e-07 0)
(1.38426e-06 8.79008e-07 0)
(5.25398e-08 -1.29553e-08 0)
(1.61431e-07 -1.97362e-08 0)
(2.79374e-07 2.63609e-09 0)
(4.03765e-07 5.22935e-08 0)
(5.3608e-07 1.28722e-07 0)
(6.7555e-07 2.29637e-07 0)
(8.22979e-07 3.52334e-07 0)
(9.77401e-07 4.9356e-07 0)
(1.14012e-06 6.50342e-07 0)
(1.30801e-06 8.18555e-07 0)
(4.9034e-08 -1.6162e-08 0)
(1.51097e-07 -2.93628e-08 0)
(2.62234e-07 -1.33236e-08 0)
(3.7951e-07 3.0168e-08 0)
(5.0428e-07 1.00506e-07 0)
(6.35747e-07 1.95368e-07 0)
(7.74712e-07 3.12058e-07 0)
(9.2033e-07 4.47349e-07 0)
(1.07384e-06 5.98393e-07 0)
(1.23247e-06 7.61139e-07 0)
(4.55486e-08 -1.95615e-08 0)
(1.40854e-07 -3.93926e-08 0)
(2.45168e-07 -2.96603e-08 0)
(3.5523e-07 7.92055e-09 0)
(4.72282e-07 7.25598e-08 0)
(5.95564e-07 1.61847e-07 0)
(7.25903e-07 2.73052e-07 0)
(8.62625e-07 4.0296e-07 0)
(1.0069e-06 5.48817e-07 0)
(1.15636e-06 7.06674e-07 0)
(4.21139e-08 -2.32036e-08 0)
(1.30826e-07 -4.99127e-08 0)
(2.28267e-07 -4.64516e-08 0)
(3.30902e-07 -1.44982e-08 0)
(4.39887e-07 4.48582e-08 0)
(5.54597e-07 1.29055e-07 0)
(6.7593e-07 2.35283e-07 0)
(8.03432e-07 3.60334e-07 0)
(9.38215e-07 5.0152e-07 0)
(1.07834e-06 6.55019e-07 0)
(3.87973e-08 -2.7257e-08 0)
(1.21222e-07 -6.1051e-08 0)
(2.1169e-07 -6.36734e-08 0)
(3.06536e-07 -3.68969e-08 0)
(4.06905e-07 1.77014e-08 0)
(5.12429e-07 9.73427e-08 0)
(6.24148e-07 1.9911e-07 0)
(7.41867e-07 3.19802e-07 0)
(8.6667e-07 4.56792e-07 0)
(9.97042e-07 6.06406e-07 0)
(3.58426e-08 -3.19236e-08 0)
(1.12674e-07 -7.306e-08 0)
(1.95958e-07 -8.14871e-08 0)
(2.82355e-07 -5.93781e-08 0)
(3.73205e-07 -8.96381e-09 0)
(4.68591e-07 6.66617e-08 0)
(5.69769e-07 1.64466e-07 0)
(6.76849e-07 2.81259e-07 0)
(7.90904e-07 4.14482e-07 0)
(9.10842e-07 5.60624e-07 0)
(3.37792e-08 -3.80665e-08 0)
(1.05938e-07 -8.63305e-08 0)
(1.816e-07 -9.95482e-08 0)
(2.58483e-07 -8.107e-08 0)
(3.38556e-07 -3.40223e-08 0)
(4.22515e-07 3.8215e-08 0)
(5.11939e-07 1.32538e-07 0)
(6.0725e-07 2.45829e-07 0)
(7.09533e-07 3.75612e-07 0)
(8.18104e-07 5.18575e-07 0)
(3.51341e-08 -4.63313e-08 0)
(1.03743e-07 -1.01349e-07 0)
(1.70347e-07 -1.18185e-07 0)
(2.35521e-07 -1.02449e-07 0)
(3.02684e-07 -5.80483e-08 0)
(3.73294e-07 1.13098e-08 0)
(4.49269e-07 1.02537e-07 0)
(5.3129e-07 2.12629e-07 0)
(6.20448e-07 3.39233e-07 0)
(7.16394e-07 4.7924e-07 0)
(4.54145e-08 -6.13002e-08 0)
(1.07903e-07 -1.18464e-07 0)
(1.63059e-07 -1.35053e-07 0)
(2.13394e-07 -1.19891e-07 0)
(2.65158e-07 -7.71941e-08 0)
(3.20206e-07 -1.02465e-08 0)
(3.80844e-07 7.8082e-08 0)
(4.47864e-07 1.85048e-07 0)
(5.2239e-07 3.08456e-07 0)
(6.0426e-07 4.45436e-07 0)
)
;

boundaryField
{
    left
    {
        type            fixedDisplacement;
        value           uniform (0 0 0);
    }
    right
    {
        type            solidTraction;
        tractionSeries  
{
        file            "$FOAM_CASE/constant/timeVsTraction";
        outOfBounds     clamp;
}
        pressure        uniform 0;
        secondOrder     false;
        setEffectiveTraction false;
        relaxationFactor 1;
        value           nonuniform List<vector> 
30
(
(8.18107e-06 5.99801e-06 1.48087e-22)
(7.99043e-06 5.92925e-06 1.61048e-23)
(7.7981e-06 5.86096e-06 -5.98876e-26)
(7.60355e-06 5.79189e-06 1.54487e-22)
(7.4068e-06 5.72125e-06 -6.94274e-23)
(7.2083e-06 5.64832e-06 -6.09002e-23)
(7.00876e-06 5.57267e-06 -3.17335e-23)
(6.80901e-06 5.49407e-06 -9.88213e-23)
(6.60993e-06 5.41252e-06 1.00883e-22)
(6.41237e-06 5.32824e-06 6.92472e-23)
(6.22552e-06 5.24533e-06 1.16316e-24)
(6.04837e-06 5.16382e-06 3.5826e-37)
(5.87374e-06 5.08111e-06 3.72126e-23)
(5.70197e-06 4.99759e-06 3.6559e-23)
(5.53324e-06 4.91385e-06 -7.18565e-23)
(5.36716e-06 4.83044e-06 2.35935e-37)
(5.20399e-06 4.74766e-06 4.67142e-37)
(5.04341e-06 4.66611e-06 -3.41709e-23)
(4.88506e-06 4.58614e-06 3.37242e-23)
(4.72852e-06 4.50807e-06 2.27597e-37)
(4.57331e-06 4.43215e-06 2.28348e-37)
(4.4189e-06 4.35852e-06 2.27551e-37)
(4.26475e-06 4.28724e-06 1.13795e-37)
(4.11031e-06 4.21824e-06 -4.08752e-39)
(3.95508e-06 4.15136e-06 -1.22017e-37)
(3.79861e-06 4.08632e-06 -3.51341e-37)
(3.6406e-06 4.02272e-06 -3.52024e-37)