/*--------------------------------*- C++ -*----------------------------------*\
  =========                 |
  \\      /  F ield         | OpenFOAM: The Open Source CFD Toolbox
   \\    /   O peration     | Website:  https://openfoam.org
    \\  /    A nd           | Version:  9
     \\/     M anipulation  |
\*---------------------------------------------------------------------------*/
FoamFile
{
    format      ascii;
    class       volSymmTensorField;
    location    "5";
    object      epsilon;
}
// * * * * * * * * * * * * * * * * * * * * * * * * * * * * * * * * * * * * * //

dimensions      [0 0 0 0 0 0 0];

internalField   nonuniform List<symmTensor> 
1000
(
(2.10687e-06 -2.73255e-06 2.56339e-19 4.23998e-07 2.81868e-19 7.68168e-34)
(2.90628e-06 -2.10739e-06 -4.34062e-21 -5.20103e-07 2.43447e-21 0)
(3.29802e-06 -1.61402e-06 5.06444e-21 -9.71517e-07 -9.73426e-22 0)
(3.51762e-06 -1.24181e-06 1.30015e-21 -1.2884e-06 -9.30788e-22 0)
(3.62339e-06 -9.42373e-07 -5.49867e-21 -1.46402e-06 4.06499e-22 0)
(3.65884e-06 -7.08298e-07 -5.94583e-22 -1.5764e-06 6.54137e-22 0)
(3.65464e-06 -5.18093e-07 -4.99643e-21 -1.63719e-06 -2.6824e-21 0)
(3.62139e-06 -3.66877e-07 3.42892e-21 -1.66819e-06 1.60278e-21 0)
(3.57827e-06 -2.41197e-07 -1.76948e-21 -1.67945e-06 -2.01421e-21 0)
(3.51557e-06 -1.36645e-07 0 -1.68108e-06 0 0)
(2.85079e-06 -3.0386e-06 2.64506e-19 1.17083e-07 3.40949e-19 4.61437e-35)
(3.47084e-06 -2.17533e-06 0 -7.22829e-07 0 0)
(3.73628e-06 -1.55196e-06 4.0546e-21 -1.09489e-06 1.93254e-21 0)
(3.85918e-06 -1.10391e-06 -6.95735e-21 -1.35895e-06 -3.71198e-21 0)
(3.88969e-06 -7.62311e-07 -2.9572e-21 -1.49224e-06 -1.78388e-21 0)
(3.86567e-06 -5.06834e-07 2.05879e-21 -1.57508e-06 2.10042e-21 0)
(3.81323e-06 -3.07372e-07 2.30481e-21 -1.61236e-06 1.54524e-21 0)
(3.74235e-06 -1.55763e-07 5.41851e-21 -1.62917e-06 3.16342e-21 0)
(3.66267e-06 -3.29033e-08 0 -1.62372e-06 0 0)
(3.57849e-06 6.54166e-08 0 -1.6265e-06 0 0)
(3.68449e-06 -3.23205e-06 2.62195e-19 -2.89468e-07 3.92401e-19 0)
(4.05556e-06 -2.1726e-06 0 -9.52032e-07 0 0)
(4.15685e-06 -1.44431e-06 3.86473e-21 -1.2049e-06 1.99755e-21 0)
(4.16012e-06 -9.36918e-07 -1.15925e-21 -1.39229e-06 4.10899e-22 0)
(4.10176e-06 -5.65524e-07 -5.67644e-23 -1.46906e-06 2.53877e-23 0)
(4.01014e-06 -2.97918e-07 -1.91958e-21 -1.51388e-06 -1.9873e-21 0)
(3.90518e-06 -9.69151e-08 2.61992e-21 -1.52257e-06 1.21152e-21 0)
(3.79358e-06 4.98778e-08 -1.94567e-21 -1.52142e-06 -1.43745e-21 0)
(3.68038e-06 1.6397e-07 -1.56462e-22 -1.5004e-06 2.71741e-22 0)
(3.57127e-06 2.56706e-07 -4.10748e-22 -1.49869e-06 -1.76674e-22 0)
(4.57679e-06 -3.28515e-06 2.33022e-19 -7.7275e-07 4.20138e-19 -2.68455e-35)
(4.64587e-06 -2.09057e-06 2.21323e-21 -1.19906e-06 -2.28984e-22 0)
(4.55313e-06 -1.29286e-06 -1.76648e-21 -1.29945e-06 -9.9718e-22 0)
(4.41781e-06 -7.48993e-07 -1.11892e-21 -1.39e-06 2.17648e-22 0)
(4.25948e-06 -3.64092e-07 2.00424e-21 -1.39882e-06 1.93833e-21 0)
(4.09467e-06 -9.57715e-08 -2.41212e-21 -1.39987e-06 -1.59573e-21 0)
(3.93495e-06 9.82227e-08 -2.08399e-21 -1.37812e-06 -1.48366e-21 0)
(3.78325e-06 2.34791e-07 -4.64477e-21 -1.35871e-06 -3.39947e-21 0)
(3.63873e-06 3.35475e-07 -6.66301e-22 -1.325e-06 -8.14194e-22 0)
(3.5081e-06 4.17452e-07 1.13785e-21 -1.3174e-06 1.007e-21 0)
(5.48365e-06 -3.17304e-06 1.8112e-19 -1.30168e-06 3.9519e-19 -4.61751e-34)
(5.22259e-06 -1.91817e-06 1.15748e-25 -1.45242e-06 5.51584e-27 0)
(4.91515e-06 -1.09532e-06 -5.71875e-21 -1.37454e-06 -2.80325e-21 0)
(4.62766e-06 -5.44196e-07 5.19572e-22 -1.35232e-06 -1.98129e-23 0)
(4.36179e-06 -1.6697e-07 -7.281e-22 -1.28441e-06 7.7576e-23 0)
(4.12088e-06 8.71282e-08 1.73737e-21 -1.23793e-06 1.60556e-21 0)
(3.90684e-06 2.63297e-07 -1.94512e-22 -1.18548e-06 5.7873e-23 0)
(3.71697e-06 3.82243e-07 1.83303e-21 -1.14883e-06 1.2255e-21 0)
(3.54545e-06 4.64185e-07 -3.97412e-22 -1.10617e-06 -8.50552e-22 0)
(3.39629e-06 5.30974e-07 -7.25127e-22 -1.09397e-06 -5.86005e-22 0)
(6.37456e-06 -2.8898e-06 1.21886e-19 -1.84105e-06 3.40665e-19 -4.44852e-34)
(5.77189e-06 -1.64815e-06 1.05564e-25 -1.69539e-06 2.23076e-26 0)
(5.23689e-06 -8.48894e-07 -5.71102e-26 -1.42109e-06 -8.8359e-27 0)
(4.7882e-06 -3.26481e-07 4.59177e-22 -1.27676e-06 5.63837e-23 0)
(4.41109e-06 1.72541e-08 -2.47498e-21 -1.12861e-06 -1.50576e-21 0)
(4.0948e-06 2.39337e-07 2.82031e-23 -1.03546e-06 -2.67929e-25 0)
(3.82962e-06 3.85926e-07 1.84213e-21 -9.55494e-07 1.24816e-21 0)
(3.60581e-06 4.79756e-07 3.91725e-21 -9.0506e-07 2.86656e-21 0)
(3.41224e-06 5.38556e-07 7.09578e-22 -8.57897e-07 5.20969e-22 0)
(3.24845e-06 5.86564e-07 -1.23909e-21 -8.43153e-07 -9.76553e-22 0)
(7.18973e-06 -2.41738e-06 8.06008e-20 -2.34793e-06 2.65382e-19 -8.39938e-34)
(6.26163e-06 -1.26043e-06 1.65599e-21 -1.90234e-06 6.64789e-22 0)
(5.49031e-06 -5.46314e-07 1.75075e-21 -1.41854e-06 7.95896e-22 0)
(4.88048e-06 -9.82319e-08 -3.77443e-22 -1.15242e-06 -1.12748e-22 0)
(4.39833e-06 1.80003e-07 1.78967e-21 -9.30655e-07 1.19831e-21 0)
(4.01583e-06 3.493e-07 -1.64704e-21 -7.99694e-07 -1.13521e-21 0)
(3.70916e-06 4.54014e-07 4.68138e-22 -7.01078e-07 2.83803e-23 0)
(3.4598e-06 5.15809e-07 -1.47043e-21 -6.43787e-07 -9.64427e-22 0)
(3.25166e-06 5.48764e-07 -1.01561e-22 -5.98234e-07 1.30009e-23 0)
(3.07819e-06 5.76178e-07 -7.45043e-22 -5.84161e-07 -4.86641e-22 0)
(7.95335e-06 -1.75428e-06 4.24559e-20 -2.7852e-06 1.70265e-19 -2.71118e-35)
(6.67417e-06 -7.35194e-07 -4.41586e-21 -2.02234e-06 -1.59219e-21 0)
(5.65761e-06 -1.83082e-07 3.41972e-23 -1.32573e-06 1.87865e-23 0)
(4.89973e-06 1.27565e-07 5.51913e-22 -9.6013e-07 2.80244e-22 0)
(4.3298e-06 3.03853e-07 4.09185e-21 -6.89023e-07 2.03783e-21 0)
(3.8992e-06 4.00974e-07 -2.41757e-22 -5.41296e-07 -7.59208e-23 0)
(3.56613e-06 4.55802e-07 6.01679e-27 -4.40396e-07 1.1976e-27 0)
(3.30288e-06 4.83447e-07 -1.43875e-21 -3.87215e-07 -7.59989e-22 0)
(3.0888e-06 4.92468e-07 3.48602e-23 -3.50658e-07 1.4513e-24 0)
(2.91124e-06 5.01198e-07 1.07636e-22 -3.40978e-07 5.30352e-23 0)
(8.54302e-06 -8.1821e-07 1.16839e-20 -3.04185e-06 6.39285e-20 1.48987e-34)
(6.87527e-06 -7.09635e-08 -4.86436e-21 -1.92181e-06 -2.0444e-21 0)
(5.62593e-06 1.91799e-07 5.08239e-22 -1.05507e-06 4.33133e-22 0)
(4.77426e-06 2.90113e-07 4.77469e-22 -6.60341e-07 3.7796e-22 0)
(4.17483e-06 3.39496e-07 -1.99732e-22 -4.02851e-07 -1.22054e-22 0)
(3.73792e-06 3.56442e-07 1.59396e-21 -2.7873e-07 5.80374e-22 0)
(3.40749e-06 3.64826e-07 8.69557e-23 -2.01361e-07 2.68307e-23 0)
(3.14816e-06 3.64827e-07 2.57084e-21 -1.66197e-07 9.85881e-22 0)
(2.93881e-06 3.5855e-07 5.67607e-22 -1.45436e-07 2.19936e-22 0)
(2.76284e-06 3.5539e-07 3.18252e-22 -1.42771e-07 1.27881e-22 0)
(9.06804e-06 7.3962e-07 9.72413e-22 -2.80647e-06 -3.90088e-20 -1.72773e-34)
(6.70296e-06 8.25135e-07 -3.72465e-22 -1.26467e-06 -6.4619e-22 0)
(5.39026e-06 5.45222e-07 1.6897e-21 -5.29096e-07 7.18738e-22 0)
(4.57251e-06 3.5419e-07 8.68711e-23 -2.60939e-07 1.22122e-22 0)
(4.0226e-06 2.79861e-07 2.96778e-27 -1.22683e-07 2.76687e-27 0)
(3.61726e-06 2.38409e-07 1.61632e-21 -6.72756e-08 2.91534e-22 0)
(3.30943e-06 2.23618e-07 2.5022e-23 -3.77634e-08 7.39181e-24 0)
(3.06222e-06 2.15002e-07 1.23872e-21 -2.78915e-08 2.35573e-22 0)
(2.86018e-06 2.08238e-07 -1.36624e-23 -2.35215e-08 -9.86174e-25 0)
(2.68541e-06 2.03646e-07 -2.07959e-23 -2.5211e-08 -4.37421e-24 0)
(-7.46671e-09 8.51281e-09 3.44912e-20 -1.55871e-09 2.28466e-20 1.71988e-34)
(1.18407e-08 -2.07883e-08 -9.33032e-23 -2.76511e-09 2.027e-20 1.54979e-36)
(1.07348e-07 -6.98985e-08 -1.18382e-21 -4.90209e-08 1.65719e-20 1.93193e-35)
(2.58053e-07 -1.09231e-07 -2.14656e-24 -1.18012e-07 1.77975e-20 0)
(4.31688e-07 -1.33515e-07 -1.60422e-22 -1.9472e-07 1.58412e-20 -1.54537e-36)
(6.13251e-07 -1.47361e-07 -1.6221e-21 -2.73654e-07 1.74738e-20 3.22317e-35)
(7.90656e-07 -1.5282e-07 3.64382e-22 -3.49881e-07 1.93281e-20 1.5364e-36)
(9.59819e-07 -1.5329e-07 -1.07616e-21 -4.21879e-07 1.81313e-20 2.91374e-35)
(1.11502e-06 -1.4922e-07 8.69487e-22 -4.88148e-07 1.84351e-20 -1.26134e-35)
(1.25881e-06 -1.46076e-07 1.82445e-21 -5.47817e-07 1.7915e-20 -3.79518e-35)
(1.96665e-08 -2.2503e-08 3.53996e-20 -8.1781e-09 5.61654e-21 4.74604e-35)
(1.14263e-07 -1.31074e-07 1.30873e-21 -8.80391e-10 1.43646e-21 0)
(2.86954e-07 -2.51077e-07 -1.22483e-21 -7.27744e-08 -1.23092e-21 0)
(4.79096e-07 -3.42835e-07 1.14823e-23 -1.69853e-07 -1.01936e-21 0)
(6.71903e-07 -3.99318e-07 0 -2.66665e-07 0 0)
(8.54802e-07 -4.3102e-07 -1.85804e-21 -3.57899e-07 -2.75768e-22 0)
(1.02333e-06 -4.42508e-07 3.14045e-22 -4.40007e-07 1.60081e-21 0)
(1.17819e-06 -4.41823e-07 2.34347e-23 -5.13456e-07 8.61229e-23 0)
(1.31464e-06 -4.29633e-07 -1.00314e-21 -5.7802e-07 -2.911e-21 0)
(1.44136e-06 -4.19915e-07 7.33876e-22 -6.32906e-07 1.1397e-22 0)
(3.00567e-08 -1.18941e-07 3.7599e-20 3.51968e-08 7.44093e-21 -2.11685e-36)
(2.11235e-07 -3.30505e-07 1.33848e-21 1.17716e-08 1.41892e-21 0)
(4.5511e-07 -4.79188e-07 1.39984e-21 -1.00021e-07 2.93181e-22 0)
(6.9461e-07 -5.78861e-07 7.15608e-23 -2.38851e-07 -9.83067e-22 0)
(9.15073e-07 -6.33847e-07 0 -3.66879e-07 0 0)
(1.10904e-06 -6.59771e-07 -2.07962e-21 -4.79224e-07 -5.42981e-22 0)
(1.27752e-06 -6.63025e-07 -2.83669e-21 -5.73619e-07 -7.9459e-22 0)
(1.42567e-06 -6.52514e-07 1.87705e-21 -6.53136e-07 1.14802e-21 0)
(1.54883e-06 -6.29454e-07 1.1413e-23 -7.18019e-07 3.66695e-23 0)
(1.66378e-06 -6.1006e-07 -1.68838e-21 -7.70805e-07 -1.06764e-21 0)
(4.57008e-08 -2.70103e-07 4.7314e-20 1.38378e-07 1.1949e-20 -4.05338e-35)
(3.44042e-07 -5.69584e-07 3.29512e-22 2.49977e-08 -1.19184e-21 0)
(6.53954e-07 -7.25959e-07 1.53837e-21 -1.36704e-07 3.0069e-22 0)
(9.36497e-07 -8.13709e-07 0 -3.16624e-07 0 0)
(1.18126e-06 -8.50138e-07 -2.62125e-21 -4.73284e-07 9.7754e-22 0)
(1.38594e-06 -8.57013e-07 3.26588e-23 -6.05881e-07 2.41907e-21 0)
(1.55527e-06 -8.42513e-07 -1.31053e-22 -7.1296e-07 -1.2996e-21 0)
(1.69834e-06 -8.15536e-07 -3.76657e-22 -7.99819e-07 -2.00604e-21 0)
(1.80992e-06 -7.77965e-07 8.56492e-22 -8.66948e-07 2.77953e-22 0)
(1.91506e-06 -7.46193e-07 1.59883e-21 -9.1976e-07 5.99762e-22 0)
(8.63465e-08 -4.8365e-07 5.02265e-20 2.81828e-07 2.15581e-20 1.05956e-34)
(5.31078e-07 -8.29893e-07 -2.69992e-21 2.20057e-08 1.81089e-21 0)
(9.07212e-07 -9.70497e-07 -1.63807e-21 -2.074e-07 -4.81932e-22 0)
(1.22639e-06 -1.02906e-06 -4.4123e-22 -4.31895e-07 1.77314e-21 0)
(1.48725e-06 -1.03307e-06 -1.72896e-23 -6.14525e-07 1.09382e-22 0)
(1.69592e-06 -1.01035e-06 2.52522e-21 -7.63388e-07 -6.78674e-22 0)
(1.86105e-06 -9.70473e-07 1.10033e-21 -8.79215e-07 2.8878e-22 0)
(1.99532e-06 -9.21571e-07 0 -9.70009e-07 0 0)
(2.09307e-06 -8.666e-07 -1.17578e-21 -1.03671e-06 -1.5466e-21 0)
(2.18666e-06 -8.19837e-07 4.6859e-22 -1.0875e-06 1.13696e-22 0)
(1.75014e-07 -7.643e-07 7.22286e-20 4.43227e-07 3.14607e-20 -1.57884e-34)
(7.7868e-07 -1.09384e-06 1.10126e-21 2.19323e-09 -2.14853e-21 0)
(1.2174e-06 -1.1905e-06 -1.35331e-21 -3.0434e-07 -1.45975e-21 0)
(1.56401e-06 -1.2049e-06 2.96987e-22 -5.72427e-07 -8.25649e-22 0)
(1.83088e-06 -1.16778e-06 2.86209e-21 -7.75771e-07 9.57599e-22 0)
(2.03469e-06 -1.11019e-06 -2.76047e-21 -9.35106e-07 3.08205e-22 0)
(2.18869e-06 -1.04175e-06 -3.09575e-24 -1.0546e-06 7.333e-23 0)
(2.30858e-06 -9.69025e-07 -2.15138e-21 -1.14507e-06 -1.48176e-21 0)
(2.38896e-06 -8.96148e-07 4.54141e-24 -1.20863e-06 2.87817e-23 0)
(2.46765e-06 -8.3364e-07 -2.34874e-21 -1.25496e-06 -1.07356e-21 0)
(3.37451e-07 -1.10901e-06 1.11265e-19 5.88246e-07 6.0053e-20 -1.66707e-34)
(1.08898e-06 -1.35092e-06 6.09713e-23 -4.13775e-08 -9.24128e-23 0)
(1.57883e-06 -1.37288e-06 -4.46676e-26 -4.2497e-07 7.63262e-26 0)
(1.94051e-06 -1.3282e-06 -2.9244e-21 -7.32673e-07 -2.04926e-21 0)
(2.20216e-06 -1.24306e-06 -4.95613e-22 -9.50671e-07 1.32803e-21 0)
(2.39139e-06 -1.14778e-06 -2.67948e-21 -1.11441e-06 -1.09033e-21 0)
(2.52665e-06 -1.04998e-06 4.81685e-21 -1.23206e-06 2.1471e-21 0)
(2.62583e-06 -9.53837e-07 -5.54674e-25 -1.31768e-06 5.7596e-23 0)
(2.68504e-06 -8.64278e-07 9.47714e-22 -1.37481e-06 -4.45763e-24 0)
(2.74457e-06 -7.86552e-07 -1.28474e-21 -1.41406e-06 -6.11664e-22 0)
(5.97505e-07 -1.50499e-06 1.59648e-19 6.84651e-07 1.00763e-19 -3.35664e-34)
(1.46091e-06 -1.59107e-06 1.57062e-21 -1.11653e-07 -1.87734e-21 0)
(1.98008e-06 -1.50895e-06 -6.06219e-22 -5.58888e-07 8.08385e-22 0)
(2.34016e-06 -1.39191e-06 3.70549e-22 -8.96307e-07 -5.78106e-22 0)
(2.58412e-06 -1.25407e-06 3.30325e-26 -1.12085e-06 -6.49409e-26 0)
(2.74904e-06 -1.12063e-06 3.10914e-21 -1.28245e-06 2.62398e-22 0)
(2.8585e-06 -9.94995e-07 2.32708e-22 -1.3934e-06 -1.01331e-21 0)
(2.93119e-06 -8.78056e-07 -7.73256e-23 -1.46998e-06 8.33915e-22 0)
(2.96653e-06 -7.74728e-07 1.11772e-23 -1.51919e-06 4.16458e-22 0)
(3.00261e-06 -6.83813e-07 9.82335e-22 -1.54857e-06 9.17819e-22 0)
(9.74044e-07 -1.92905e-06 1.98749e-19 7.02153e-07 1.56917e-19 4.56395e-34)
(1.89185e-06 -1.80435e-06 -5.0513e-22 -2.1363e-07 3.4422e-21 0)
(2.40882e-06 -1.59472e-06 -5.86062e-26 -6.99199e-07 6.14916e-26 0)
(2.74655e-06 -1.39534e-06 4.02325e-21 -1.05098e-06 9.44373e-22 0)
(2.95914e-06 -1.20231e-06 3.0732e-21 -1.27177e-06 1.53415e-21 0)
(3.08999e-06 -1.03211e-06 2.77261e-21 -1.4244e-06 1.38447e-21 0)
(3.16699e-06 -8.81424e-07 -3.023e-22 -1.52337e-06 8.71072e-22 0)
(3.20792e-06 -7.4804e-07 -3.33878e-21 -1.58813e-06 -1.86559e-21 0)
(3.21748e-06 -6.34464e-07 2.04951e-21 -1.62697e-06 4.84854e-22 0)
(3.22733e-06 -5.32905e-07 9.19477e-22 -1.64911e-06 5.4642e-22 0)
(1.47731e-06 -2.35042e-06 2.31523e-19 6.19225e-07 2.14468e-19 6.67535e-35)
(2.37621e-06 -1.98028e-06 -1.01857e-21 -3.49459e-07 7.52264e-22 0)
(2.85182e-06 -1.62946e-06 -1.97583e-21 -8.38294e-07 -9.21176e-22 0)
(3.14298e-06 -1.34287e-06 8.55828e-21 -1.18411e-06 2.00453e-21 0)
(3.30921e-06 -1.09493e-06 5.23435e-23 -1.38891e-06 -5.96116e-23 0)
(3.39621e-06 -8.9059e-07 -2.72674e-21 -1.5248e-06 -1.54815e-21 0)
(3.43442e-06 -7.18758e-07 -2.9207e-21 -1.60724e-06 -4.59208e-22 0)
(3.43898e-06 -5.7382e-07 -1.10089e-21 -1.65539e-06 -6.58448e-22 0)
(3.42387e-06 -4.56315e-07 1.21212e-22 -1.68652e-06 -9.12561e-22 0)
(3.39896e-06 -3.54415e-07 5.51836e-22 -1.68917e-06 1.15342e-21 0)
(1.38827e-06 -1.35424e-07 1.83809e-21 -6.0331e-07 1.90404e-20 -1.12713e-35)
(1.50109e-06 -1.20673e-07 1.71954e-21 -6.49561e-07 1.77375e-20 -2.47176e-35)
(1.60474e-06 -1.07853e-07 -1.72835e-22 -6.92482e-07 1.54811e-20 -1.43918e-35)
(1.69793e-06 -9.62158e-08 1.62487e-22 -7.31318e-07 1.66585e-20 -6.30503e-37)
(1.78201e-06 -8.54257e-08 -8.72741e-22 -7.66256e-07 1.67962e-20 3.73881e-35)
(1.85736e-06 -7.5766e-08 5.69618e-22 -7.9775e-07 1.72511e-20 0)
(1.92491e-06 -6.6908e-08 5.36317e-22 -8.25937e-07 1.72115e-20 0)
(1.98512e-06 -5.89188e-08 1.05575e-21 -8.51155e-07 1.78538e-20 4.8379e-37)
(2.03871e-06 -5.15945e-08 9.59568e-22 -8.73602e-07 1.73237e-20 -1.26319e-35)
(2.08607e-06 -4.48846e-08 1.59717e-21 -8.93498e-07 1.84837e-20 8.18703e-37)
(2.12769e-06 -3.86421e-08 1.8869e-21 -9.11007e-07 1.76463e-20 -3.81855e-35)
(2.16386e-06 -3.27768e-08 -1.31232e-22 -9.26267e-07 1.68656e-20 1.27797e-35)
(2.19482e-06 -2.71739e-08 1.8397e-21 -9.39374e-07 1.76089e-20 -3.8498e-35)
(2.22074e-06 -2.17508e-08 -1.55656e-21 -9.50403e-07 1.48736e-20 -7.72505e-37)
(2.24169e-06 -1.64363e-08 3.76402e-22 -9.59382e-07 1.75203e-20 1.31634e-35)
(2.25777e-06 -1.12243e-08 2.27891e-22 -9.66349e-07 1.69787e-20 -3.11458e-45)
(2.26895e-06 -6.18974e-09 -4.39286e-22 -9.71283e-07 1.62309e-20 -1.4047e-37)
(2.27563e-06 -1.61854e-09 7.90003e-22 -9.74256e-07 1.76997e-20 1.00767e-37)
(2.27777e-06 1.88798e-09 4.29653e-22 -9.75167e-07 1.60379e-20 -3.97072e-35)
(2.27704e-06 2.7168e-09 1.39034e-20 -9.73848e-07 1.43741e-20 -2.92951e-35)
(1.5456e-06 -3.90932e-07 1.79702e-21 -6.82382e-07 2.20894e-21 0)
(1.62921e-06 -3.5173e-07 1.16402e-21 -7.1771e-07 3.18962e-22 0)
(1.70918e-06 -3.17201e-07 8.68602e-23 -7.50247e-07 -5.04918e-22 0)
(1.78091e-06 -2.84989e-07 2.64571e-21 -7.80113e-07 2.38518e-21 0)
(1.84697e-06 -2.54803e-07 -5.08065e-22 -8.06762e-07 -1.19965e-22 0)
(1.90661e-06 -2.2753e-07 -2.15777e-21 -8.31233e-07 -2.18672e-21 0)
(1.96092e-06 -2.02284e-07 1.09952e-21 -8.53193e-07 4.06776e-22 0)
(2.00982e-06 -1.79357e-07 0 -8.73156e-07 0 0)
(2.05396e-06 -1.58204e-07 5.23923e-22 -8.91114e-07 1.85507e-22 0)
(2.09346e-06 -1.38741e-07 1.07723e-21 -9.07302e-07 4.15067e-22 0)
(2.1287e-06 -1.20596e-07 3.23137e-21 -9.21793e-07 1.66937e-21 0)
(2.15987e-06 -1.03557e-07 1.45942e-23 -9.34704e-07 1.66842e-23 0)
(2.18718e-06 -8.73439e-08 4.18751e-22 -9.4609e-07 -3.26487e-22 0)
(2.21079e-06 -7.17617e-08 6.17238e-22 -9.55984e-07 7.06074e-22 0)
(2.23078e-06 -5.66559e-08 6.33228e-22 -9.6436e-07 7.26248e-22 0)
(2.24729e-06 -4.20206e-08 -6.27295e-22 -9.71131e-07 -7.23104e-22 0)
(2.26019e-06 -2.80311e-08 -6.30854e-22 -9.76068e-07 -7.31308e-22 0)
(2.26964e-06 -1.52955e-08 -1.26692e-21 -9.78766e-07 -1.47727e-21 0)
(2.27491e-06 -4.73553e-09 -9.58544e-24 -9.78293e-07 -1.04924e-23 0)
(2.27622e-06 8.82584e-10 1.64454e-20 -9.73145e-07 1.06733e-21 3.71666e-35)
(1.74404e-06 -5.66606e-07 4.91829e-22 -8.11559e-07 6.7256e-22 0)
(1.79663e-06 -5.13172e-07 6.70243e-22 -8.32564e-07 2.39156e-22 0)
(1.85114e-06 -4.65236e-07 -1.55896e-21 -8.50191e-07 -1.96294e-21 0)
(1.8989e-06 -4.20738e-07 -1.39131e-22 -8.66922e-07 3.58534e-22 0)
(1.94468e-06 -3.78344e-07 2.8427e-21 -8.81195e-07 2.36688e-21 0)
(1.98617e-06 -3.39865e-07 -2.25849e-21 -8.94866e-07 -2.15629e-21 0)
(2.02506e-06 -3.03864e-07 -6.01407e-22 -9.0718e-07 -6.96451e-22 0)
(2.06053e-06 -2.70975e-07 1.14942e-21 -9.18806e-07 1.30725e-21 0)
(2.09331e-06 -2.40441e-07 4.0419e-24 -9.29576e-07 -8.48935e-22 0)
(2.12318e-06 -2.12251e-07 -1.21625e-21 -9.39699e-07 -1.36754e-21 0)
(2.15048e-06 -1.8594e-07 1.16545e-21 -9.49166e-07 1.30572e-21 0)
(2.1752e-06 -1.61281e-07 1.80091e-21 -9.58034e-07 2.01877e-21 0)
(2.19752e-06 -1.37934e-07 1.37794e-23 -9.66288e-07 1.51864e-23 0)
(2.21748e-06 -1.15665e-07 -6.1664e-22 -9.73881e-07 -6.95234e-22 0)
(2.23511e-06 -9.42628e-08 6.10438e-22 -9.80666e-07 6.92405e-22 0)
(2.25043e-06 -7.36493e-08 8.99839e-29 -9.86372e-07 1.00211e-28 0)
(2.26311e-06 -5.38731e-08 -6.28935e-22 -9.90449e-07 -7.22389e-22 0)
(2.27299e-06 -3.52452e-08 8.57291e-23 -9.92007e-07 5.21944e-22 0)
(2.27845e-06 -1.83388e-08 -2.06534e-21 -9.89192e-07 -2.65315e-22 0)
(2.27939e-06 -3.91398e-09 1.69889e-20 -9.7992e-07 2.43153e-22 2.80456e-38)
(1.97173e-06 -6.90545e-07 0 -9.52595e-07 0 0)
(1.99217e-06 -6.29331e-07 7.16619e-22 -9.60426e-07 2.61046e-22 0)
(2.02086e-06 -5.72872e-07 5.61458e-22 -9.63926e-07 6.41647e-22 0)
(2.04357e-06 -5.21384e-07 6.1622e-22 -9.68361e-07 7.13423e-22 0)
(2.06803e-06 -4.71266e-07 0 -9.70513e-07 0 0)
(2.08997e-06 -4.25776e-07 8.27351e-23 -9.73418e-07 -3.60272e-22 0)
(2.11206e-06 -3.82687e-07 -1.84303e-21 -9.75873e-07 -1.13189e-21 0)
(2.13263e-06 -3.43134e-07 -1.17692e-21 -9.78778e-07 -1.27893e-21 0)
(2.15264e-06 -3.06163e-07 -6.61105e-22 -9.81858e-07 -3.05148e-22 0)
(2.17147e-06 -2.71902e-07 -2.72459e-24 -9.85316e-07 8.18181e-22 0)
(2.18945e-06 -2.39845e-07 -5.80932e-22 -9.89088e-07 1.80007e-22 0)
(2.20636e-06 -2.09787e-07 1.21643e-21 -9.93175e-07 5.21734e-22 0)
(2.2223e-06 -1.81369e-07 1.15422e-21 -9.97496e-07 5.68841e-23 0)
(2.23717e-06 -1.54327e-07 2.8657e-23 -1.00192e-06 4.37452e-22 0)
(2.25089e-06 -1.28396e-07 5.0392e-23 -1.0062e-06 4.63749e-22 0)
(2.26333e-06 -1.03378e-07 -6.21822e-22 -1.00993e-06 -6.9968e-22 0)
(2.27394e-06 -7.91421e-08 -1.32805e-28 -1.01238e-06 -1.49519e-28 0)
(2.28243e-06 -5.55285e-08 1.32655e-21 -1.0125e-06 1.9454e-21 0)
(2.28676e-06 -3.274e-08 -6.79391e-23 -1.0082e-06 -5.11757e-22 0)
(2.28699e-06 -9.12152e-09 1.45693e-20 -9.97368e-07 -2.28991e-21 -5.59693e-35)
(2.21874e-06 -7.5469e-07 5.57549e-23 -1.11022e-06 8.96256e-22 0)
(2.20582e-06 -6.93226e-07 -7.78759e-22 -1.10456e-06 -3.40285e-22 0)
(2.20854e-06 -6.33269e-07 -1.95931e-21 -1.09274e-06 -1.5968e-21 0)
(2.20553e-06 -5.80488e-07 1.28972e-21 -1.08436e-06 8.77996e-22 0)
(2.20831e-06 -5.27457e-07 3.35619e-21 -1.07365e-06 2.20473e-21 0)
(2.20995e-06 -4.79535e-07 -6.16824e-22 -1.06495e-06 -6.44795e-22 0)
(2.21453e-06 -4.33445e-07 0 -1.05666e-06 0 0)
(2.21929e-06 -3.9091e-07 6.007e-22 -1.04988e-06 6.25188e-22 0)
(2.22559e-06 -3.50823e-07 -1.93172e-21 -1.0443e-06 -8.25325e-22 0)
(2.23237e-06 -3.13471e-07 -1.25363e-21 -1.04012e-06 -9.24081e-22 0)
(2.23997e-06 -2.78381e-07 6.91921e-23 -1.03727e-06 -7.13768e-22 0)
(2.24798e-06 -2.45394e-07 -6.32517e-22 -1.03569e-06 -1.0689e-21 0)
(2.2564e-06 -2.14167e-07 -6.27993e-23 -1.03526e-06 1.12299e-21 0)
(2.26502e-06 -1.84414e-07 1.23592e-21 -1.03578e-06 1.74173e-21 0)
(2.27364e-06 -1.55813e-07 6.01043e-22 -1.03696e-06 2.56216e-22 0)
(2.28201e-06 -1.28009e-07 -2.31649e-23 -1.03831e-06 -4.34439e-22 0)
(2.28947e-06 -1.00679e-07 1.16505e-21 -1.03905e-06 4.79172e-22 0)
(2.29565e-06 -7.31421e-08 5.73014e-22 -1.03812e-06 2.29976e-22 0)
(2.29851e-06 -4.53736e-08 2.35288e-21 -1.03356e-06 1.85859e-21 0)
(2.29821e-06 -1.37027e-08 1.96913e-20 -1.02344e-06 2.39977e-21 5.78099e-35)
(2.4743e-06 -7.62352e-07 4.59681e-22 -1.26667e-06 6.3131e-22 0)
(2.42771e-06 -7.08582e-07 1.10776e-23 -1.24952e-06 2.42457e-23 0)
(2.40528e-06 -6.49946e-07 -1.41636e-21 -1.22329e-06 -9.8171e-22 0)
(2.37659e-06 -6.01079e-07 -3.40157e-21 -1.20309e-06 -2.54594e-21 0)
(2.35808e-06 -5.49461e-07 1.32877e-21 -1.18048e-06 9.05362e-22 0)
(2.33945e-06 -5.02996e-07 1.25117e-21 -1.16075e-06 1.24222e-21 0)
(2.32646e-06 -4.57481e-07 -6.13009e-22 -1.14227e-06 -6.09551e-22 0)
(2.31521e-06 -4.15127e-07 -9.79388e-23 -1.12603e-06 2.73449e-22 0)
(2.30739e-06 -3.74841e-07 2.688e-21 -1.11189e-06 1.60123e-21 0)
(2.30161e-06 -3.37005e-07 -1.79766e-21 -1.09996e-06 -1.83423e-21 0)
(2.29818e-06 -3.0125e-07 -6.39448e-22 -1.09021e-06 -6.60613e-22 0)
(2.29655e-06 -2.67458e-07 1.73922e-21 -1.08257e-06 2.57566e-21 0)
(2.29663e-06 -2.35341e-07 -2.5372e-21 -1.07694e-06 -7.55236e-22 0)
(2.29812e-06 -2.04604e-07 -1.80994e-21 -1.07311e-06 -1.9337e-21 0)
(2.30074e-06 -1.74896e-07 3.98866e-24 -1.07079e-06 -3.90725e-22 0)
(2.30418e-06 -1.45726e-07 -2.43795e-21 -1.06954e-06 -1.86554e-21 0)
(2.30779e-06 -1.16624e-07 -1.77505e-23 -1.06864e-06 -1.66893e-23 0)
(2.31118e-06 -8.64598e-08 2.39665e-21 -1.06721e-06 2.29101e-21 0)
(2.31265e-06 -5.50817e-08 3.82163e-23 -1.06368e-06 4.73027e-22 0)
(2.31226e-06 -1.7273e-08 2.05506e-20 -1.0564e-06 9.10275e-22 -4.39946e-37)
(2.72596e-06 -7.13514e-07 -4.81708e-22 -1.41382e-06 -6.17717e-22 0)
(2.64721e-06 -6.76028e-07 6.65316e-22 -1.38836e-06 6.07353e-22 0)
(2.60205e-06 -6.23739e-07 8.20888e-22 -1.35017e-06 4.28792e-22 0)
(2.54891e-06 -5.83738e-07 -6.49138e-22 -1.3196e-06 -6.08695e-22 0)
(2.51038e-06 -5.38158e-07 -1.53692e-21 -1.28675e-06 -7.67597e-22 0)
(2.47232e-06 -4.9687e-07 7.50289e-22 -1.2567e-06 3.73067e-22 0)
(2.44217e-06 -4.55431e-07 2.12389e-21 -1.22856e-06 1.36652e-21 0)
(2.41521e-06 -4.16129e-07 -3.41717e-21 -1.20309e-06 -2.29427e-21 0)
(2.39331e-06 -3.78236e-07 -2.10774e-21 -1.18047e-06 -1.38833e-21 0)
(2.37491e-06 -3.42172e-07 3.30822e-21 -1.16077e-06 2.24016e-21 0)
(2.36024e-06 -3.07792e-07 -1.34886e-21 -1.14405e-06 -6.44974e-22 0)
(2.34866e-06 -2.75046e-07 1.78841e-21 -1.13026e-06 1.83169e-21 0)
(2.34e-06 -2.43741e-07 1.92478e-21 -1.1193e-06 1.254e-21 0)
(2.33389e-06 -2.13596e-07 -1.12441e-21 -1.11101e-06 -1.56474e-21 0)
(2.33002e-06 -1.84259e-07 -7.32151e-22 -1.10514e-06 3.80796e-22 0)
(2.32806e-06 -1.55142e-07 3.47487e-23 -1.10133e-06 3.2054e-23 0)
(2.32747e-06 -1.25674e-07 -2.9708e-21 -1.09907e-06 -2.47217e-21 0)
(2.32784e-06 -9.43985e-08 5.90097e-22 -1.0977e-06 6.6283e-22 0)
(2.32809e-06 -6.11059e-08 1.16935e-21 -1.09619e-06 9.14957e-22 0)
(2.32792e-06 -1.95681e-08 2.11733e-20 -1.0933e-06 7.60247e-22 -1.89894e-37)
(2.96056e-06 -6.1179e-07 5.7885e-24 -1.53878e-06 1.96872e-23 0)
(2.8534e-06 -5.98968e-07 -6.87816e-22 -1.5091e-06 -6.05025e-22 0)
(2.78937e-06 -5.58463e-07 1.47198e-22 -1.464e-06 -1.60516e-22 0)
(2.71447e-06 -5.30644e-07 0 -1.42489e-06 0 0)
(2.65794e-06 -4.95226e-07 0 -1.385e-06 0 0)
(2.6027e-06 -4.62013e-07 -2.05942e-21 -1.34697e-06 -1.61236e-21 0)
(2.55674e-06 -4.27853e-07 1.83267e-21 -1.3113e-06 1.70875e-21 0)
(2.5153e-06 -3.94399e-07 3.86341e-21 -1.27818e-06 3.36891e-21 0)
(2.47996e-06 -3.61524e-07 -2.92268e-21 -1.24812e-06 -2.80656e-21 0)
(2.44936e-06 -3.29554e-07 -2.55978e-21 -1.22127e-06 -2.17952e-21 0)
(2.42356e-06 -2.986e-07 1.1807e-21 -1.19784e-06 1.17399e-21 0)
(2.402e-06 -2.68694e-07 -1.15012e-22 -1.17789e-06 2.32818e-22 0)
(2.38442e-06 -2.3978e-07 2.01905e-21 -1.16145e-06 9.97731e-22 0)
(2.37047e-06 -2.11648e-07 3.14578e-21 -1.14848e-06 2.1759e-21 0)
(2.35984e-06 -1.83992e-07 4.29501e-23 -1.13885e-06 3.92414e-23 0)
(2.3522e-06 -1.56206e-07 1.42964e-21 -1.13238e-06 -3.9221e-22 0)
(2.34723e-06 -1.27687e-07 0 -1.12881e-06 0 0)
(2.34448e-06 -9.67976e-08 -1.20461e-21 -1.12779e-06 -5.31988e-22 0)
(2.34371e-06 -6.33238e-08 5.79536e-22 -1.12894e-06 2.45247e-22 0)
(2.34406e-06 -2.05293e-08 2.35136e-20 -1.13149e-06 1.25737e-21 -5.30279e-37)
(3.16806e-06 -4.67001e-07 -4.53873e-24 -1.63249e-06 -1.7222e-23 0)
(3.03659e-06 -4.83375e-07 8.53382e-22 -1.60154e-06 5.09993e-22 0)
(2.95937e-06 -4.63059e-07 -8.48819e-22 -1.55996e-06 -5.16941e-22 0)
(2.86769e-06 -4.49825e-07 -8.35427e-22 -1.51561e-06 -5.03463e-22 0)
(2.79493e-06 -4.28816e-07 2.29396e-21 -1.47121e-06 1.56477e-21 0)
(2.72505e-06 -4.05666e-07 1.634e-21 -1.42665e-06 9.75454e-22 0)
(2.66464e-06 -3.80437e-07 -2.17053e-21 -1.38436e-06 -1.4527e-21 0)
(2.61025e-06 -3.54085e-07 2.87732e-22 -1.34461e-06 -3.05828e-22 0)
(2.56268e-06 -3.27341e-07 4.9296e-22 -1.3081e-06 4.57116e-22 0)
(2.52092e-06 -3.00608e-07 -2.66777e-22 -1.27513e-06 3.60533e-22 0)
(2.48481e-06 -2.74231e-07 -2.20333e-21 -1.24593e-06 -1.20811e-21 0)
(2.45384e-06 -2.48358e-07 1.973e-23 -1.22068e-06 1.90297e-23 0)
(2.42775e-06 -2.23033e-07 -1.00907e-21 -1.19947e-06 -1.37244e-21 0)
(2.40619e-06 -1.98125e-07 -3.40661e-23 -1.18237e-06 -3.11581e-23 0)
(2.38892e-06 -1.73383e-07 1.28684e-21 -1.16943e-06 6.26587e-22 0)
(2.37563e-06 -1.48227e-07 -2.56824e-23 -1.16064e-06 -2.24437e-23 0)
(2.36628e-06 -1.22064e-07 1.57089e-21 -1.15608e-06 2.10559e-21 0)
(2.36039e-06 -9.32242e-08 -5.92405e-22 -1.15572e-06 -2.65082e-22 0)
(2.35868e-06 -6.14853e-08 -2.7777e-21 -1.15988e-06 -2.74894e-21 0)
(2.35964e-06 -2.00782e-08 2.13242e-20 -1.16836e-06 -9.62179e-22 -4.19169e-35)
(3.33326e-06 -2.81276e-07 -1.08777e-22 -1.69346e-06 -5.48388e-23 0)
(3.19706e-06 -3.17089e-07 -9.1484e-22 -1.65552e-06 -5.39277e-22 0)
(3.10882e-06 -3.25545e-07 7.43042e-22 -1.62683e-06 5.83428e-22 0)
(3.01069e-06 -3.28985e-07 -1.94523e-21 -1.58644e-06 -1.77132e-21 0)
(2.92477e-06 -3.27368e-07 -2.00109e-21 -1.54442e-06 -1.66357e-21 0)
(2.84357e-06 -3.19907e-07 1.18438e-21 -1.49945e-06 1.22294e-21 0)
(2.77016e-06 -3.08375e-07 1.02978e-21 -1.45417e-06 1.22742e-21 0)
(2.70356e-06 -2.9345e-07 1.79396e-21 -1.40997e-06 1.61677e-21 0)
(2.64408e-06 -2.76173e-07 -2.10432e-21 -1.36799e-06 -1.5711e-21 0)
(2.59126e-06 -2.57324e-07 5.23543e-24 -1.32913e-06 4.31472e-23 0)
(2.54487e-06 -2.37531e-07 -2.56832e-23 -1.29396e-06 -1.28632e-22 0)
(2.50451e-06 -2.17242e-07 -1.64621e-21 -1.26293e-06 -1.60897e-21 0)
(2.4699e-06 -1.96724e-07 0 -1.23637e-06 0 0)
(2.44067e-06 -1.76044e-07 -1.49015e-21 -1.21453e-06 -4.84119e-22 0)
(2.41669e-06 -1.55099e-07 -7.00414e-24 -1.19768e-06 -2.97106e-23 0)
(2.39764e-06 -1.3344e-07 -1.92427e-21 -1.18604e-06 -9.3692e-22 0)
(2.38378e-06 -1.10565e-07 5.27485e-22 -1.18001e-06 5.5642e-22 0)
(2.37462e-06 -8.49287e-08 1.21351e-21 -1.17998e-06 5.55359e-22 0)
(2.3719e-06 -5.63359e-08 1.50757e-23 -1.18701e-06 -1.23669e-24 0)
(2.37352e-06 -1.84255e-08 2.29354e-20 -1.20151e-06 -8.12845e-23 -1.84524e-37)
(3.41406e-06 -1.28333e-07 9.41644e-22 -1.6987e-06 8.28516e-22 0)
(3.28995e-06 -1.47473e-07 -8.70593e-22 -1.66681e-06 -5.47335e-22 0)
(3.19457e-06 -1.8277e-07 -5.04644e-22 -1.6467e-06 -4.18886e-22 0)
(3.09717e-06 -1.9952e-07 8.3656e-22 -1.61393e-06 5.11406e-22 0)
(3.00696e-06 -2.11315e-07 -1.65304e-21 -1.57552e-06 -7.51174e-22 0)
(2.92137e-06 -2.16622e-07 -1.11488e-21 -1.53341e-06 -5.26609e-22 0)
(2.84243e-06 -2.1682e-07 -1.39061e-21 -1.48934e-06 -1.00912e-21 0)
(2.76964e-06 -2.12812e-07 1.67136e-22 -1.44518e-06 -1.16701e-22 0)
(2.70361e-06 -2.05399e-07 2.81059e-21 -1.40225e-06 1.79164e-21 0)
(2.64406e-06 -1.95427e-07 -9.674e-23 -1.36169e-06 -1.03987e-22 0)
(2.59102e-06 -1.83552e-07 1.50206e-21 -1.32433e-06 8.50795e-22 0)
(2.5442e-06 -1.70328e-07 -7.41759e-23 -1.29082e-06 -8.40056e-23 0)
(2.50346e-06 -1.56133e-07 5.49264e-36 -1.26172e-06 5.57703e-36 0)
(2.46856e-06 -1.41164e-07 -6.60282e-22 -1.23747e-06 -3.29019e-22 0)
(2.43946e-06 -1.25453e-07 6.45447e-22 -1.21855e-06 3.14332e-22 0)
(2.41594e-06 -1.08728e-07 -2.90208e-23 -1.20544e-06 -4.18878e-23 0)
(2.39856e-06 -9.06344e-08 1.02199e-22 -1.19887e-06 -2.72509e-22 0)
(2.38678e-06 -6.99745e-08 5.87029e-24 -1.19954e-06 1.94424e-23 0)
(2.38316e-06 -4.66118e-08 -5.95223e-24 -1.20916e-06 7.74816e-24 0)
(2.3851e-06 -1.51448e-08 2.48739e-20 -1.22871e-06 1.27293e-22 2.2167e-37)
(3.34653e-06 2.17445e-08 8.74256e-22 -1.63686e-06 6.91386e-22 0)
(3.26375e-06 -2.36727e-10 0 -1.64595e-06 0 0)
(3.17744e-06 -4.33067e-08 -6.82127e-22 -1.63049e-06 -6.01012e-22 0)
(3.0911e-06 -7.15652e-08 8.91531e-36 -1.60563e-06 7.21757e-36 0)
(3.00877e-06 -9.38216e-08 2.04293e-36 -1.57276e-06 1.48191e-36 0)
(2.92927e-06 -1.09593e-07 9.68921e-36 -1.53526e-06 7.20505e-36 0)
(2.85466e-06 -1.1979e-07 1.48643e-35 -1.49487e-06 1.20099e-35 0)
(2.78465e-06 -1.25328e-07 -5.97804e-22 -1.45351e-06 -5.60164e-22 0)
(2.72011e-06 -1.26929e-07 0 -1.41259e-06 0 0)
(2.661e-06 -1.25394e-07 5.71259e-22 -1.37335e-06 5.53484e-22 0)
(2.60758e-06 -1.21359e-07 -8.18742e-37 -1.33673e-06 -1.37396e-36 0)
(2.55979e-06 -1.15386e-07 -5.4953e-22 -1.30355e-06 -5.51281e-22 0)
(2.51768e-06 -1.07887e-07 5.4049e-22 -1.27448e-06 5.51589e-22 0)
(2.48116e-06 -9.91353e-08 7.7595e-36 -1.25012e-06 5.65199e-36 0)
(2.45041e-06 -8.92389e-08 -5.26049e-22 -1.2311e-06 -5.54716e-22 0)
(2.42532e-06 -7.81136e-08 -4.66279e-36 -1.21809e-06 -4.31059e-36 0)
(2.40669e-06 -6.55118e-08 5.16663e-22 -1.21204e-06 5.61283e-22 0)
(2.39408e-06 -5.06855e-08 5.13956e-22 -1.21387e-06 5.66182e-22 0)
(2.39064e-06 -3.36552e-08 -5.5465e-36 -1.22578e-06 -4.83711e-36 0)
(2.39344e-06 -1.06551e-08 2.55373e-20 -1.24893e-06 -4.9118e-36 -1.50647e-49)