/*--------------------------------*- C++ -*----------------------------------*\
  =========                 |
  \\      /  F ield         | OpenFOAM: The Open Source CFD Toolbox
   \\    /   O peration     | Website:  https://openfoam.org
    \\  /    A nd           | Version:  9
     \\/     M anipulation  |
\*---------------------------------------------------------------------------*/
FoamFile
{
    format      ascii;
    class       volScalarField;
    location    "5";
    object      epsilonEq;
}
// * * * * * * * * * * * * * * * * * * * * * * * * * * * * * * * * * * * * * //

dimensions      [0 0 0 0 0 0 0];

internalField   nonuniform List<scalar> 
1000
(
3.40756e-06
3.23535e-06
3.18608e-06
3.21054e-06
3.21394e-06
3.20729e-06
3.18506e-06
3.15117e-06
3.11332e-06
3.06603e-06
3.97247e-06
3.60704e-06
3.43026e-06
3.37575e-06
3.32694e-06
3.28523e-06
3.23674e-06
3.18532e-06
3.12708e-06
3.07566e-06
4.5247e-06
3.96515e-06
3.65135e-06
3.50686e-06
3.39724e-06
3.31396e-06
3.23473e-06
3.16123e-06
3.08395e-06
3.02214e-06
5.05339e-06
4.30525e-06
3.85e-06
3.60696e-06
3.42901e-06
3.29885e-06
3.18572e-06
3.08867e-06
2.99295e-06
2.92017e-06
5.54206e-06
4.61921e-06
4.02234e-06
3.67517e-06
3.42286e-06
3.24128e-06
3.09179e-06
2.96979e-06
2.85673e-06
2.77231e-06
5.99308e-06
4.90459e-06
4.16592e-06
3.71125e-06
3.38039e-06
3.14476e-06
2.95785e-06
2.81069e-06
2.68137e-06
2.58495e-06
6.38112e-06
5.14262e-06
4.26038e-06
3.69987e-06
3.29322e-06
3.00695e-06
2.78633e-06
2.61706e-06
2.47475e-06
2.36743e-06
6.74611e-06
5.32305e-06
4.28782e-06
3.6321e-06
3.16103e-06
2.83547e-06
2.59101e-06
2.4073e-06
2.25826e-06
2.1435e-06
6.9994e-06
5.34128e-06
4.1532e-06
3.44059e-06
2.95289e-06
2.62236e-06
2.37926e-06
2.19708e-06
2.05165e-06
1.93529e-06
7.21714e-06
5.03537e-06
3.83426e-06
3.16547e-06
2.74265e-06
2.44976e-06
2.23395e-06
2.06581e-06
1.92972e-06
1.81404e-06
1.0831e-08
2.56216e-08
1.22649e-07
2.554e-07
4.01003e-07
5.51333e-07
6.97376e-07
8.36569e-07
9.64398e-07
1.08286e-06
3.07942e-08
1.69573e-07
3.6371e-07
5.54723e-07
7.24217e-07
8.74845e-07
1.00632e-06
1.12395e-06
1.22493e-06
1.31982e-06
1.39084e-07
4.05502e-07
6.50304e-07
8.71953e-07
1.05682e-06
1.21051e-06
1.33545e-06
1.44031e-06
1.52245e-06
1.60018e-06
3.22339e-07
6.93996e-07
9.69946e-07
1.20373e-06
1.38991e-06
1.53927e-06
1.65536e-06
1.74836e-06
1.81502e-06
1.87915e-06
5.82829e-07
1.01915e-06
1.31315e-06
1.54878e-06
1.72629e-06
1.8638e-06
1.96619e-06
2.04457e-06
2.09535e-06
2.14565e-06
9.19414e-07
1.3653e-06
1.65959e-06
1.88849e-06
2.05107e-06
2.17201e-06
2.25747e-06
2.31912e-06
2.35368e-06
2.38941e-06
1.32516e-06
1.7266e-06
1.99985e-06
2.21274e-06
2.35536e-06
2.45654e-06
2.52299e-06
2.56651e-06
2.58473e-06
2.60506e-06
1.7903e-06
2.09808e-06
2.32575e-06
2.51126e-06
2.62877e-06
2.70759e-06
2.75404e-06
2.77884e-06
2.78213e-06
2.78618e-06
2.30184e-06
2.47619e-06
2.63354e-06
2.77894e-06
2.86542e-06
2.91922e-06
2.94435e-06
2.95042e-06
2.93951e-06
2.9295e-06
2.84601e-06
2.85684e-06
2.92056e-06
3.01198e-06
3.06034e-06
3.08525e-06
3.08748e-06
3.073e-06
3.0526e-06
3.02027e-06
1.18956e-06
1.28131e-06
1.3664e-06
1.44334e-06
1.51292e-06
1.57552e-06
1.63173e-06
1.68196e-06
1.72672e-06
1.76635e-06
1.80121e-06
1.83155e-06
1.85755e-06
1.87936e-06
1.89702e-06
1.91062e-06
1.92012e-06
1.92581e-06
1.92762e-06
1.92651e-06
1.39327e-06
1.44682e-06
1.50086e-06
1.55108e-06
1.59819e-06
1.64198e-06
1.68245e-06
1.71958e-06
1.7535e-06
1.78424e-06
1.81193e-06
1.83663e-06
1.85844e-06
1.8774e-06
1.89353e-06
1.90684e-06
1.91713e-06
1.92428e-06
1.92733e-06
1.92565e-06
1.64368e-06
1.66091e-06
1.68295e-06
1.70419e-06
1.7258e-06
1.74732e-06
1.76861e-06
1.78929e-06
1.80928e-06
1.82832e-06
1.84636e-06
1.86324e-06
1.87893e-06
1.89331e-06
1.90625e-06
1.91757e-06
1.92675e-06
1.93323e-06
1.93502e-06
1.93098e-06
1.89784e-06
1.88475e-06
1.87919e-06
1.87478e-06
1.87284e-06
1.87306e-06
1.87541e-06
1.87933e-06
1.88476e-06
1.89121e-06
1.89855e-06
1.90645e-06
1.91474e-06
1.92316e-06
1.93141e-06
1.93913e-06
1.94555e-06
1.94991e-06
1.94987e-06
1.94437e-06
2.14241e-06
2.10437e-06
2.07506e-06
2.0486e-06
2.02593e-06
2.00681e-06
1.99157e-06
1.97944e-06
1.97059e-06
1.96435e-06
1.96065e-06
1.95901e-06
1.95921e-06
1.96087e-06
1.96358e-06
1.96686e-06
1.96983e-06
1.97168e-06
1.97013e-06
1.96433e-06
2.36683e-06
2.3089e-06
2.25993e-06
2.21497e-06
2.17495e-06
2.13905e-06
2.10845e-06
2.0819e-06
2.05993e-06
2.04176e-06
2.02736e-06
2.01625e-06
2.00818e-06
2.00274e-06
1.99949e-06
1.99792e-06
1.99721e-06
1.9966e-06
1.9943e-06
1.98954e-06
2.56568e-06
2.49279e-06
2.4289e-06
2.3687e-06
2.31486e-06
2.26463e-06
2.22073e-06
2.18132e-06
2.14744e-06
2.11824e-06
2.0938e-06
2.07367e-06
2.05759e-06
2.04518e-06
2.03603e-06
2.02967e-06
2.02545e-06
2.02273e-06
2.02044e-06
2.01779e-06
2.73343e-06
2.65009e-06
2.57709e-06
2.50433e-06
2.44039e-06
2.37903e-06
2.32458e-06
2.2747e-06
2.23064e-06
2.19171e-06
2.15809e-06
2.12946e-06
2.10569e-06
2.08646e-06
2.07149e-06
2.06041e-06
2.05288e-06
2.04838e-06
2.04672e-06
2.04705e-06
2.86959e-06
2.77689e-06
2.704e-06
2.62247e-06
2.55079e-06
2.48037e-06
2.41659e-06
2.35771e-06
2.30479e-06
2.25749e-06
2.21591e-06
2.17989e-06
2.14931e-06
2.12399e-06
2.10379e-06
2.08847e-06
2.07805e-06
2.07216e-06
2.07159e-06
2.07537e-06
2.97101e-06
2.87181e-06
2.80371e-06
2.7229e-06
2.64811e-06
2.57381e-06
2.50351e-06
2.43744e-06
2.3766e-06
2.3213e-06
2.27185e-06
2.22832e-06
2.19077e-06
2.15914e-06
2.13348e-06
2.11371e-06
2.1002e-06
2.09283e-06
2.09336e-06
2.1008e-06
3.01038e-06
2.91745e-06
2.85015e-06
2.77411e-06
2.69943e-06
2.62519e-06
2.5536e-06
2.48533e-06
2.42153e-06
2.3627e-06
2.30937e-06
2.26179e-06
2.22021e-06
2.18476e-06
2.15568e-06
2.13308e-06
2.11771e-06
2.10959e-06
2.11131e-06
2.12182e-06
2.93317e-06
2.88546e-06
2.82379e-06
2.75774e-06
2.69029e-06
2.6222e-06
2.55553e-06
2.49102e-06
2.42992e-06
2.37287e-06
2.32055e-06
2.27337e-06
2.23175e-06
2.19597e-06
2.16648e-06
2.14357e-06
2.12823e-06
2.12068e-06
2.12409e-06
2.13728e-06
2.87104e-06
2.83483e-06
2.78762e-06
2.73104e-06
2.67233e-06
2.6108e-06
2.54954e-06
2.48915e-06
2.43119e-06
2.37637e-06
2.32555e-06
2.27929e-06
2.23813e-06
2.20253e-06
2.17307e-06
2.15022e-06
2.13518e-06
2.12822e-06
2.13286e-06
2.14785e-06
2.79701e-06
2.77528e-06
2.73988e-06
2.69254e-06
2.64216e-06
2.58732e-06
2.53181e-06
2.47612e-06
2.42204e-06
2.3703e-06
2.32192e-06
2.27752e-06
2.23777e-06
2.20321e-06
2.17454e-06
2.15237e-06
2.13789e-06
2.13171e-06
2.1376e-06
2.15358e-06
2.71271e-06
2.70239e-06
2.67814e-06
2.64048e-06
2.59898e-06
2.55166e-06
2.50274e-06
2.45262e-06
2.40326e-06
2.35548e-06
2.31038e-06
2.26867e-06
2.2311e-06
2.19832e-06
2.17098e-06
2.15001e-06
2.13603e-06
2.13146e-06
2.13442e-06
2.15408e-06
2.62299e-06
2.62284e-06
2.60861e-06
2.58005e-06
2.54693e-06
2.50704e-06
2.46479e-06
2.42054e-06
2.37636e-06
2.33309e-06
2.2919e-06
2.25355e-06
2.21885e-06
2.18845e-06
2.16317e-06
2.14365e-06
2.13126e-06
2.12668e-06
2.1328e-06
2.14819e-06
2.52943e-06
2.53766e-06
2.53219e-06
2.51213e-06
2.48696e-06
2.45446e-06
2.41897e-06
2.38087e-06
2.34223e-06
2.30393e-06
2.26717e-06
2.23272e-06
2.20143e-06
2.17395e-06
2.15109e-06
2.13346e-06
2.12236e-06
2.11804e-06
2.12369e-06
2.13814e-06
2.43393e-06
2.44912e-06
2.45127e-06
2.4389e-06
2.42104e-06
2.39559e-06
2.36672e-06
2.33481e-06
2.3019e-06
2.26886e-06
2.23689e-06
2.20678e-06
2.17934e-06
2.15522e-06
2.13516e-06
2.1197e-06
2.10997e-06
2.10625e-06
2.11119e-06
2.12367e-06
2.33735e-06
2.35805e-06
2.36667e-06
2.36116e-06
2.35002e-06
2.33128e-06
2.30885e-06
2.28313e-06
2.25608e-06
2.22854e-06
2.20167e-06
2.17624e-06
2.15304e-06
2.13264e-06
2.11574e-06
2.10274e-06
2.09458e-06
2.09139e-06
2.09538e-06
2.10551e-06
2.24011e-06
2.26512e-06
2.27921e-06
2.27978e-06
2.27477e-06
2.26237e-06
2.24619e-06
2.22662e-06
2.20549e-06
2.18361e-06
2.16209e-06
2.14163e-06
2.12297e-06
2.10664e-06
2.09319e-06
2.08295e-06
2.07657e-06
2.07407e-06
2.07699e-06
2.08438e-06
2.14204e-06
2.17036e-06
2.18905e-06
2.19505e-06
2.19571e-06
2.18936e-06
2.17928e-06
2.16584e-06
2.15072e-06
2.13467e-06
2.11871e-06
2.10348e-06
2.08965e-06
2.07767e-06
2.06797e-06
2.06076e-06
2.05641e-06
2.05477e-06
2.05667e-06
2.06124e-06
2.04269e-06
2.07358e-06
2.09621e-06
2.10716e-06
2.11317e-06
2.1127e-06
2.10867e-06
2.10141e-06
2.09243e-06
2.08238e-06
2.07219e-06
2.06242e-06
2.05366e-06
2.04628e-06
2.04059e-06
2.03669e-06
2.03465e-06
2.03414e-06
2.03522e-06
2.03707e-06
1.94108e-06
1.97409e-06
2.00028e-06
2.01598e-06
2.02725e-06
2.03268e-06
2.03481e-06
2.03391e-06
2.03128e-06
2.02747e-06
2.02329e-06
2.01922e-06
2.01575e-06
2.01318e-06
2.01172e-06
2.01136e-06
2.01191e-06
2.01286e-06
2.01349e-06
2.01294e-06
1.83628e-06
1.87131e-06
1.90101e-06
1.92152e-06
1.93824e-06
1.9498e-06
1.95839e-06
1.96416e-06
1.96819e-06
1.97093e-06
1.97302e-06
1.97488e-06
1.97689e-06
1.97929e-06
1.9822e-06
1.98554e-06
1.98892e-06
1.99167e-06
1.99235e-06
1.98995e-06
1.72663e-06
1.76408e-06
1.79768e-06
1.82352e-06
1.84622e-06
1.8645e-06
1.88011e-06
1.89307e-06
1.90425e-06
1.91394e-06
1.92265e-06
1.93068e-06
1.93834e-06
1.94581e-06
1.95315e-06
1.96024e-06
1.96659e-06
1.97141e-06
1.9727e-06
1.9692e-06
1.61152e-06
1.6523e-06
1.69062e-06
1.72271e-06
1.75226e-06
1.77808e-06
1.80145e-06
1.82228e-06
1.84115e-06
1.85825e-06
1.8739e-06
1.88832e-06
1.90172e-06
1.91425e-06
1.92594e-06
1.93667e-06
1.94594e-06
1.95295e-06
1.95538e-06
1.95167e-06
1.48864e-06
1.53455e-06
1.57922e-06
1.61913e-06
1.65698e-06
1.69162e-06
1.72386e-06
1.75348e-06
1.7808e-06
1.80587e-06
1.82888e-06
1.84993e-06
1.86916e-06
1.88666e-06
1.90247e-06
1.91652e-06
1.92839e-06
1.93738e-06
1.94133e-06
1.93836e-06
1.36044e-06
1.41385e-06
1.4669e-06
1.51647e-06
1.56417e-06
1.60889e-06
1.651e-06
1.69015e-06
1.72647e-06
1.75987e-06
1.79041e-06
1.81812e-06
1.84306e-06
1.86528e-06
1.88482e-06
1.90163e-06
1.91549e-06
1.92591e-06
1.93127e-06
1.92969e-06
1.22433e-06
1.28925e-06
1.35401e-06
1.41603e-06
1.47581e-06
1.53234e-06
1.58565e-06
1.6353e-06
1.68129e-06
1.72345e-06
1.76178e-06
1.79626e-06
1.82688e-06
1.85363e-06
1.87647e-06
1.89537e-06
1.91016e-06
1.92073e-06
1.92635e-06
1.92622e-06
1.09614e-06
1.17585e-06
1.25459e-06
1.33034e-06
1.403e-06
1.47158e-06
1.53597e-06
1.59574e-06
1.65084e-06
1.70112e-06
1.74658e-06
1.78718e-06
1.82287e-06
1.8536e-06
1.87921e-06
1.89958e-06
1.9144e-06
1.92381e-06
1.92753e-06
1.92693e-06
1.71633e-06
1.83276e-06
2.03078e-06
2.24856e-06
2.46508e-06
2.65558e-06
2.80979e-06
2.92039e-06
2.98899e-06
3.00322e-06
1.62573e-06
1.73429e-06
1.91706e-06
2.12292e-06
2.33474e-06
2.52906e-06
2.69539e-06
2.82309e-06
2.91176e-06
2.94658e-06
1.54458e-06
1.6481e-06
1.81818e-06
2.01102e-06
2.21284e-06
2.40204e-06
2.56982e-06
2.70725e-06
2.81453e-06
2.88069e-06
1.47034e-06
1.57049e-06
1.73005e-06
1.91135e-06
2.10385e-06
2.28754e-06
2.45379e-06
2.59414e-06
2.70653e-06
2.79173e-06
1.40069e-06
1.49853e-06
1.64916e-06
1.81958e-06
2.00214e-06
2.17896e-06
2.34214e-06
2.485e-06
2.60097e-06
2.69707e-06
1.3353e-06
1.43168e-06
1.57496e-06
1.73574e-06
1.9087e-06
2.07774e-06
2.23531e-06
2.37694e-06
2.49295e-06
2.59613e-06
1.27296e-06
1.36834e-06
1.5054e-06
1.65758e-06
1.82153e-06
1.98294e-06
2.13454e-06
2.27378e-06
2.3881e-06
2.49356e-06
1.21346e-06
1.30805e-06
1.43974e-06
1.58418e-06
1.73956e-06
1.89315e-06
2.03802e-06
2.17337e-06
2.28516e-06
2.39072e-06
1.1564e-06
1.25018e-06
1.37707e-06
1.51447e-06
1.66184e-06
1.80781e-06
1.94589e-06
2.07645e-06
2.18493e-06
2.28865e-06
1.10178e-06
1.19448e-06
1.31679e-06
1.44751e-06
1.58717e-06
1.72551e-06
1.85667e-06
1.9818e-06
2.08662e-06
2.18751e-06
1.04973e-06
1.14086e-06
1.25847e-06
1.38258e-06
1.51464e-06
1.64533e-06
1.76951e-06
1.88872e-06
1.98953e-06
2.08692e-06
1.00066e-06
1.08943e-06
1.20182e-06
1.31897e-06
1.4432e-06
1.566e-06
1.68303e-06
1.79596e-06
1.89254e-06
1.98609e-06
9.55409e-07
1.04056e-06
1.14658e-06
1.25584e-06
1.37159e-06
1.48604e-06
1.59565e-06
1.70202e-06
1.79417e-06
1.88375e-06
9.15213e-07
9.9486e-07
1.09263e-06
1.19251e-06
1.29869e-06
1.40404e-06
1.50583e-06
1.60536e-06
1.69298e-06
1.77861e-06
8.82454e-07
9.53287e-07
1.03927e-06
1.1271e-06
1.22194e-06
1.31724e-06
1.41077e-06
1.50336e-06
1.58656e-06
1.66854e-06
8.59949e-07
9.16294e-07
9.85746e-07
1.05845e-06
1.13987e-06
1.22405e-06
1.30888e-06
1.39455e-06
1.47364e-06
1.55248e-06
8.53969e-07
8.84813e-07
9.28002e-07
9.80223e-07
1.04573e-06
1.11805e-06
1.19448e-06
1.27403e-06
1.35017e-06
1.4272e-06
8.65675e-07
8.52895e-07
8.6158e-07
8.9039e-07
9.38715e-07
9.99192e-07
1.06808e-06
1.14287e-06
1.2177e-06
1.29463e-06
9.10785e-07
8.12718e-07
7.66179e-07
7.66302e-07
7.99413e-07
8.51744e-07
9.1738e-07
9.91723e-07
1.06943e-06
1.15016e-06
9.30296e-07
7.13017e-07
6.35235e-07
6.12895e-07
6.3847e-07
6.88413e-07
7.56473e-07
8.35794e-07
9.21208e-07
1.0101e-06
)
;

boundaryField
{
    left
    {
        type            calculated;
        value           nonuniform List<scalar> 
30
(
1.69653e-06
1.60699e-06
1.52685e-06
1.4535e-06
1.38481e-06
1.32047e-06
1.25938e-06
1.20139e-06
1.14618e-06
1.09383e-06
1.04457e-06
9.98907e-07
9.57762e-07
9.22502e-07
8.95628e-07
8.80823e-07
8.85569e-07
9.18925e-07
1.01215e-06
1.15753e-06
7.68456e-06
4.9295e-06
3.71046e-06
3.08398e-06
2.69391e-06
2.4171e-06
2.20961e-06
2.04483e-06
1.91031e-06
1.79419e-06
)
;
    }
    right
    {
        type            calculated;
        value           nonuniform List<scalar> 
30
(
1.92619e-06
1.92565e-06
1.93081e-06
1.9441e-06
1.964e-06
1.98923e-06
2.01755e-06
2.04696e-06
2.07543e-06
2.10109e-06
2.12219e-06
2.1379e-06
2.14855e-06
2.15431e-06
2.15427e-06
2.14882e-06
2.1388e-06
2.12422e-06
2.10592e-06
2.08465e-06
2.06135e-06
2.03705e-06
2.01282e-06
1.98975e-06
1.96898e-06
1.95148e-06
1.93825e-06
1.92967e-06
1.9263e-06
1.92656e-06
)
;
    }
    down
    {
        type            calculated;
        value           nonuniform List<scalar> 
30
(
7.30957e-09
9.76416e-09
9.03357e-08
2.1789e-07
3.6487e-07
5.18564e-07
6.68739e-07
8.11938e-07
9.43315e-07
1.06504e-06
1.17463e-06
1.27014e-06
1.35787e-06
1.43676e-06
1.50793e-06
1.57172e-06
1.6289e-06
1.67987e-06
1.72523e-06
1.76533e-06
1.80056e-06
1.83117e-06
1.85738e-06
1.87933e-06
1.89706e-06
1.91068e-06
1.92014e-06
1.92579e-06
1.9276e-06
1.92698e-06
)
;
    }
    up
    {
        type            calculated;
        value           nonuniform List<scalar> 
30
(
9.17306e-07
7.05058e-07
6.31083e-07
6.08168e-07
6.32954e-07
6.82098e-07
7.49665e-07
8.28838e-07
9.14182e-07
1.00344e-06
1.08977e-06
1.17013e-06
1.24965e-06
1.32604e-06
1.39937e-06
1.46854e-06
1.53348e-06
1.59373e-06
1.64926e-06
1.69992e-06
1.74571e-06
1.78659e-06
1.82252e-06
1.85344e-06
1.87918e-06
1.89962e-06
1.91446e-06
1.92383e-06
1.92749e-06
1.92722e-06
)
;
    }
    hole
    {
        type            calculated;
        value           nonuniform List<scalar> 
20
(
3.43108e-06
4.02549e-06
4.60654e-06
5.16262e-06
5.67623e-06
6.15052e-06
6.55964e-06
6.95439e-06
7.25782e-06
7.61182e-06
4.00012e-09
4.16247e-09
6.68362e-08
2.29385e-07
4.83084e-07
8.25689e-07
1.2459e-06
1.73188e-06
2.26842e-06
2.84036e-06
)
;
    }
    frontAndBack
    {
        type            empty;
    }
}


// ************************************************************************* //
