/*--------------------------------*- C++ -*----------------------------------*\
  =========                 |
  \\      /  F ield         | OpenFOAM: The Open Source CFD Toolbox
   \\    /   O peration     | Website:  https://openfoam.org
    \\  /    A nd           | Version:  9
     \\/     M anipulation  |
\*---------------------------------------------------------------------------*/
FoamFile
{
    format      ascii;
    class       pointVectorField;
    location    "5";
    object      pointD;
}
// * * * * * * * * * * * * * * * * * * * * * * * * * * * * * * * * * * * * * //

dimensions      [0 1 0 0 0 0 0];

internalField   nonuniform List<vector> 
2142
(
(3.70547e-06 1.08688e-06 -3.54514e-20)
(3.43454e-06 1.25827e-06 0)
(3.24519e-06 1.38054e-06 0)
(3.10742e-06 1.47992e-06 0)
(3.0083e-06 1.56137e-06 0)
(2.93802e-06 1.63154e-06 0)
(2.88954e-06 1.69325e-06 0)
(2.85793e-06 1.74905e-06 0)
(2.83935e-06 1.80043e-06 0)
(2.83102e-06 1.84843e-06 0)
(2.83281e-06 1.90054e-06 0)
(3.38581e-06 9.9718e-07 -4.15892e-20)
(3.09902e-06 1.13226e-06 0)
(2.90024e-06 1.22746e-06 0)
(2.75647e-06 1.30552e-06 0)
(2.65331e-06 1.36937e-06 0)
(2.58003e-06 1.42461e-06 0)
(2.52903e-06 1.47325e-06 0)
(2.49506e-06 1.51741e-06 0)
(2.47396e-06 1.55808e-06 0)
(2.46287e-06 1.59651e-06 0)
(2.41379e-06 1.59846e-06 0)
(3.05317e-06 9.08974e-07 -4.61736e-20)
(2.75857e-06 1.00363e-06 0)
(2.55564e-06 1.06966e-06 0)
(2.40971e-06 1.12542e-06 0)
(2.30539e-06 1.17137e-06 0)
(2.23133e-06 1.21182e-06 0)
(2.17954e-06 1.24773e-06 0)
(2.14453e-06 1.28067e-06 0)
(2.12201e-06 1.31107e-06 0)
(2.10888e-06 1.34013e-06 0)
(2.06491e-06 1.33718e-06 0)
(2.70889e-06 8.23046e-07 -4.852e-20)
(2.41519e-06 8.74922e-07 0)
(2.21387e-06 9.10793e-07 0)
(2.06997e-06 9.44031e-07 0)
(1.96766e-06 9.7238e-07 0)
(1.89528e-06 9.98681e-07 0)
(1.84464e-06 1.0227e-06 0)
(1.81013e-06 1.04537e-06 0)
(1.78749e-06 1.06652e-06 0)
(1.77358e-06 1.08708e-06 0)
(1.73559e-06 1.08083e-06 0)
(2.35417e-06 7.39866e-07 -4.6695e-20)
(2.07033e-06 7.4857e-07 0)
(1.8766e-06 7.54487e-07 0)
(1.7392e-06 7.65846e-07 0)
(1.64233e-06 7.77578e-07 0)
(1.57425e-06 7.90901e-07 0)
(1.5268e-06 8.04308e-07 0)
(1.49441e-06 8.17983e-07 0)
(1.47297e-06 8.31181e-07 0)
(1.45938e-06 8.44422e-07 0)
(1.42767e-06 8.36322e-07 0)
(1.99068e-06 6.59401e-07 -4.06949e-20)
(1.72507e-06 6.26488e-07 0)
(1.54495e-06 6.03981e-07 0)
(1.41874e-06 5.95197e-07 0)
(1.3309e-06 5.92147e-07 0)
(1.26984e-06 5.94353e-07 0)
(1.22764e-06 5.98955e-07 0)
(1.19892e-06 6.0535e-07 0)
(1.17987e-06 6.1221e-07 0)
(1.16755e-06 6.19617e-07 0)
(1.14208e-06 6.11089e-07 0)
(1.61951e-06 5.80759e-07 -3.24323e-20)
(1.37949e-06 5.09757e-07 0)
(1.21914e-06 4.61852e-07 0)
(1.10904e-06 4.36046e-07 0)
(1.03401e-06 4.2115e-07 0)
(9.82727e-07 4.14914e-07 0)
(9.47728e-07 4.13086e-07 0)
(9.2409e-07 4.14298e-07 0)
(9.08425e-07 4.16714e-07 0)
(8.98131e-07 4.20002e-07 0)
(8.78662e-07 4.1237e-07 0)
(1.24384e-06 5.01597e-07 -2.25917e-20)
(1.03403e-06 3.97892e-07 0)
(8.99669e-07 3.29739e-07 0)
(8.1088e-07 2.9207e-07 0)
(7.52331e-07 2.69724e-07 0)
(7.13274e-07 2.58664e-07 0)
(6.87064e-07 2.53337e-07 0)
(6.6953e-07 2.51766e-07 0)
(6.57924e-07 2.51781e-07 0)
(6.50158e-07 2.52753e-07 0)
(6.36266e-07 2.47095e-07 0)
(8.65666e-07 4.14839e-07 -1.19406e-20)
(6.8706e-07 2.86759e-07 0)
(5.86527e-07 2.07594e-07 0)
(5.24498e-07 1.6656e-07 0)
(4.85652e-07 1.43199e-07 0)
(4.60621e-07 1.31864e-07 0)
(4.44123e-07 1.26275e-07 0)
(4.33177e-07 1.24268e-07 0)
(4.25886e-07 1.23713e-07 0)
(4.20863e-07 1.23925e-07 0)
(4.12014e-07 1.20813e-07 0)
(5.08801e-07 3.05376e-07 -1.22833e-21)
(3.41524e-07 1.68853e-07 0)
(2.84396e-07 9.87616e-08 0)
(2.53805e-07 6.73034e-08 0)
(2.35861e-07 5.1189e-08 0)
(2.24655e-07 4.41674e-08 0)
(2.1729e-07 4.10416e-08 0)
(2.12383e-07 4.01693e-08 0)
(2.09034e-07 4.00959e-08 0)
(2.06614e-07 4.03805e-08 0)
(2.02259e-07 3.94693e-08 0)
(1.71145e-07 1.21388e-07 2.02478e-21)
(0 0 0)
(0 0 0)
(0 0 0)
(0 0 0)
(0 0 0)
(0 0 0)
(0 0 0)
(0 0 0)
(0 0 0)
(0 0 0)
(3.70547e-06 1.08688e-06 -3.54514e-20)
(3.43454e-06 1.25827e-06 0)
(3.24519e-06 1.38054e-06 0)
(3.10742e-06 1.47992e-06 0)
(3.0083e-06 1.56137e-06 0)
(2.93802e-06 1.63154e-06 0)
(2.88954e-06 1.69325e-06 0)
(2.85793e-06 1.74905e-06 0)
(2.83935e-06 1.80043e-06 0)
(2.83102e-06 1.84843e-06 0)
(2.83281e-06 1.90054e-06 0)
(3.38581e-06 9.9718e-07 -4.15892e-20)
(3.09902e-06 1.13226e-06 0)
(2.90024e-06 1.22746e-06 0)
(2.75647e-06 1.30552e-06 0)
(2.65331e-06 1.36937e-06 0)
(2.58003e-06 1.42461e-06 0)
(2.52903e-06 1.47325e-06 0)
(2.49506e-06 1.51741e-06 0)
(2.47396e-06 1.55808e-06 0)
(2.46287e-06 1.59651e-06 0)
(2.41379e-06 1.59846e-06 0)
(3.05317e-06 9.08974e-07 -4.61736e-20)
(2.75857e-06 1.00363e-06 0)
(2.55564e-06 1.06966e-06 0)
(2.40971e-06 1.12542e-06 0)
(2.30539e-06 1.17137e-06 0)
(2.23133e-06 1.21182e-06 0)
(2.17954e-06 1.24773e-06 0)
(2.14453e-06 1.28067e-06 0)
(2.12201e-06 1.31107e-06 0)
(2.10888e-06 1.34013e-06 0)
(2.06491e-06 1.33718e-06 0)
(2.70889e-06 8.23046e-07 -4.852e-20)
(2.41519e-06 8.74922e-07 0)
(2.21387e-06 9.10793e-07 0)
(2.06997e-06 9.44031e-07 0)
(1.96766e-06 9.7238e-07 0)
(1.89528e-06 9.98681e-07 0)
(1.84464e-06 1.0227e-06 0)
(1.81013e-06 1.04537e-06 0)
(1.78749e-06 1.06652e-06 0)
(1.77358e-06 1.08708e-06 0)
(1.73559e-06 1.08083e-06 0)
(2.35417e-06 7.39866e-07 -4.6695e-20)
(2.07033e-06 7.4857e-07 0)
(1.8766e-06 7.54487e-07 0)
(1.7392e-06 7.65846e-07 0)
(1.64233e-06 7.77578e-07 0)
(1.57425e-06 7.90901e-07 0)
(1.5268e-06 8.04308e-07 0)
(1.49441e-06 8.17983e-07 0)
(1.47297e-06 8.31181e-07 0)
(1.45938e-06 8.44422e-07 0)
(1.42767e-06 8.36322e-07 0)
(1.99068e-06 6.59401e-07 -4.06949e-20)
(1.72507e-06 6.26488e-07 0)
(1.54495e-06 6.03981e-07 0)
(1.41874e-06 5.95197e-07 0)
(1.3309e-06 5.92147e-07 0)
(1.26984e-06 5.94353e-07 0)
(1.22764e-06 5.98955e-07 0)
(1.19892e-06 6.0535e-07 0)
(1.17987e-06 6.1221e-07 0)
(1.16755e-06 6.19617e-07 0)
(1.14208e-06 6.11089e-07 0)
(1.61951e-06 5.80759e-07 -3.24323e-20)
(1.37949e-06 5.09757e-07 0)
(1.21914e-06 4.61852e-07 0)
(1.10904e-06 4.36046e-07 0)
(1.03401e-06 4.2115e-07 0)
(9.82727e-07 4.14914e-07 0)
(9.47728e-07 4.13086e-07 0)
(9.2409e-07 4.14298e-07 0)
(9.08425e-07 4.16714e-07 0)
(8.98131e-07 4.20002e-07 0)
(8.78662e-07 4.1237e-07 0)
(1.24384e-06 5.01597e-07 -2.25917e-20)
(1.03403e-06 3.97892e-07 0)
(8.99669e-07 3.29739e-07 0)
(8.1088e-07 2.9207e-07 0)
(7.52331e-07 2.69724e-07 0)
(7.13274e-07 2.58664e-07 0)
(6.87064e-07 2.53337e-07 0)
(6.6953e-07 2.51766e-07 0)
(6.57924e-07 2.51781e-07 0)
(6.50158e-07 2.52753e-07 0)
(6.36266e-07 2.47095e-07 0)
(8.65666e-07 4.14839e-07 -1.19406e-20)
(6.8706e-07 2.86759e-07 0)
(5.86527e-07 2.07594e-07 0)
(5.24498e-07 1.6656e-07 0)
(4.85652e-07 1.43199e-07 0)
(4.60621e-07 1.31864e-07 0)
(4.44123e-07 1.26275e-07 0)
(4.33177e-07 1.24268e-07 0)
(4.25886e-07 1.23713e-07 0)
(4.20863e-07 1.23925e-07 0)
(4.12014e-07 1.20813e-07 0)
(5.08801e-07 3.05376e-07 -1.22833e-21)
(3.41524e-07 1.68853e-07 0)
(2.84396e-07 9.87616e-08 0)
(2.53805e-07 6.73034e-08 0)
(2.35861e-07 5.1189e-08 0)
(2.24655e-07 4.41674e-08 0)
(2.1729e-07 4.10416e-08 0)
(2.12383e-07 4.01693e-08 0)
(2.09034e-07 4.00959e-08 0)
(2.06614e-07 4.03805e-08 0)
(2.02259e-07 3.94693e-08 0)
(1.71145e-07 1.21388e-07 2.02478e-21)
(0 0 0)
(0 0 0)
(0 0 0)
(0 0 0)
(0 0 0)
(0 0 0)
(0 0 0)
(0 0 0)
(0 0 0)
(0 0 0)
(6.0121e-06 1.7837e-06 -2.65187e-21)
(6.05503e-06 1.95628e-06 -1.53481e-21)
(6.04983e-06 2.17821e-06 -1.67527e-21)
(6.04635e-06 2.38412e-06 -1.81425e-21)
(6.04999e-06 2.57366e-06 -1.95072e-21)
(6.06278e-06 2.74875e-06 -2.08499e-21)
(6.08547e-06 2.91164e-06 -2.21748e-21)
(6.11794e-06 3.06464e-06 -2.34861e-21)
(6.15983e-06 3.20967e-06 -2.47873e-21)
(6.21022e-06 3.34853e-06 -2.60819e-21)
(6.26859e-06 3.48195e-06 -2.70001e-21)
(5.87846e-06 1.71683e-06 -3.8999e-21)
(5.86019e-06 1.94854e-06 0)
(5.84494e-06 2.16906e-06 0)
(5.83683e-06 2.37193e-06 0)
(5.83791e-06 2.55722e-06 0)
(5.84885e-06 2.72719e-06 0)
(5.8696e-06 2.88434e-06 0)
(5.89967e-06 3.03118e-06 0)
(5.93843e-06 3.16976e-06 0)
(5.98502e-06 3.30204e-06 0)
(6.04227e-06 3.42962e-06 0)
(5.69658e-06 1.68852e-06 -4.01679e-21)
(5.65844e-06 1.92532e-06 0)
(5.62746e-06 2.1438e-06 0)
(5.60763e-06 2.34242e-06 0)
(5.59973e-06 2.52228e-06 0)
(5.60352e-06 2.6862e-06 0)
(5.61813e-06 2.8369e-06 0)
(5.6425e-06 2.97706e-06 0)
(5.6757e-06 3.1088e-06 0)
(5.71654e-06 3.2342e-06 0)
(5.77227e-06 3.35619e-06 0)
(5.50383e-06 1.6427e-06 -4.32381e-21)
(5.44165e-06 1.88724e-06 0)
(5.39192e-06 2.10292e-06 0)
(5.35719e-06 2.29571e-06 0)
(5.33737e-06 2.46839e-06 0)
(5.33134e-06 2.62471e-06 0)
(5.33751e-06 2.76771e-06 0)
(5.35429e-06 2.90016e-06 0)
(5.38039e-06 3.02427e-06 0)
(5.41426e-06 3.14213e-06 0)
(5.46839e-06 3.25869e-06 0)
(5.29676e-06 1.58359e-06 -5.27487e-21)
(5.20649e-06 1.83486e-06 0)
(5.13593e-06 2.04649e-06 0)
(5.08463e-06 2.23203e-06 0)
(5.05141e-06 2.39601e-06 0)
(5.03423e-06 2.5433e-06 0)
(5.03079e-06 2.6773e-06 0)
(5.039e-06 2.80093e-06 0)
(5.05722e-06 2.91644e-06 0)
(5.08351e-06 3.02595e-06 0)
(5.13621e-06 3.13708e-06 0)
(5.07343e-06 1.51404e-06 -7.3162e-21)
(4.95182e-06 1.76843e-06 0)
(4.85913e-06 1.97387e-06 0)
(4.79065e-06 2.15039e-06 0)
(4.74372e-06 2.30411e-06 0)
(4.71514e-06 2.441e-06 0)
(4.70191e-06 2.56477e-06 0)
(4.7014e-06 2.67853e-06 0)
(4.71164e-06 2.78453e-06 0)
(4.73033e-06 2.88486e-06 0)
(4.78201e-06 2.99063e-06 0)
(4.83308e-06 1.43662e-06 -1.07469e-20)
(4.67822e-06 1.68855e-06 0)
(4.56299e-06 1.88486e-06 0)
(4.47752e-06 2.05039e-06 0)
(4.41727e-06 2.19237e-06 0)
(4.37774e-06 2.31764e-06 0)
(4.35513e-06 2.43018e-06 0)
(4.34632e-06 2.53318e-06 0)
(4.34896e-06 2.62891e-06 0)
(4.36044e-06 2.71937e-06 0)
(4.41165e-06 2.8199e-06 0)
(4.5756e-06 1.35342e-06 -1.56223e-20)
(4.3873e-06 1.5961e-06 0)
(4.25006e-06 1.77968e-06 0)
(4.14849e-06 1.93201e-06 0)
(4.07591e-06 2.06078e-06 0)
(4.02638e-06 2.17339e-06 0)
(3.9953e-06 2.27388e-06 0)
(3.97898e-06 2.36544e-06 0)
(3.97476e-06 2.45031e-06 0)
(3.97977e-06 2.53035e-06 0)
(4.03108e-06 2.62583e-06 0)
(4.30135e-06 1.26634e-06 -2.17212e-20)
(4.08131e-06 1.49239e-06 0)
(3.92368e-06 1.65933e-06 0)
(3.80759e-06 1.79616e-06 0)
(3.72413e-06 1.91033e-06 0)
(3.66595e-06 2.0094e-06 0)
(3.62757e-06 2.09723e-06 0)
(3.60483e-06 2.17692e-06 0)
(3.5947e-06 2.25058e-06 0)
(3.59415e-06 2.31986e-06 0)
(3.6461e-06 2.41041e-06 0)
(4.01101e-06 1.17701e-06 -2.85619e-20)
(3.76283e-06 1.37909e-06 0)
(3.58748e-06 1.52549e-06 0)
(3.45913e-06 1.64458e-06 0)
(3.36668e-06 1.7429e-06 0)
(3.30148e-06 1.82774e-06 0)
(3.25723e-06 1.90256e-06 0)
(3.22933e-06 1.97021e-06 0)
(3.21437e-06 2.03256e-06 0)
(3.20938e-06 2.09084e-06 0)
(3.26224e-06 2.17643e-06 0)
(6.0121e-06 1.7837e-06 -2.65187e-21)
(6.05503e-06 1.95628e-06 -1.53481e-21)
(6.04983e-06 2.17821e-06 -1.67527e-21)
(6.04635e-06 2.38412e-06 -1.81425e-21)
(6.04999e-06 2.57366e-06 -1.95072e-21)
(6.06278e-06 2.74875e-06 -2.08499e-21)
(6.08547e-06 2.91164e-06 -2.21748e-21)
(6.11794e-06 3.06464e-06 -2.34861e-21)
(6.15983e-06 3.20967e-06 -2.47873e-21)
(6.21022e-06 3.34853e-06 -2.60819e-21)
(6.26859e-06 3.48195e-06 -2.70001e-21)
(5.87846e-06 1.71683e-06 -3.8999e-21)
(5.86019e-06 1.94854e-06 0)
(5.84494e-06 2.16906e-06 0)
(5.83683e-06 2.37193e-06 0)
(5.83791e-06 2.55722e-06 0)
(5.84885e-06 2.72719e-06 0)
(5.8696e-06 2.88434e-06 0)
(5.89967e-06 3.03118e-06 0)
(5.93843e-06 3.16976e-06 0)
(5.98502e-06 3.30204e-06 0)
(6.04227e-06 3.42962e-06 0)
(5.69658e-06 1.68852e-06 -4.01679e-21)
(5.65844e-06 1.92532e-06 0)
(5.62746e-06 2.1438e-06 0)
(5.60763e-06 2.34242e-06 0)
(5.59973e-06 2.52228e-06 0)
(5.60352e-06 2.6862e-06 0)
(5.61813e-06 2.8369e-06 0)
(5.6425e-06 2.97706e-06 0)
(5.6757e-06 3.1088e-06 0)
(5.71654e-06 3.2342e-06 0)
(5.77227e-06 3.35619e-06 0)
(5.50383e-06 1.6427e-06 -4.32381e-21)
(5.44165e-06 1.88724e-06 0)
(5.39192e-06 2.10292e-06 0)
(5.35719e-06 2.29571e-06 0)
(5.33737e-06 2.46839e-06 0)
(5.33134e-06 2.62471e-06 0)
(5.33751e-06 2.76771e-06 0)
(5.35429e-06 2.90016e-06 0)
(5.38039e-06 3.02427e-06 0)
(5.41426e-06 3.14213e-06 0)
(5.46839e-06 3.25869e-06 0)
(5.29676e-06 1.58359e-06 -5.27487e-21)
(5.20649e-06 1.83486e-06 0)
(5.13593e-06 2.04649e-06 0)
(5.08463e-06 2.23203e-06 0)
(5.05141e-06 2.39601e-06 0)
(5.03423e-06 2.5433e-06 0)
(5.03079e-06 2.6773e-06 0)
(5.039e-06 2.80093e-06 0)
(5.05722e-06 2.91644e-06 0)
(5.08351e-06 3.02595e-06 0)
(5.13621e-06 3.13708e-06 0)
(5.07343e-06 1.51404e-06 -7.3162e-21)
(4.95182e-06 1.76843e-06 0)
(4.85913e-06 1.97387e-06 0)
(4.79065e-06 2.15039e-06 0)
(4.74372e-06 2.30411e-06 0)
(4.71514e-06 2.441e-06 0)
(4.70191e-06 2.56477e-06 0)
(4.7014e-06 2.67853e-06 0)
(4.71164e-06 2.78453e-06 0)
(4.73033e-06 2.88486e-06 0)
(4.78201e-06 2.99063e-06 0)
(4.83308e-06 1.43662e-06 -1.07469e-20)
(4.67822e-06 1.68855e-06 0)
(4.56299e-06 1.88486e-06 0)
(4.47752e-06 2.05039e-06 0)
(4.41727e-06 2.19237e-06 0)
(4.37774e-06 2.31764e-06 0)
(4.35513e-06 2.43018e-06 0)
(4.34632e-06 2.53318e-06 0)
(4.34896e-06 2.62891e-06 0)
(4.36044e-06 2.71937e-06 0)
(4.41165e-06 2.8199e-06 0)
(4.5756e-06 1.35342e-06 -1.56223e-20)
(4.3873e-06 1.5961e-06 0)
(4.25006e-06 1.77968e-06 0)
(4.14849e-06 1.93201e-06 0)
(4.07591e-06 2.06078e-06 0)
(4.02638e-06 2.17339e-06 0)
(3.9953e-06 2.27388e-06 0)
(3.97898e-06 2.36544e-06 0)
(3.97476e-06 2.45031e-06 0)
(3.97977e-06 2.53035e-06 0)
(4.03108e-06 2.62583e-06 0)
(4.30135e-06 1.26634e-06 -2.17212e-20)
(4.08131e-06 1.49239e-06 0)
(3.92368e-06 1.65933e-06 0)
(3.80759e-06 1.79616e-06 0)
(3.72413e-06 1.91033e-06 0)
(3.66595e-06 2.0094e-06 0)
(3.62757e-06 2.09723e-06 0)
(3.60483e-06 2.17692e-06 0)
(3.5947e-06 2.25058e-06 0)
(3.59415e-06 2.31986e-06 0)
(3.6461e-06 2.41041e-06 0)
(4.01101e-06 1.17701e-06 -2.85619e-20)
(3.76283e-06 1.37909e-06 0)
(3.58748e-06 1.52549e-06 0)
(3.45913e-06 1.64458e-06 0)
(3.36668e-06 1.7429e-06 0)
(3.30148e-06 1.82774e-06 0)
(3.25723e-06 1.90256e-06 0)
(3.22933e-06 1.97021e-06 0)
(3.21437e-06 2.03256e-06 0)
(3.20938e-06 2.09084e-06 0)
(3.26224e-06 2.17643e-06 0)
(6.33496e-06 3.6116e-06 -2.71671e-21)
(6.40818e-06 3.73923e-06 -2.69596e-21)
(6.48708e-06 3.86493e-06 -2.67574e-21)
(6.57114e-06 3.98933e-06 -2.65605e-21)
(6.65979e-06 4.11293e-06 -2.63687e-21)
(6.75254e-06 4.23614e-06 -2.61817e-21)
(6.84895e-06 4.35931e-06 -2.59994e-21)
(6.9486e-06 4.48273e-06 -2.58215e-21)
(7.05112e-06 4.60666e-06 -2.56477e-21)
(7.15618e-06 4.7313e-06 -2.54778e-21)
(7.26345e-06 4.85683e-06 -2.53116e-21)
(7.37264e-06 4.98341e-06 -2.51489e-21)
(7.48346e-06 5.11115e-06 -2.49899e-21)
(7.59565e-06 5.24014e-06 -2.48344e-21)
(7.7089e-06 5.37045e-06 -2.46825e-21)
(7.82295e-06 5.50207e-06 -2.45344e-21)
(7.93747e-06 5.63495e-06 -2.43903e-21)
(8.05215e-06 5.76894e-06 -2.42507e-21)
(8.16659e-06 5.90372e-06 -2.41161e-21)
(8.20452e-06 5.98767e-06 -3.65063e-22)
(6.11307e-06 3.55536e-06 0)
(6.19249e-06 3.68027e-06 0)
(6.27653e-06 3.80353e-06 0)
(6.36474e-06 3.92579e-06 0)
(6.45673e-06 4.04753e-06 0)
(6.55214e-06 4.16914e-06 0)
(6.65062e-06 4.29097e-06 0)
(6.75186e-06 4.41327e-06 0)
(6.85557e-06 4.53629e-06 0)
(6.96148e-06 4.66023e-06 0)
(7.06933e-06 4.78524e-06 0)
(7.17889e-06 4.91148e-06 0)
(7.28992e-06 5.03904e-06 0)
(7.40221e-06 5.16804e-06 0)
(7.51554e-06 5.2985e-06 0)
(7.62969e-06 5.43044e-06 0)
(7.74446e-06 5.5638e-06 0)
(7.85964e-06 5.69842e-06 0)
(7.97501e-06 5.834e-06 0)
(8.08992e-06 5.9698e-06 1.68773e-21)
(5.84988e-06 3.47938e-06 0)
(5.9389e-06 3.60339e-06 0)
(6.03129e-06 3.72584e-06 0)
(6.12666e-06 3.84742e-06 0)
(6.22484e-06 3.96865e-06 0)
(6.32556e-06 4.08988e-06 0)
(6.42862e-06 4.21148e-06 0)
(6.5338e-06 4.3337e-06 0)
(6.64093e-06 4.45679e-06 0)
(6.7498e-06 4.58093e-06 0)
(6.86026e-06 4.70629e-06 0)
(6.97213e-06 4.83301e-06 0)
(7.08527e-06 4.9612e-06 0)
(7.19951e-06 5.09095e-06 0)
(7.3147e-06 5.22233e-06 0)
(7.4307e-06 5.35533e-06 0)
(7.54736e-06 5.48994e-06 0)
(7.6645e-06 5.62603e-06 0)
(7.78192e-06 5.76338e-06 0)
(7.89842e-06 5.90129e-06 1.71195e-21)
(5.55448e-06 3.38086e-06 0)
(5.6555e-06 3.50602e-06 0)
(5.75853e-06 3.6296e-06 0)
(5.86329e-06 3.75225e-06 0)
(5.96978e-06 3.87454e-06 0)
(6.07782e-06 3.99685e-06 0)
(6.18738e-06 4.11955e-06 0)
(6.29833e-06 4.24291e-06 0)
(6.4106e-06 4.36718e-06 0)
(6.52409e-06 4.49256e-06 0)
(6.63872e-06 4.61923e-06 0)
(6.7544e-06 4.74732e-06 0)
(6.87105e-06 4.87698e-06 0)
(6.98858e-06 5.00829e-06 0)
(7.10691e-06 5.14134e-06 0)
(7.22595e-06 5.27618e-06 0)
(7.34558e-06 5.41282e-06 0)
(7.46567e-06 5.55125e-06 0)
(7.58601e-06 5.69136e-06 0)
(7.70496e-06 5.83264e-06 1.77753e-21)
(5.23219e-06 3.25964e-06 0)
(5.34711e-06 3.38789e-06 0)
(5.46268e-06 3.51442e-06 0)
(5.57862e-06 3.63983e-06 0)
(5.69514e-06 3.76475e-06 0)
(5.81218e-06 3.88955e-06 0)
(5.92982e-06 4.01467e-06 0)
(6.04805e-06 4.14037e-06 0)
(6.1669e-06 4.26694e-06 0)
(6.28637e-06 4.39461e-06 0)
(6.40645e-06 4.52355e-06 0)
(6.52716e-06 4.65394e-06 0)
(6.64846e-06 4.78592e-06 0)
(6.77036e-06 4.91961e-06 0)
(6.89282e-06 5.05513e-06 0)
(7.01581e-06 5.19258e-06 0)
(7.13926e-06 5.33204e-06 0)
(7.26308e-06 5.4736e-06 0)
(7.38709e-06 5.6173e-06 0)
(7.50929e-06 5.76281e-06 1.88706e-21)
(4.889e-06 3.11507e-06 0)
(5.01924e-06 3.24841e-06 0)
(5.14875e-06 3.3798e-06 0)
(5.27722e-06 3.50969e-06 0)
(5.40511e-06 3.63885e-06 0)
(5.5324e-06 3.76763e-06 0)
(5.65935e-06 3.89652e-06 0)
(5.78603e-06 4.02582e-06 0)
(5.91257e-06 4.15587e-06 0)
(6.03906e-06 4.28689e-06 0)
(6.1656e-06 4.41911e-06 0)
(6.29225e-06 4.55273e-06 0)
(6.41909e-06 4.6879e-06 0)
(6.54616e-06 4.82481e-06 0)
(6.6735e-06 4.96358e-06 0)
(6.80113e-06 5.10438e-06 0)
(6.92904e-06 5.24737e-06 0)
(7.05719e-06 5.39275e-06 0)
(7.18544e-06 5.5407e-06 0)
(7.31164e-06 5.69106e-06 2.03709e-21)
(4.53043e-06 2.94766e-06 0)
(4.67693e-06 3.08801e-06 0)
(4.82134e-06 3.22609e-06 0)
(4.9633e-06 3.36214e-06 0)
(5.10351e-06 3.49708e-06 0)
(5.24201e-06 3.63127e-06 0)
(5.37917e-06 3.76527e-06 0)
(5.51517e-06 3.89941e-06 0)
(5.65024e-06 4.03407e-06 0)
(5.78455e-06 4.16952e-06 0)
(5.91829e-06 4.30602e-06 0)
(6.0516e-06 4.44379e-06 0)
(6.18462e-06 4.58304e-06 0)
(6.31747e-06 4.72396e-06 0)
(6.45024e-06 4.86674e-06 0)
(6.58302e-06 5.0116e-06 0)
(6.71587e-06 5.15876e-06 0)
(6.84879e-06 5.30853e-06 0)
(6.98175e-06 5.46121e-06 0)
(7.11258e-06 5.6168e-06 2.2222e-21)
(4.16198e-06 2.75837e-06 0)
(4.32515e-06 2.9075e-06 0)
(4.48498e-06 3.05397e-06 0)
(4.64098e-06 3.19778e-06 0)
(4.79409e-06 3.33999e-06 0)
(4.9444e-06 3.481e-06 0)
(5.09241e-06 3.62139e-06 0)
(5.23834e-06 3.76158e-06 0)
(5.38254e-06 3.90197e-06 0)
(5.52526e-06 4.04289e-06 0)
(5.66674e-06 4.18464e-06 0)
(5.80721e-06 4.32748e-06 0)
(5.94687e-06 4.47164e-06 0)
(6.08592e-06 4.61735e-06 0)
(6.22451e-06 4.76486e-06 0)
(6.3628e-06 4.91441e-06 0)
(6.5009e-06 5.06629e-06 0)
(6.63891e-06 5.22092e-06 0)
(6.77689e-06 5.37866e-06 0)
(6.9129e-06 5.53971e-06 2.43534e-21)
(3.78907e-06 2.54895e-06 0)
(3.96874e-06 2.70846e-06 0)
(4.14404e-06 2.86479e-06 0)
(4.31425e-06 3.01779e-06 0)
(4.48051e-06 3.16856e-06 0)
(4.64293e-06 3.31762e-06 0)
(4.8021e-06 3.46558e-06 0)
(4.95833e-06 3.61293e-06 0)
(5.11201e-06 3.76011e-06 0)
(5.26348e-06 3.9075e-06 0)
(5.41305e-06 4.05543e-06 0)
(5.561e-06 4.20421e-06 0)
(5.70761e-06 4.3541e-06 0)
(5.85313e-06 4.50537e-06 0)
(5.99778e-06 4.65827e-06 0)
(6.14178e-06 4.81312e-06 0)
(6.28534e-06 4.97023e-06 0)
(6.42862e-06 5.13007e-06 0)
(6.57181e-06 5.29309e-06 0)
(6.71343e-06 5.45968e-06 2.66882e-21)
(3.41657e-06 2.32194e-06 0)
(3.61187e-06 2.49297e-06 0)
(3.80205e-06 2.66019e-06 0)
(3.98634e-06 2.82366e-06 0)
(4.16571e-06 2.98419e-06 0)
(4.34038e-06 3.14244e-06 0)
(4.51088e-06 3.29904e-06 0)
(4.67762e-06 3.45455e-06 0)
(4.841e-06 3.60947e-06 0)
(5.00143e-06 3.76423e-06 0)
(5.15928e-06 3.91919e-06 0)
(5.31489e-06 4.07471e-06 0)
(5.4686e-06 4.23107e-06 0)
(5.62072e-06 4.38857e-06 0)
(5.77154e-06 4.5475e-06 0)
(5.92135e-06 4.70816e-06 0)
(6.07043e-06 4.87093e-06 0)
(6.21903e-06 5.03628e-06 0)
(6.36749e-06 5.20469e-06 0)
(6.51505e-06 5.37681e-06 2.91398e-21)
(3.08589e-06 2.11539e-06 0)
(3.29285e-06 2.29635e-06 0)
(3.49414e-06 2.47245e-06 0)
(3.68934e-06 2.64478e-06 0)
(3.87905e-06 2.8138e-06 0)
(4.06354e-06 2.98019e-06 0)
(4.24324e-06 3.14455e-06 0)
(4.41856e-06 3.30745e-06 0)
(4.58993e-06 3.46938e-06 0)
(4.75774e-06 3.63081e-06 0)
(4.9224e-06 3.79212e-06 0)
(5.0843e-06 3.95367e-06 0)
(5.2438e-06 4.11576e-06 0)
(5.40128e-06 4.2787e-06 0)
(5.55706e-06 4.44276e-06 0)
(5.71149e-06 4.60827e-06 0)
(5.86494e-06 4.77556e-06 0)
(6.01772e-06 4.94511e-06 0)
(6.17031e-06 5.11737e-06 0)
(6.32271e-06 5.29323e-06 3.12841e-21)
(6.33496e-06 3.6116e-06 -2.71671e-21)
(6.40818e-06 3.73923e-06 -2.69596e-21)
(6.48708e-06 3.86493e-06 -2.67574e-21)
(6.57114e-06 3.98933e-06 -2.65605e-21)
(6.65979e-06 4.11293e-06 -2.63687e-21)
(6.75254e-06 4.23614e-06 -2.61817e-21)
(6.84895e-06 4.35931e-06 -2.59994e-21)
(6.9486e-06 4.48273e-06 -2.58215e-21)
(7.05112e-06 4.60666e-06 -2.56477e-21)
(7.15618e-06 4.7313e-06 -2.54778e-21)
(7.26345e-06 4.85683e-06 -2.53116e-21)
(7.37264e-06 4.98341e-06 -2.51489e-21)
(7.48346e-06 5.11115e-06 -2.49899e-21)
(7.59565e-06 5.24014e-06 -2.48344e-21)
(7.7089e-06 5.37045e-06 -2.46825e-21)
(7.82295e-06 5.50207e-06 -2.45344e-21)
(7.93747e-06 5.63495e-06 -2.43903e-21)
(8.05215e-06 5.76894e-06 -2.42507e-21)
(8.16659e-06 5.90372e-06 -2.41161e-21)
(8.20452e-06 5.98767e-06 -3.65063e-22)
(6.11307e-06 3.55536e-06 0)
(6.19249e-06 3.68027e-06 0)
(6.27653e-06 3.80353e-06 0)
(6.36474e-06 3.92579e-06 0)
(6.45673e-06 4.04753e-06 0)
(6.55214e-06 4.16914e-06 0)
(6.65062e-06 4.29097e-06 0)
(6.75186e-06 4.41327e-06 0)
(6.85557e-06 4.53629e-06 0)
(6.96148e-06 4.66023e-06 0)
(7.06933e-06 4.78524e-06 0)
(7.17889e-06 4.91148e-06 0)
(7.28992e-06 5.03904e-06 0)
(7.40221e-06 5.16804e-06 0)
(7.51554e-06 5.2985e-06 0)
(7.62969e-06 5.43044e-06 0)
(7.74446e-06 5.5638e-06 0)
(7.85964e-06 5.69842e-06 0)
(7.97501e-06 5.834e-06 0)
(8.08992e-06 5.9698e-06 1.68773e-21)
(5.84988e-06 3.47938e-06 0)
(5.9389e-06 3.60339e-06 0)
(6.03129e-06 3.72584e-06 0)
(6.12666e-06 3.84742e-06 0)
(6.22484e-06 3.96865e-06 0)
(6.32556e-06 4.08988e-06 0)
(6.42862e-06 4.21148e-06 0)
(6.5338e-06 4.3337e-06 0)
(6.64093e-06 4.45679e-06 0)
(6.7498e-06 4.58093e-06 0)
(6.86026e-06 4.70629e-06 0)
(6.97213e-06 4.83301e-06 0)
(7.08527e-06 4.9612e-06 0)
(7.19951e-06 5.09095e-06 0)
(7.3147e-06 5.22233e-06 0)
(7.4307e-06 5.35533e-06 0)
(7.54736e-06 5.48994e-06 0)
(7.6645e-06 5.62603e-06 0)
(7.78192e-06 5.76338e-06 0)
(7.89842e-06 5.90129e-06 1.71195e-21)
(5.55448e-06 3.38086e-06 0)
(5.6555e-06 3.50602e-06 0)
(5.75853e-06 3.6296e-06 0)
(5.86329e-06 3.75225e-06 0)
(5.96978e-06 3.87454e-06 0)
(6.07782e-06 3.99685e-06 0)
(6.18738e-06 4.11955e-06 0)
(6.29833e-06 4.24291e-06 0)
(6.4106e-06 4.36718e-06 0)
(6.52409e-06 4.49256e-06 0)
(6.63872e-06 4.61923e-06 0)
(6.7544e-06 4.74732e-06 0)
(6.87105e-06 4.87698e-06 0)
(6.98858e-06 5.00829e-06 0)
(7.10691e-06 5.14134e-06 0)
(7.22595e-06 5.27618e-06 0)
(7.34558e-06 5.41282e-06 0)
(7.46567e-06 5.55125e-06 0)
(7.58601e-06 5.69136e-06 0)
(7.70496e-06 5.83264e-06 1.77753e-21)
(5.23219e-06 3.25964e-06 0)
(5.34711e-06 3.38789e-06 0)
(5.46268e-06 3.51442e-06 0)
(5.57862e-06 3.63983e-06 0)
(5.69514e-06 3.76475e-06 0)
(5.81218e-06 3.88955e-06 0)
(5.92982e-06 4.01467e-06 0)
(6.04805e-06 4.14037e-06 0)
(6.1669e-06 4.26694e-06 0)
(6.28637e-06 4.39461e-06 0)
(6.40645e-06 4.52355e-06 0)
(6.52716e-06 4.65394e-06 0)
(6.64846e-06 4.78592e-06 0)
(6.77036e-06 4.91961e-06 0)
(6.89282e-06 5.05513e-06 0)
(7.01581e-06 5.19258e-06 0)
(7.13926e-06 5.33204e-06 0)
(7.26308e-06 5.4736e-06 0)
(7.38709e-06 5.6173e-06 0)
(7.50929e-06 5.76281e-06 1.88706e-21)
(4.889e-06 3.11507e-06 0)
(5.01924e-06 3.24841e-06 0)
(5.14875e-06 3.3798e-06 0)
(5.27722e-06 3.50969e-06 0)
(5.40511e-06 3.63885e-06 0)
(5.5324e-06 3.76763e-06 0)
(5.65935e-06 3.89652e-06 0)
(5.78603e-06 4.02582e-06 0)
(5.91257e-06 4.15587e-06 0)
(6.03906e-06 4.28689e-06 0)
(6.1656e-06 4.41911e-06 0)
(6.29225e-06 4.55273e-06 0)
(6.41909e-06 4.6879e-06 0)
(6.54616e-06 4.82481e-06 0)
(6.6735e-06 4.96358e-06 0)
(6.80113e-06 5.10438e-06 0)
(6.92904e-06 5.24737e-06 0)
(7.05719e-06 5.39275e-06 0)
(7.18544e-06 5.5407e-06 0)
(7.31164e-06 5.69106e-06 2.03709e-21)
(4.53043e-06 2.94766e-06 0)
(4.67693e-06 3.08801e-06 0)
(4.82134e-06 3.22609e-06 0)
(4.9633e-06 3.36214e-06 0)
(5.10351e-06 3.49708e-06 0)
(5.24201e-06 3.63127e-06 0)
(5.37917e-06 3.76527e-06 0)
(5.51517e-06 3.89941e-06 0)
(5.65024e-06 4.03407e-06 0)
(5.78455e-06 4.16952e-06 0)
(5.91829e-06 4.30602e-06 0)
(6.0516e-06 4.44379e-06 0)
(6.18462e-06 4.58304e-06 0)
(6.31747e-06 4.72396e-06 0)
(6.45024e-06 4.86674e-06 0)
(6.58302e-06 5.0116e-06 0)
(6.71587e-06 5.15876e-06 0)
(6.84879e-06 5.30853e-06 0)
(6.98175e-06 5.46121e-06 0)
(7.11258e-06 5.6168e-06 2.2222e-21)
(4.16198e-06 2.75837e-06 0)
(4.32515e-06 2.9075e-06 0)
(4.48498e-06 3.05397e-06 0)
(4.64098e-06 3.19778e-06 0)
(4.79409e-06 3.33999e-06 0)
(4.9444e-06 3.481e-06 0)
(5.09241e-06 3.62139e-06 0)
(5.23834e-06 3.76158e-06 0)
(5.38254e-06 3.90197e-06 0)
(5.52526e-06 4.04289e-06 0)
(5.66674e-06 4.18464e-06 0)
(5.80721e-06 4.32748e-06 0)
(5.94687e-06 4.47164e-06 0)
(6.08592e-06 4.61735e-06 0)
(6.22451e-06 4.76486e-06 0)
(6.3628e-06 4.91441e-06 0)
(6.5009e-06 5.06629e-06 0)
(6.63891e-06 5.22092e-06 0)
(6.77689e-06 5.37866e-06 0)
(6.9129e-06 5.53971e-06 2.43534e-21)
(3.78907e-06 2.54895e-06 0)
(3.96874e-06 2.70846e-06 0)
(4.14404e-06 2.86479e-06 0)
(4.31425e-06 3.01779e-06 0)
(4.48051e-06 3.16856e-06 0)
(4.64293e-06 3.31762e-06 0)
(4.8021e-06 3.46558e-06 0)
(4.95833e-06 3.61293e-06 0)
(5.11201e-06 3.76011e-06 0)
(5.26348e-06 3.9075e-06 0)
(5.41305e-06 4.05543e-06 0)
(5.561e-06 4.20421e-06 0)
(5.70761e-06 4.3541e-06 0)
(5.85313e-06 4.50537e-06 0)
(5.99778e-06 4.65827e-06 0)
(6.14178e-06 4.81312e-06 0)
(6.28534e-06 4.97023e-06 0)
(6.42862e-06 5.13007e-06 0)
(6.57181e-06 5.29309e-06 0)
(6.71343e-06 5.45968e-06 2.66882e-21)
(3.41657e-06 2.32194e-06 0)
(3.61187e-06 2.49297e-06 0)
(3.80205e-06 2.66019e-06 0)
(3.98634e-06 2.82366e-06 0)
(4.16571e-06 2.98419e-06 0)
(4.34038e-06 3.14244e-06 0)
(4.51088e-06 3.29904e-06 0)
(4.67762e-06 3.45455e-06 0)
(4.841e-06 3.60947e-06 0)
(5.00143e-06 3.76423e-06 0)
(5.15928e-06 3.91919e-06 0)
(5.31489e-06 4.07471e-06 0)
(5.4686e-06 4.23107e-06 0)
(5.62072e-06 4.38857e-06 0)
(5.77154e-06 4.5475e-06 0)
(5.92135e-06 4.70816e-06 0)
(6.07043e-06 4.87093e-06 0)
(6.21903e-06 5.03628e-06 0)
(6.36749e-06 5.20469e-06 0)
(6.51505e-06 5.37681e-06 2.91398e-21)
(3.08589e-06 2.11539e-06 0)
(3.29285e-06 2.29635e-06 0)
(3.49414e-06 2.47245e-06 0)
(3.68934e-06 2.64478e-06 0)
(3.87905e-06 2.8138e-06 0)
(4.06354e-06 2.98019e-06 0)
(4.24324e-06 3.14455e-06 0)
(4.41856e-06 3.30745e-06 0)
(4.58993e-06 3.46938e-06 0)
(4.75774e-06 3.63081e-06 0)
(4.9224e-06 3.79212e-06 0)
(5.0843e-06 3.95367e-06 0)
(5.2438e-06 4.11576e-06 0)
(5.40128e-06 4.2787e-06 0)
(5.55706e-06 4.44276e-06 0)
(5.71149e-06 4.60827e-06 0)
(5.86494e-06 4.77556e-06 0)
(6.01772e-06 4.94511e-06 0)
(6.17031e-06 5.11737e-06 0)
(6.32271e-06 5.29323e-06 3.12841e-21)
(2.59599e-06 1.77043e-06 0)
(2.84517e-06 1.97374e-06 0)
(3.05613e-06 2.15888e-06 0)
(3.26135e-06 2.33899e-06 0)
(3.46076e-06 2.51565e-06 0)
(3.6547e-06 2.68916e-06 0)
(3.8434e-06 2.86009e-06 0)
(4.0272e-06 3.02895e-06 0)
(4.20646e-06 3.19622e-06 0)
(4.38155e-06 3.36236e-06 0)
(4.55285e-06 3.52777e-06 0)
(4.72074e-06 3.69281e-06 0)
(4.8856e-06 3.85779e-06 0)
(5.04781e-06 4.02302e-06 0)
(5.20773e-06 4.18877e-06 0)
(5.36573e-06 4.35528e-06 0)
(5.52218e-06 4.52286e-06 0)
(5.67747e-06 4.69179e-06 0)
(5.83198e-06 4.86248e-06 0)
(5.98627e-06 5.03529e-06 0)
(6.14072e-06 5.21109e-06 3.26002e-21)
(2.41962e-06 1.66678e-06 0)
(2.66058e-06 1.86748e-06 0)
(2.87007e-06 2.05298e-06 0)
(3.07455e-06 2.23439e-06 0)
(3.27378e-06 2.41292e-06 0)
(3.46799e-06 2.5887e-06 0)
(3.65727e-06 2.76215e-06 0)
(3.84188e-06 2.93365e-06 0)
(4.02207e-06 3.10359e-06 0)
(4.19816e-06 3.27232e-06 0)
(4.37047e-06 3.44018e-06 0)
(4.53934e-06 3.60747e-06 0)
(4.70512e-06 3.77447e-06 0)
(4.86816e-06 3.94142e-06 0)
(5.02881e-06 4.10857e-06 0)
(5.18745e-06 4.27612e-06 0)
(5.34444e-06 4.44431e-06 0)
(5.5002e-06 4.61338e-06 0)
(5.65514e-06 4.78362e-06 0)
(5.80985e-06 4.9553e-06 0)
(5.96476e-06 5.12902e-06 3.33008e-21)
(2.26308e-06 1.56697e-06 0)
(2.49511e-06 1.76493e-06 0)
(2.70092e-06 1.95e-06 0)
(2.90281e-06 2.13198e-06 0)
(3.10015e-06 2.31176e-06 0)
(3.29309e-06 2.48931e-06 0)
(3.48157e-06 2.66487e-06 0)
(3.66574e-06 2.83869e-06 0)
(3.84577e-06 3.01103e-06 0)
(4.0219e-06 3.18216e-06 0)
(4.19439e-06 3.35234e-06 0)
(4.36352e-06 3.52179e-06 0)
(4.5296e-06 3.69074e-06 0)
(4.69297e-06 3.85939e-06 0)
(4.85394e-06 4.02791e-06 0)
(5.01287e-06 4.19647e-06 0)
(5.17013e-06 4.36524e-06 0)
(5.32614e-06 4.53439e-06 0)
(5.48132e-06 4.7041e-06 0)
(5.6363e-06 4.87452e-06 0)
(5.7915e-06 5.04594e-06 3.37406e-21)
(2.12347e-06 1.47179e-06 0)
(2.34604e-06 1.66636e-06 0)
(2.54689e-06 1.85029e-06 0)
(2.74481e-06 2.03224e-06 0)
(2.93894e-06 2.21276e-06 0)
(3.12938e-06 2.39162e-06 0)
(3.31589e-06 2.56891e-06 0)
(3.49857e-06 2.74471e-06 0)
(3.67748e-06 2.91919e-06 0)
(3.85279e-06 3.0925e-06 0)
(4.02468e-06 3.26481e-06 0)
(4.19341e-06 3.43628e-06 0)
(4.35923e-06 3.60707e-06 0)
(4.52243e-06 3.77732e-06 0)
(4.68331e-06 3.94715e-06 0)
(4.8422e-06 4.11666e-06 0)
(4.99947e-06 4.28596e-06 0)
(5.15549e-06 4.45514e-06 0)
(5.31073e-06 4.62425e-06 0)
(5.46587e-06 4.79329e-06 0)
(5.62119e-06 4.96235e-06 3.39009e-21)
(1.99841e-06 1.38155e-06 0)
(2.21131e-06 1.57238e-06 0)
(2.40623e-06 1.75463e-06 0)
(2.59914e-06 1.93599e-06 0)
(2.78904e-06 2.11671e-06 0)
(2.97596e-06 2.29641e-06 0)
(3.15955e-06 2.47498e-06 0)
(3.33984e-06 2.65241e-06 0)
(3.51679e-06 2.82869e-06 0)
(3.69052e-06 3.00391e-06 0)
(3.86116e-06 3.17812e-06 0)
(4.02889e-06 3.35142e-06 0)
(4.19392e-06 3.5239e-06 0)
(4.35652e-06 3.69562e-06 0)
(4.51693e-06 3.86665e-06 0)
(4.67548e-06 4.03704e-06 0)
(4.83249e-06 4.20681e-06 0)
(4.98834e-06 4.37595e-06 0)
(5.14345e-06 4.54438e-06 0)
(5.29849e-06 4.71206e-06 0)
(5.45372e-06 4.8788e-06 3.3767e-21)
(1.88538e-06 1.29625e-06 0)
(2.08867e-06 1.48306e-06 0)
(2.27707e-06 1.66319e-06 0)
(2.46425e-06 1.84351e-06 0)
(2.64917e-06 2.024e-06 0)
(2.83179e-06 2.20409e-06 0)
(3.01169e-06 2.38357e-06 0)
(3.18884e-06 2.56224e-06 0)
(3.36315e-06 2.74001e-06 0)
(3.53466e-06 2.91684e-06 0)
(3.70345e-06 3.09271e-06 0)
(3.86965e-06 3.26762e-06 0)
(4.03345e-06 3.44159e-06 0)
(4.19504e-06 3.61463e-06 0)