/*--------------------------------*- C++ -*----------------------------------*\
  =========                 |
  \\      /  F ield         | OpenFOAM: The Open Source CFD Toolbox
   \\    /   O peration     | Website:  https://openfoam.org
    \\  /    A nd           | Version:  9
     \\/     M anipulation  |
\*---------------------------------------------------------------------------*/
FoamFile
{
    format      ascii;
    class       volScalarField;
    location    "5";
    object      sigmaEq;
}
// * * * * * * * * * * * * * * * * * * * * * * * * * * * * * * * * * * * * * //

dimensions      [1 -1 -2 0 0 0 0];

internalField   nonuniform List<scalar> 
1000
(
860888
814488
799817
799874
797492
792402
784432
773914
762986
749529
1.004e+06
912765
869251
850511
834696
820065
804839
789100
772570
756970
1.14369e+06
1.00911e+06
935033
894097
863012
837372
813884
791869
770064
750917
1.27969e+06
1.10266e+06
995884
931104
883236
845454
812978
784355
757325
734652
1.40785e+06
1.18963e+06
1.05056e+06
961087
895396
844637
802728
767333
736080
710268
1.52648e+06
1.26959e+06
1.0987e+06
984096
899965
835846
785126
743841
707993
678599
1.62897e+06
1.33805e+06
1.13556e+06
996505
894863
819338
761102
714009
674344
641717
1.72725e+06
1.39487e+06
1.15915e+06
997754
881343
797585
733207
681971
639832
604862
1.80154e+06
1.41831e+06
1.14902e+06
972736
853353
766850
701365
649317
606929
571052
1.89371e+06
1.38889e+06
1.10849e+06
938058
827050
744486
681812
631107
589554
553459
5118.31
6569.89
28705.1
60872.9
96717.4
133948
170232
204875
236689
266265
7530.5
41261.6
88030.9
133862
174984
211791
244190
273368
298512
322352
33074.4
97905.6
157045
209819
254157
291198
321606
347387
367765
387362
78272.3
167554
234160
289639
334063
369753
397722
420371
436756
452920
143611
246789
317226
372736
414825
447396
471823
490733
503077
515789
228805
332482
402220
455488
493652
521939
542041
556704
564913
573997
331849
423278
487041
535596
568494
591628
606850
616887
620914
626132
450127
518024
569995
610952
637215
654454
664468
669669
669764
670923
580180
615667
650183
680427
698547
709123
713942
714409
710818
708108
718415
714969
726912
743190
751822
755319
753942
748849
742312
733917
292816
315793
337056
356261
373625
389233
403246
415761
426911
436778
445456
453002
459468
464885
469267
472638
474983
476387
476836
476627
340755
354554
368441
381248
393276
404390
414657
424045
432609
440349
447311
453509
458971
463714
467745
471077
473674
475539
476475
476436
398507
403581
409967
415943
422039
427962
433787
439361
444708
449745
454477
458868
462914
466600
469902
472797
475184
476976
477764
477399
457935
455524
455312
455090
455601
456460
457825
459456
461392
463484
465720
468017
470343
472643
474862
476932
478697
480031
480432
479784
515385
506664
500754
495124
490683
486906
484106
481943
480521
479640
479292
479361
479798
480519
481439
482464
483410
484134
484141
483350
568760
554790
544100
533827
525160
517295
510792
505170
500623
496909
494035
491870
490357
489401
488906
488767
488808
488887
488608
487884
616674
598491
584082
569893
557780
546381
536629
527902
520491
514141
508876
504564
501147
498527
496612
495297
494442
493916
493482
493013
657916
636485
619612
602141
587365
573145
560730
549411
539504
530798
523323
516982
511726
507473
504153
501673
499957
498884
498422
498377
692965
668169
650461
630609
613673
597138
582352
568793
556700
545941
536525
528382
521473
515735
511124
507571
505074
503534
503138
503620
719946
693706
676046
655623
637320
619502
602887
587433
573332
560599
549271
539327
530751
523506
517579
512927
509627
507609
507296
508363
731890
707239
689082
669430
650616
632526
615362
599181
584207
570496
558133
547136
537529
529306
522501
517104
513270
510954
510762
512324
714352
699786
683078
665796
648746
632070
616019
600668
586272
572919
560734
549771
540097
531741
524781
519246
515349
513079
513181
515239
700642
688597
675316
660162
645209
629949
615058
600572
586820
573910
562007
551196
541574
533207
526203
520629
516742
514546
514866
517248
683380
674686
664334
651504
638529
624796
611213
597781
584890
572656
561276
550857
541523
533362
526504
521056
517262
515214
515775
518338
663900
657902
650262
639691
628788
616786
604712
592545
580726
569380
558736
548916
540063
532290
525721
520535
516830
515152
515003
518484
642820
639303
634111
625715
616806
606558
596050
585253
574634
564331
554587
545537
537343
530119
524027
519174
515862
514171
514827
517315
620592
619216
616202
609877
602889
594406
585506
576161
566847
557708
549000
540863
533467
526929
521413
517018
514033
512461
513058
515391
597670
598146
597064
592654
587468
580701
573399
565539
557593
549707
542136
535028
528547
522811
517974
514120
511504
510133
510647
512648
574294
576329
576931
574273
570769
565661
559938
553583
547052
540487
534140
528154
522690
517856
513790
510560
508374
507213
507616
509222
550587
553932
556002
554939
553003
549491
545319
540477
535392
530203
525150
520365
516001
512156
508944
506416
504720
503824
504110
505266
526548
530993
534346
534746
534289
532322
529685
526368
522764
519001
515301
511788
508598
505817
503534
501780
500642
500061
500254
500962
502088
507480
511980
513753
514717
514274
513174
511406
509323
507039
504752
502572
500619
498965
497676
496763
496250
496052
496208
496505
477029
483279
488851
491959
494338
495435
495909
495743
495240
494497
493684
492897
492237
491762
491518
491498
491672
491927
492130
492094
451152
458253
464896
469374
473220
475926
478053
479569
480727
481602
482331
482994
483672
484414
485246
486153
487061
487835
488184
487925
424158
432208
440018
445990
451434
455885
459797
463121
466054
468641
470992
473162
475217
477194
479109
480945
482603
483938
484537
484192
395828
405056
414239
421928
429183
435579
441458
446749
451590
456000
460050
463779
467232
470440
473414
476140
478522
480414
481347
481059
365855
376662
387580
397341
406725
415351
423439
430900
437812
444165
450001
455336
460199
464612
468585
472113
475121
477491
478787
478689
334447
347413
360557
372834
384725
395889
406435
416254
425373
433763
441436
448393
454647
460209
465086
469283
472758
475438
477008
477149
301708
317692
333768
349141
364000
378051
391313
403670
415118
425614
435158
443740
451358
458009
463686
468384
472070
474741
476256
476529
269890
289730
309346
328201
346297
363370
379403
394281
407997
420512
431826
441930
450813
458457
464825
469886
473564
475893
476809
476707
522970
540057
572661
609206
646810
679999
706468
724639
734638
733416
494920
511016
541683
577079
615049
650414
680819
703590
718538
721821
469633
484915
513582
546950
583460
618335
649629
675187
694671
706188
446452
461231
488406
520176
555550
590051
621731
648554
669536
685366
424696
439047
464813
494857
528697
562293
593858
621844
644174
663220
404244
418320
442982
471554
503941
536442
567294
595500
618195
639354
384691
398535
422218
449418
480369
511720
541739
569908
592645
614830
365943
379594
402449
428426
458006
488130
517108
544839
567372
589987
347808
361256
383358
408204
436487
465390
493294
520372
542538
565100
330233
343440
364820
388592
415615
443269
470046
496292
517998
540231
313170
326051
346678
369371
395142
421521
447149
472440
493607
515326
296653
309075
328838
350374
374832
399872
424304
448548
469123
490228
280800
292545
311212
331401
354404
378000
401176
424299
444242
464689
265835
276548
293726
312254
333564
355557
377385
399327
418617
438407
252221
261278
276238
292565
311812
331994
352383
373121
391786
410987
240615
246823
258499
271943
288674
306813
325677
345227
363351
382093
232335
233431
239767
249236
262921
278870
296271
314814
332651
351232
228243
219896
218806
223510
233848
247611
263773
281642
299604
318451
231863
204412
191647
190651
198130
210546
226401
244543
263532
283483
233315
175532
155727
149957
156230
168585
185466
205172
226377
248504
)
;

boundaryField
{
    left
    {
        type            calculated;
        value           nonuniform List<scalar> 
30
(
518467
490519
465315
442173
420473
400088
380641
362049
344136
326867
310210
294220
279034
264907
252337
242189
236164
237177
254011
292456
2.01261e+06
1.35179e+06
1.07199e+06
915558
814319
736421
676228
626506
585389
549119
)
;
    }
    right
    {
        type            calculated;
        value           nonuniform List<scalar> 
30
(
476532
476438
477347
479702
483252
487792
492945
498350
503637
508446
512430
515414
517443
518545
518537
517494
515585
512815
509356
505360
501017
496522
492079
487888
484144
481014
478663
477147
476551
476597
)
;
    }
    down
    {
        type            calculated;
        value           nonuniform List<scalar> 
30
(
4177.55
2722.6
21017.5
52580.5
89032.2
127164
164428
199963
232565
262772
289969
313670
335442
355021
372684
388513
402704
415353
426611
436561
445305
452903
459407
464853
469253
472633
474980
476383
476834
476679
)
;
    }
    up
    {
        type            calculated;
        value           nonuniform List<scalar> 
30
(
226111
173440
155084
149398
155548
167743
184510
204157
225335
247486
268910
288852
308587
327544
345743
362907
379024
393976
407758
420329
431693
441838
450756
458428
464816
469889
473571
475897
476806
476739
)
;
    }
    hole
    {
        type            calculated;
        value           nonuniform List<scalar> 
20
(
855629
1.00298e+06
1.14676e+06
1.28415e+06
1.41611e+06
1.53817e+06
1.64356e+06
1.74487e+06
1.82246e+06
1.9121e+06
3116.55
3117.99
16146.2
56826.3
120433
206258
311388
432780
566566
708905
)
;
    }
    frontAndBack
    {
        type            empty;
    }
}


// ************************************************************************* //
