/*--------------------------------*- C++ -*----------------------------------*\
  =========                 |
  \\      /  F ield         | OpenFOAM: The Open Source CFD Toolbox
   \\    /   O peration     | Website:  https://openfoam.org
    \\  /    A nd           | Version:  9
     \\/     M anipulation  |
\*---------------------------------------------------------------------------*/
FoamFile
{
    format      ascii;
    class       volSymmTensorField;
    location    "5";
    object      sigma;
}
// * * * * * * * * * * * * * * * * * * * * * * * * * * * * * * * * * * * * * //

dimensions      [1 -1 -2 0 0 0 0];

internalField   nonuniform List<symmTensor> 
1000
(
(614863 -420787 -2.26515e-10 357167 -3.07401e-10 85844.1)
(721324 -324527 -1.8527e-10 195062 -2.39408e-10 84395.5)
(774852 -248580 -1.46228e-10 118677 -1.86797e-10 84264)
(797512 -191296 -1.14558e-10 58670.8 -1.44479e-10 80814.4)
(805804 -145225 -8.57306e-11 23597.2 -1.09297e-10 77302.8)
(802444 -109208 -6.45771e-11 -2570.04 -8.27687e-11 74229.7)
(794354 -79940.4 -4.80304e-11 -19417.8 -6.21724e-11 72040.3)
(781867 -56671 -3.57132e-11 -31600.3 -4.64482e-11 70155.4)
(768996 -37330.2 -2.57737e-11 -39606.7 -3.38338e-11 68740.6)
(751956 -21240 -1.84465e-11 -47284.5 -2.37563e-11 67115.1)
(779668 -467852 -2.49232e-10 360346 -3.38713e-10 101516)
(849935 -334964 -1.85046e-10 205637 -2.46319e-10 97439.5)
(878649 -239030 -1.30302e-10 136083 -1.78092e-10 94280.8)
(881387 -170091 -8.86875e-11 79165.9 -1.25753e-10 87966)
(874315 -117529 -5.79593e-11 46805.3 -8.78924e-11 84132.1)
(858362 -78217 -3.65398e-11 21728.6 -6.03751e-11 80618.7)
(839999 -47522.9 -2.05657e-11 5641.02 -3.97915e-11 78035.7)
(819018 -24191.4 -9.44926e-12 -7069.37 -2.46822e-11 75659.2)
(798231 -5283.54 -9.10897e-13 -14797.5 -1.30538e-11 73879.5)
(775271 9848.66 4.88593e-12 -25269.6 -3.78677e-12 71581.2)
(957181 -497586 -2.62875e-10 347049 -3.58035e-10 117277)
(980932 -334543 -1.72769e-10 211437 -2.4125e-10 107866)
(979232 -222483 -1.04963e-10 155073 -1.60859e-10 102005)
(958632 -144408 -6.0833e-11 104999 -1.05243e-10 95544.9)
(934167 -87258.2 -2.96148e-11 77600.8 -6.63917e-11 91553.8)
(904405 -46077 -8.95221e-12 54958.2 -3.90859e-11 87694.6)
(875201 -15143.7 5.65502e-12 40502.6 -1.94471e-11 84786.7)
(845329 7448.12 1.50339e-11 27926 -5.59254e-12 81973.7)
(817312 25008.2 2.17005e-11 20516.8 4.49846e-12 79856)
(788158 39282.5 2.60227e-11 8372.99 1.28683e-11 77018.8)
(1.14164e+06 -505758 -2.5293e-10 319901 -3.53308e-10 127622)
(1.11139e+06 -321945 -1.46083e-10 213115 -2.2211e-10 114770)
(1.07507e+06 -199195 -7.60766e-11 175428 -1.39731e-10 109764)
(1.02835e+06 -115502 -3.19259e-11 135439 -8.37708e-11 103393)
(984821 -56270.6 -1.96399e-12 114800 -4.59321e-11 99360.9)
(940406 -14976.4 1.67529e-11 95493.8 -2.01729e-11 95206.9)
(899970 14880.6 2.91268e-11 82910.2 -2.40919e-12 91967.4)
(861405 35900.9 3.62831e-11 70616.5 9.64069e-12 88735.4)
(826416 51399 4.06569e-11 63006.2 1.78042e-11 86214.8)
(792143 64018.3 4.31859e-11 49959.1 2.4753e-11 82981.4)
(1.32478e+06 -488541 -2.16921e-10 282193 -3.22128e-10 132088)
(1.23748e+06 -295439 -1.11472e-10 211526 -1.93772e-10 121225)
(1.16395e+06 -168814 -4.37441e-11 197073 -1.14652e-10 117444)
(1.08928e+06 -83999.1 -2.55282e-12 169888 -6.17857e-11 111362)
(1.02565e+06 -25943.8 2.40195e-11 157496 -2.73715e-11 107385)
(966233 13164.7 3.93308e-11 142201 -4.78557e-12 102974)
(914711 40280.9 4.84603e-11 131612 1.00016e-11 99403)
(867852 58589.7 5.32203e-11 119552 1.9914e-11 95536.8)
(826612 71194 5.83009e-11 111243 2.84459e-11 91048.3)
(787871 81469.4 6.11538e-11 97300.2 3.55227e-11 86352)
(1.50248e+06 -444993 -1.65456e-10 239850 -2.73478e-10 136046)
(1.35742e+06 -253913 -6.84164e-11 209579 -1.55989e-10 127536)
(1.2453e+06 -130909 -7.73208e-12 221758 -8.55899e-11 125249)
(1.14132e+06 -50505.7 2.69057e-11 208848 -3.97574e-11 119503)
(1.05699e+06 2400.23 4.75465e-11 205220 -1.15026e-11 115562)
(982652 36585.4 5.77583e-11 193785 6.1267e-12 110841)
(920521 59142.4 6.55352e-11 184707 1.91935e-11 105554)
(866100 73575.5 7.06448e-11 172452 2.89971e-11 99516)
(819436 82618.8 7.30352e-11 162806 3.51471e-11 94379.5)
(777042 90004.1 7.37476e-11 147857 4.02911e-11 89235)
(1.66359e+06 -372331 -9.82754e-11 197528 -2.06994e-10 139587)
(1.46552e+06 -194272 -1.57205e-11 210470 -1.07564e-10 133880)
(1.31394e+06 -84360.5 3.19795e-11 251787 -5.25051e-11 133236)
(1.18061e+06 -15389.1 5.56895e-11 253067 -1.83382e-11 127715)
(1.07648e+06 27442.6 6.74344e-11 257129 7.02768e-13 123648)
(988654 53496.2 7.42945e-11 248238 1.43723e-11 116882)
(917485 69600.2 8.0294e-11 239399 2.51959e-11 109513)
(856963 79103.2 8.18497e-11 226035 3.16915e-11 102769)
(806181 84169.9 8.1221e-11 214267 3.51977e-11 97046.8)
(761095 88386.7 7.96106e-11 198016 3.82297e-11 91521.6)
(1.81893e+06 -270328 -1.33095e-11 168036 -1.23092e-10 144922)
(1.56292e+06 -113470 4.90143e-11 225893 -4.77366e-11 141879)
(1.36983e+06 -28476.5 7.60768e-11 296199 -1.59864e-11 142593)
(1.20808e+06 19352.8 8.28237e-11 307156 6.98117e-13 136618)
(1.08598e+06 46496.2 8.37797e-11 314364 8.66119e-12 131192)
(987104 61427.8 8.7735e-11 304444 1.86516e-11 121079)
(909072 69855.8 8.82005e-11 293164 2.4344e-11 112810)
(844324 74105 8.58294e-11 277081 2.73483e-11 105415)
(790896 75489.6 8.22794e-11 262197 2.84309e-11 99173.9)
(744195 76831.6 7.85239e-11 244287 2.95575e-11 93345.9)
(1.94838e+06 -126316 9.48801e-11 167152 -1.69179e-11 153279)
(1.62891e+06 -11272.2 1.23542e-10 276330 1.95379e-11 153172)
(1.39269e+06 29207 1.17255e-10 365546 1.60584e-11 153575)
(1.20898e+06 44368.2 1.00433e-10 373483 9.65429e-12 145654)
(1.0773e+06 51959.4 9.5816e-11 373625 1.12071e-11 134922)
(973976 54556.5 9.06693e-11 356600 1.30274e-11 123749)
(893923 55839.8 8.55953e-11 339273 1.40246e-11 114771)
(828144 55836.7 7.98124e-11 318783 1.42499e-11 106909)
(774156 54868.9 7.41837e-11 300183 1.38191e-11 100314)
(727072 54382.3 6.89904e-11 280563 1.3747e-11 94304.9)
(2.11747e+06 113368 2.7191e-10 291510 1.4137e-10 181269)
(1.65872e+06 126616 2.18151e-10 433664 9.5015e-11 177085)
(1.39011e+06 83595.7 1.5403e-10 480126 3.85646e-11 169134)
(1.2008e+06 54210.6 1.14987e-10 457859 1.14393e-11 153190)
(1.06864e+06 42762.7 9.83254e-11 431572 3.92204e-12 138444)
(965862 36379.5 8.52454e-11 399658 -1.59586e-14 126120)
(886363 34100.8 7.63781e-11 372036 -1.22008e-12 116383)
(820923 32773.8 6.89505e-11 346125 -1.78266e-12 108131)
(767012 31732.1 6.27408e-11 323950 -2.19609e-12 101269)
(719747 31025.4 5.7244e-11 303294 -2.39722e-12 95162.3)
(-2826.37 992.489 -3.73811e-11 -1596.71 -1.86005e-11 2490.37)
(2224.65 -3516.04 -3.97567e-11 305.503 -2.16552e-11 3085.35)
(22588.5 -11068.7 -4.39455e-11 -1135.64 -2.66577e-11 4868.88)
(55195.2 -17115.1 -4.66351e-11 -2326.28 -3.06236e-11 7855.16)
(93091.5 -20845.6 -4.75481e-11 -2945.68 -3.30305e-11 11408.8)
(132869 -22969.9 -4.73137e-11 -3247.79 -3.43592e-11 15178.9)
(171842 -23803.7 -4.6253e-11 -3299.19 -3.48268e-11 18900.7)
(209085 -23870.4 -4.47474e-11 -3162.1 -3.47863e-11 22477.1)
(243231 -23238.8 -4.29348e-11 -3094.03 -3.42824e-11 25756.7)
(275066 -22750.6 -4.1238e-11 -2564.31 -3.3889e-11 28849.3)
(3706.6 -3779.44 -3.99469e-11 -249.865 -2.18182e-11 3182.91)
(29991 -20485 -4.75629e-11 12637.1 -3.32279e-11 6557.67)
(68157.5 -38943.7 -5.76611e-11 13193.7 -4.55578e-11 10116.7)
(108663 -53054.5 -6.55801e-11 9211.04 -5.48745e-11 13586)
(149390 -61737.6 -7.00116e-11 5382.08 -6.05446e-11 17128.9)
(188102 -66608.2 -7.20456e-11 1915.33 -6.3663e-11 20534.9)
(224001 -68369.6 -7.20946e-11 -749.219 -6.47126e-11 23756.2)
(257226 -68258.4 -7.09475e-11 -2656.11 -6.45239e-11 26793.1)
(286523 -66377.5 -6.87955e-11 -4293.59 -6.31597e-11 29487.7)
(314316 -64878 -6.67234e-11 -4446.13 -6.20832e-11 32148.7)
(11483.3 -18621 -4.7136e-11 12634.5 -3.20182e-11 4799.19)
(57503.6 -51171 -6.37696e-11 27230 -5.40655e-11 10075.5)
(110224 -74039.4 -7.6459e-11 25251.5 -6.92785e-11 14801.7)
(158660 -89365 -8.56958e-11 15482.9 -7.92849e-11 18580)
(203230 -97815.2 -9.06076e-11 6432.87 -8.46921e-11 22094.4)
(242487 -101796 -9.27158e-11 -1446.4 -8.71282e-11 25222.8)
(276957 -102289 -9.25157e-11 -7428.45 -8.72668e-11 28063.7)
(307677 -100666 -9.08718e-11 -11746.4 -8.60222e-11 30688.1)
(333362 -97112.4 -8.80468e-11 -15004.4 -8.3512e-11 32925.8)
(358228 -94124.1 -8.52672e-11 -15950.3 -8.14268e-11 35257.2)
(27563.9 -41887.2 -5.68292e-11 42246.2 -4.81749e-11 8423.32)
(94721 -87957.7 -8.28147e-11 46114.5 -7.90617e-11 14804.2)
(159460 -112006 -9.66386e-11 38309.1 -9.49304e-11 20228.1)
(214746 -125494 -1.05344e-10 22436.9 -1.03572e-10 24210.6)
(262559 -131087 -1.09042e-10 8476.42 -1.06958e-10 27682.4)
(302368 -132134 -1.09896e-10 -3622.85 -1.07343e-10 30563.8)
(335609 -129895 -1.08506e-10 -12924.9 -1.05585e-10 33054.1)
(364119 -125738 -1.05726e-10 -19806.8 -1.02594e-10 35290.5)
(386428 -119951 -1.01911e-10 -25007.9 -9.85547e-11 37073.3)
(408656 -115059 -9.81992e-11 -27092.1 -9.5174e-11 39079.5)
(55008.8 -74754.7 -7.01008e-11 85598 -7.10164e-11 14111.8)
(144663 -128009 -1.03132e-10 66890.5 -1.06258e-10 20871.2)
(219423 -149626 -1.16592e-10 48484.4 -1.20271e-10 26464.3)
(279438 -158619 -1.23413e-10 24830.5 -1.25733e-10 30339.8)
(328598 -159222 -1.24653e-10 5732.5 -1.25666e-10 33586.2)
(367610 -155715 -1.23231e-10 -10289.5 -1.22917e-10 36126.1)
(398720 -149571 -1.19871e-10 -22431.2 -1.18487e-10 38225.1)
(424411 -142039 -1.15371e-10 -31388.9 -1.13195e-10 40058.5)
(443049 -133576 -1.10226e-10 -38072.1 -1.07337e-10 41396.8)
(462404 -126377 -1.05282e-10 -40944.8 -1.02398e-10 43085)
(97438.3 -117949 -8.77672e-11 139331 -1.00958e-10 21949.6)
(208974 -168619 -1.22844e-10 90130.9 -1.33842e-10 28498)
(291694 -183468 -1.33711e-10 58165.2 -1.43033e-10 33869.8)
(354076 -185664 -1.37398e-10 25932.8 -1.4376e-10 37368.5)
(402478 -179938 -1.35376e-10 1950.05 -1.39348e-10 40217.2)
(438983 -171065 -1.3115e-10 -17452.3 -1.32935e-10 42299.4)
(466680 -160524 -1.25473e-10 -31865.2 -1.25514e-10 43931.3)
(488542 -149327 -1.19035e-10 -42396.6 -1.17738e-10 45305.4)
(502874 -138109 -1.12487e-10 -50236.5 -1.10016e-10 46163.8)
(518735 -128488 -1.06223e-10 -53625.8 -1.03447e-10 47496.2)
(157822 -170998 -1.10354e-10 197165 -1.3756e-10 31745.7)
(287426 -208171 -1.41177e-10 114211 -1.60697e-10 37550.9)
(375044 -211521 -1.46759e-10 67386.7 -1.61868e-10 42344.6)
(436928 -204623 -1.46022e-10 26220.7 -1.56316e-10 45182.3)
(482245 -191506 -1.40108e-10 -2311.58 -1.46858e-10 47443.8)
(514330 -176834 -1.32804e-10 -24580.2 -1.36502e-10 48927.6)
(537201 -161777 -1.24701e-10 -40658.8 -1.26026e-10 50004.1)
(554054 -146977 -1.16337e-10 -52271.4 -1.15819e-10 50843.1)
(563430 -133193 -1.08466e-10 -60823.5 -1.0637e-10 51191.9)
(574957 -121231 -1.00936e-10 -64515.7 -9.82322e-11 52103.7)
(238865 -231931 -1.37386e-10 253166 -1.7938e-10 43321.1)
(379401 -245115 -1.57306e-10 138217 -1.85766e-10 47912.6)
(467597 -232447 -1.5474e-10 77632.9 -1.7591e-10 51832.1)
(525641 -214412 -1.48305e-10 28278.5 -1.62726e-10 53761)
(565456 -193187 -1.38027e-10 -4056.21 -1.47759e-10 55266.4)
(591253 -172644 -1.27579e-10 -28553.5 -1.3343e-10 56022)
(607960 -153304 -1.1718e-10 -45802.4 -1.20066e-10 56451)
(618729 -135305 -1.07123e-10 -58037.1 -1.07712e-10 56683.9)
(622597 -119403 -9.82225e-11 -67209.1 -9.68406e-11 56473.9)
(628949 -105413 -8.92075e-11 -70948.1 -8.70218e-11 56717.7)
(342157 -297179 -1.67428e-10 301349 -2.23901e-10 56398.6)
(483614 -277924 -1.70561e-10 160497 -2.07993e-10 59345.4)
(566833 -245632 -1.57299e-10 89339.9 -1.84758e-10 62128.9)
(617225 -214928 -1.44085e-10 33538.9 -1.62955e-10 62928.3)
(649043 -185211 -1.29122e-10 -1399.79 -1.4225e-10 63532.8)
(666711 -159012 -1.15636e-10 -27412.8 -1.24109e-10 63436.8)
(676061 -135827 -1.00582e-10 -45171.2 -1.06111e-10 62001.4)
(679647 -115305 -8.76718e-11 -57878.3 -9.07844e-11 60811.8)
(677769 -97828.6 -7.73458e-11 -67230.4 -7.83187e-11 59744)
(677898 -82201.8 -6.77496e-11 -72046.5 -6.74284e-11 59341.5)
(467983 -362006 -1.98148e-10 337099 -2.67855e-10 70688.7)
(598317 -304982 -1.80169e-10 179829 -2.26274e-10 71601.1)
(670065 -250967 -1.544e-10 103029 -1.88356e-10 73018.3)
(708634 -206844 -1.33696e-10 43467.3 -1.5749e-10 72499.2)
(729826 -168687 -1.1174e-10 7496.14 -1.29355e-10 71086.2)
(737621 -137247 -9.18343e-11 -19051.7 -1.04864e-10 68456)
(738444 -110808 -7.57904e-11 -36834.7 -8.52771e-11 66549.9)
(734155 -88506 -6.29003e-11 -49269.4 -6.94711e-11 65027.8)
(726529 -70424.3 -5.30488e-11 -59392.7 -5.70015e-11 63581.2)
(719548 -54743.6 -4.44082e-11 -62976.9 -4.68177e-11 62985.2)
(303527 -21107.3 -3.90248e-11 -2563.99 -3.2717e-11 31587)
(328576 -18833.9 -3.6464e-11 -1993.81 -3.11401e-11 34046.1)
(351535 -16857.8 -3.42043e-11 -1587.1 -2.97652e-11 36290.5)
(372154 -15064.2 -3.21713e-11 -1286.27 -2.85163e-11 38301.2)
(390765 -13401.1 -3.03046e-11 -988.675 -2.73599e-11 40118.6)
(407424 -11912.5 -2.86406e-11 -771.412 -2.63236e-11 41741.5)
(422363 -10547.3 -2.71281e-11 -563.707 -2.53747e-11 43198.2)
(435669 -9316.05 -2.57747e-11 -403.468 -2.45185e-11 44493.8)
(447512 -8187.21 -2.45487e-11 -261.705 -2.37343e-11 45647.1)
(457973 -7153.26 -2.34453e-11 -151.375 -2.30165e-11 46665)
(467162 -6191.47 -2.24423e-11 -61.5393 -2.23498e-11 47559)
(475141 -5287.81 -2.15301e-11 4.29783 -2.17248e-11 48334.8)
(481968 -4424.51 -2.06941e-11 49.0034 -2.11292e-11 48998.4)
(487677 -3589.28 -1.9925e-11 71.834 -2.05547e-11 49553.1)
(492283 -2771.15 -1.92144e-11 72.0994 -1.99937e-11 50000.3)
(495813 -1968.65 -1.8562e-11 53.5695 -1.94454e-11 50342.9)
(498253 -1193.42 -1.79744e-11 14.9698 -1.89178e-11 50579.5)
(499710 -489.82 -1.74715e-11 -14.3383 -1.84409e-11 50722)
(500184 49.6755 -1.71079e-11 -11.365 -1.8077e-11 50771.6)
(500138 177.166 -1.69879e-11 259.204 -1.79964e-11 50788.9)
(336682 -60414.7 -6.31599e-11 -5736.86 -5.90057e-11 34225.5)
(355134 -54380.1 -5.85407e-11 -5594.09 -5.49078e-11 36048.4)
(372925 -49064.7 -5.43561e-11 -5119.64 -5.13011e-11 37828.1)
(388804 -44105.9 -5.05129e-11 -4878.8 -4.79346e-11 39404.2)
(403528 -39459.4 -4.68833e-11 -4425.85 -4.47844e-11 40883.4)
(416771 -35261 -4.36228e-11 -4128.15 -4.19362e-11 42205.7)
(428870 -31374.8 -4.05993e-11 -3769.18 -3.93016e-11 43420.8)
(439742 -27845.6 -3.78662e-11 -3497.44 -3.69083e-11 44509.1)
(449563 -24589.4 -3.53517e-11 -3235.21 -3.47011e-11 45493.9)
(458336 -21593.6 -3.3054e-11 -3033.08 -3.26699e-11 46371.8)
(466162 -18800.5 -3.09301e-11 -2864.13 -3.07769e-11 47155)
(473070 -16177.8 -2.89591e-11 -2741.38 -2.89997e-11 47845.5)
(479116 -13682.3 -2.71095e-11 -2652.39 -2.73093e-11 48450)
(484336 -11283.9 -2.53595e-11 -2589.84 -2.56857e-11 48972.6)
(488759 -8959.11 -2.36899e-11 -2535.53 -2.41134e-11 49417.6)
(492425 -6706.64 -2.20935e-11 -2452.33 -2.2592e-11 49791.9)
(495335 -4553.74 -2.05797e-11 -2290.39 -2.11408e-11 50099)
(497573 -2593.81 -1.91851e-11 -1923.61 -1.98246e-11 50356)
(499050 -969.044 -1.79797e-11 -1186.13 -1.87427e-11 50565.8)
(499998 -105.077 -1.71593e-11 354.137 -1.81884e-11 50780.6)
(375151 -87434.8 -8.05722e-11 -17657.7 -7.68577e-11 36797.6)
(386907 -79211.6 -7.47927e-11 -17236.1 -7.13095e-11 38017.1)
(399567 -71834.7 -6.93447e-11 -15682.7 -6.63491e-11 39403.1)
(410511 -64986.3 -6.43849e-11 -14668.8 -6.17383e-11 40579.7)
(421207 -58462.4 -5.95758e-11 -13220.1 -5.7354e-11 41763.2)
(430814 -52540.6 -5.52449e-11 -12105.9 -5.3371e-11 42812.6)
(439877 -47000.4 -5.11699e-11 -10927.4 -4.9647e-11 43811.7)
(448096 -41939 -4.74655e-11 -9958.93 -4.62429e-11 44710.6)
(455692 -37239.9 -4.40296e-11 -9069.6 -4.30826e-11 45541)
(462576 -32901.6 -4.08764e-11 -8343.32 -4.01633e-11 46288.1)
(468843 -28852.7 -3.79508e-11 -7737.3 -3.74375e-11 46964.8)
(474486 -25057.8 -3.5234e-11 -7268 -3.48817e-11 47569.3)
(479550 -21465.1 -3.26854e-11 -6911.57 -3.2461e-11 48108.4)
(484057 -18037.8 -3.028e-11 -6648.38 -3.01512e-11 48585.7)
(488029 -14744.3 -2.79892e-11 -6437.71 -2.79315e-11 49006.8)
(491502 -11572 -2.5792e-11 -6202.76 -2.5795e-11 49381.1)
(494452 -8528.93 -2.36789e-11 -5834.23 -2.3749e-11 49714.4)
(496938 -5662.53 -2.16437e-11 -5110.45 -2.18297e-11 50029.1)
(498742 -3061.41 -1.97043e-11 -3716.67 -2.01027e-11 50327.7)
(500068 -842.757 -1.78455e-11 -1106.81 -1.86568e-11 50670.3)
(420145 -106494 -9.2622e-11 -29388.8 -8.93459e-11 40068.6)
(424764 -97074.6 -8.63983e-11 -29130 -8.30072e-11 40601.3)
(432104 -88387.2 -8.02099e-11 -26750.7 -7.71938e-11 41550.6)
(437724 -80464.6 -7.47215e-11 -25315.2 -7.18812e-11 42257.7)
(444080 -72752.9 -6.92135e-11 -23061.7 -6.67237e-11 43095.9)
(449669 -65753.4 -6.42646e-11 -21303.1 -6.20377e-11 43817.6)
(455350 -59123.2 -5.95262e-11 -19405.4 -5.76022e-11 44556)
(460566 -53037.2 -5.51982e-11 -17806.4 -5.35282e-11 45223.1)
(465612 -47348.4 -5.11467e-11 -16319.2 -4.97196e-11 45862.3)
(470295 -42076.5 -4.74116e-11 -15070.7 -4.61876e-11 46445.4)
(474711 -37143.7 -4.39307e-11 -14006 -4.28806e-11 46986.4)
(478804 -32518.5 -4.06901e-11 -13148.9 -3.97775e-11 47478.3)
(482605 -28145.6 -3.76488e-11 -12468.8 -3.68414e-11 47927.1)
(486109 -23984.5 -3.47766e-11 -11939 -3.40456e-11 48334.2)
(489318 -19994.2 -3.20396e-11 -11504.6 -3.13633e-11 48704.4)
(492245 -16144.7 -2.94043e-11 -11069.7 -2.87765e-11 49046.7)
(494827 -12415.2 -2.68397e-11 -10500.8 -2.6274e-11 49365.3)
(497108 -8781.9 -2.42894e-11 -9547.77 -2.38437e-11 49683.6)
(498777 -5275.79 -2.17398e-11 -7886.07 -2.15137e-11 49996.5)
(500099 -1642.71 -1.89283e-11 -4934.02 -1.9123e-11 50375.4)
(468443 -116352 -9.90153e-11 -43352.9 -9.55984e-11 43554.7)
(465636 -106895 -9.31058e-11 -43311.6 -8.92481e-11 43359.9)
(467753 -97670.3 -8.662e-11 -39803.7 -8.31071e-11 43899.2)
(467928 -89549.8 -8.11557e-11 -37884 -7.76831e-11 44123.2)
(469931 -81391 -7.53968e-11 -34666.1 -7.22533e-11 44621.5)
(471394 -74017.9 -7.02615e-11 -32123.8 -6.73405e-11 45010.8)
(473597 -66927 -6.52412e-11 -29355.9 -6.26198e-11 45486)
(475678 -60382.7 -6.06317e-11 -26968.5 -5.82598e-11 45916.4)
(478030 -54215.1 -5.62734e-11 -24733 -5.41496e-11 46358.3)
(480351 -48468.4 -5.22324e-11 -22817.6 -5.03163e-11 46769.7)
(482739 -43069.4 -4.84492e-11 -21164.5 -4.67118e-11 47164.8)
(485090 -37993.9 -4.49185e-11 -19807.3 -4.33194e-11 47531.5)
(487418 -33189.4 -4.16005e-11 -18713.5 -4.01042e-11 47873.9)
(489690 -28611.2 -3.84647e-11 -17855.5 -3.70371e-11 48191.1)
(491882 -24210.4 -3.54712e-11 -17173.5 -3.40861e-11 48486)
(493989 -19932.1 -3.25705e-11 -16567 -3.12161e-11 48766.1)
(495922 -15727.2 -2.9714e-11 -15899.6 -2.83969e-11 49033.6)
(497705 -11490.2 -2.67983e-11 -14929.7 -2.55625e-11 49310)
(499008 -7217.81 -2.37908e-11 -13368.3 -2.27163e-11 49585.9)
(500108 -2345.51 -2.02387e-11 -10668.2 -1.94884e-11 49933.6)
(519199 -117518 -9.95792e-11 -56003.5 -9.60267e-11 47441.4)
(508650 -109246 -9.48609e-11 -56757 -9.04765e-11 46435.8)
(505656 -100226 -8.8567e-11 -52268.7 -8.45033e-11 46558.9)
(500277 -92709.2 -8.36822e-11 -50133.4 -7.95021e-11 46263)
(497921 -84768.4 -7.81284e-11 -46166.6 -7.42432e-11 46399.4)
(495198 -77620.7 -7.32133e-11 -42994.6 -6.95034e-11 46434.2)
(493847 -70618.9 -6.82873e-11 -39506.7 -6.48644e-11 46623.3)
(492707 -64103.3 -6.37233e-11 -36422.6 -6.05443e-11 46798.1)
(492248 -57905.8 -5.93589e-11 -33507.1 -5.64334e-11 47023)
(492082 -52084.9 -5.52765e-11 -30951.9 -5.25681e-11 47245.5)
(492296 -46584.1 -5.14305e-11 -28714.2 -4.89113e-11 47477.9)
(492750 -41385.3 -4.78209e-11 -26838.9 -4.54501e-11 47703.3)
(493432 -36444.1 -4.44171e-11 -25306.6 -4.21552e-11 47922.5)
(494284 -31715.1 -4.11909e-11 -24099 -3.89963e-11 48131.6)
(495267 -27144 -3.81011e-11 -23167.1 -3.59384e-11 48331)
(496348 -22656.2 -3.50885e-11 -22427.4 -3.29324e-11 48524.5)
(497433 -18178.1 -3.20945e-11 -21765.1 -2.99317e-11 48712.6)
(498522 -13537.1 -2.89782e-11 -20982.8 -2.68237e-11 48911.2)
(499336 -8709.34 -2.57033e-11 -19856.7 -2.35971e-11 49111.2)
(500084 -2892.49 -2.16808e-11 -17932.7 -1.97206e-11 49373.1)
(569996 -109993 -9.42985e-11 -66591.3 -9.06499e-11 51554.5)
(551739 -104227 -9.17136e-11 -68822.2 -8.6775e-11 49679.2)
(544005 -96184.1 -8.61468e-11 -63737.8 -8.14812e-11 49386.6)
(533238 -90031.7 -8.23555e-11 -61630.2 -7.74095e-11 48562.5)
(526669 -83021.2 -7.74999e-11 -57220.1 -7.27945e-11 48322.2)
(519903 -76670.9 -7.31767e-11 -53508.8 -6.86103e-11 48005)
(515045 -70296.8 -6.8702e-11 -49402.1 -6.44132e-11 47900.7)
(510740 -64251.7 -6.44649e-11 -45643.2 -6.04294e-11 47820.5)
(507466 -58422.9 -6.0352e-11 -42069.1 -5.65854e-11 47823.3)
(504799 -52875.2 -5.64503e-11 -38878.6 -5.29214e-11 47852.8)
(502788 -47586.9 -5.27434e-11 -36063.1 -4.94235e-11 47914.5)
(501273 -42549.2 -4.92407e-11 -33677.4 -4.60848e-11 47989.1)
(500216 -37733.2 -4.59243e-11 -31718.8 -4.28861e-11 48073.4)
(499538 -33095.7 -4.27696e-11 -30184.4 -3.97987e-11 48160.2)
(499186 -28582.3 -3.97395e-11 -29043.7 -3.67863e-11 48247.3)
(499105 -24102.4 -3.67709e-11 -28241.3 -3.37897e-11 48334.4)
(499217 -19568.5 -3.37985e-11 -27696 -3.07516e-11 48420.6)
(499485 -14756.3 -3.06626e-11 -27279.2 -2.75236e-11 48514.1)
(499737 -9633.71 -2.73256e-11 -26839.3 -2.40874e-11 48610.2)
(500040 -3242.76 -2.31303e-11 -26073.7 -1.98042e-11 48745.4)
(618777 -94331 -8.33178e-11 -73160.7 -7.98829e-11 55841.9)
(593352 -92360.8 -8.37653e-11 -77539.6 -7.85365e-11 53087.9)
(581328 -86131.9 -7.95774e-11 -72774.2 -7.44663e-11 52346.7)
(565682 -81854.4 -7.72116e-11 -70880.5 -7.16629e-11 51025)
(555077 -76408 -7.35444e-11 -66651.9 -6.81052e-11 50372.7)
(544603 -71300.5 -7.014e-11 -62776.9 -6.47685e-11 49703.6)
(536354 -66047.1 -6.64867e-11 -58467.9 -6.13365e-11 49281.6)
(529030 -60902.1 -6.28886e-11 -54320.4 -5.79725e-11 48935.2)
(522995 -55846.1 -5.93126e-11 -50294.8 -5.46628e-11 48702.2)
(517866 -50929.1 -5.58361e-11 -46586.8 -5.14385e-11 48530.7)
(513634 -46168.2 -5.24765e-11 -43246.3 -4.831e-11 48415.9)
(510139 -41568.3 -4.92572e-11 -40356 -4.52797e-11 48336.1)
(507313 -37120.7 -4.61805e-11 -37950.8 -4.23412e-11 48282.3)
(505063 -32793 -4.32341e-11 -36060.2 -3.94724e-11 48243.4)
(503324 -28538.5 -4.03911e-11 -34687.7 -3.66418e-11 48213.4)
(502021 -24263.7 -3.75939e-11 -33822.6 -3.37871e-11 48186.7)
(501105 -19875.7 -3.47799e-11 -33430.7 -3.08467e-11 48161.7)
(500490 -15123.3 -3.17859e-11 -33470.4 -2.76522e-11 48135.4)
(500161 -9972.61 -2.85806e-11 -33865 -2.41829e-11 48112.3)
(499975 -3387.89 -2.44941e-11 -34507 -1.97445e-11 48094.9)
(663880 -72058.5 -6.35306e-11 -74411.3 -6.16373e-11 58475.8)
(632046 -74572.7 -6.98817e-11 -81272.9 -6.51944e-11 55958.3)
(616060 -71445 -6.97395e-11 -78989 -6.43944e-11 55308.6)
(596495 -69412.1 -6.90432e-11 -77623.6 -6.30994e-11 53554.4)
(582034 -66183 -6.70453e-11 -74059.3 -6.10292e-11 52465.7)
(568368 -62624.6 -6.47472e-11 -70115.8 -5.87426e-11 51484.5)
(556991 -58746.1 -6.20796e-11 -65690.7 -5.62445e-11 50761.6)
(546943 -54694.5 -5.92455e-11 -61253.5 -5.36272e-11 50168.2)
(538356 -50582.3 -5.63265e-11 -56904.3 -5.09643e-11 49708.5)
(530927 -46471.5 -5.34024e-11 -52835.2 -4.82939e-11 49338.2)
(524582 -42415.2 -5.05243e-11 -49133 -4.5651e-11 49043.3)
(519168 -38436 -4.77271e-11 -45897.9 -4.30491e-11 48801.4)
(514599 -34541 -4.50286e-11 -43190.9 -4.04919e-11 48599.6)
(510773 -30709.8 -4.24279e-11 -41069.7 -3.7965e-11 48423.7)
(507626 -26904 -3.99093e-11 -39572.3 -3.54417e-11 48265)
(505068 -23034 -3.74256e-11 -38737.1 -3.28614e-11 48112.7)
(503087 -19008.8 -3.49217e-11 -38582.1 -3.01631e-11 47965)
(501552 -14571.4 -3.22473e-11 -39161.5 -2.71725e-11 47807.1)
(500621 -9687.57 -2.93748e-11 -40477.1 -2.38667e-11 47654.2)
(499913 -3315.59 -2.56755e-11 -42648.4 -1.95442e-11 47468.5)
(701384 -43487.1 -4.02795e-11 -71720.1 -3.99059e-11 61097.2)
(669076 -48992.4 -4.85199e-11 -77248.9 -4.56323e-11 58687.9)
(648627 -50289.9 -5.23463e-11 -79718.6 -4.79309e-11 57327.6)
(626866 -50815.4 -5.58231e-11 -80177.2 -5.00618e-11 56174.8)
(608581 -50568.1 -5.67277e-11 -78779.8 -5.03806e-11 54764.7)
(591909 -49423.5 -5.62708e-11 -76036.6 -4.97017e-11 53386)
(577373 -47653 -5.51788e-11 -72308.4 -4.86151e-11 52291.7)
(564543 -45359.7 -5.36106e-11 -68085.9 -4.71828e-11 51402.4)
(553379 -42704.5 -5.17091e-11 -63639.5 -4.55068e-11 50692.3)
(543646 -39807.2 -4.96068e-11 -59262.4 -4.36639e-11 50115.9)
(535223 -36764.4 -4.73948e-11 -55136.6 -4.17151e-11 49646.7)
(527944 -33645.1 -4.51503e-11 -51431.4 -3.97043e-11 49255.6)
(521695 -30490.3 -4.29226e-11 -48267.1 -3.76571e-11 48922.3)
(516354 -27310 -4.07397e-11 -45753.9 -3.55786e-11 48626.3)
(511848 -24088.4 -3.86073e-11 -43977.6 -3.34565e-11 48354.4)
(508068 -20756.6 -3.65004e-11 -43038 -3.12431e-11 48089.1)
(505040 -17237.4 -3.43807e-11 -43012.2 -2.88848e-11 47827.5)
(502584 -13293.1 -3.21286e-11 -44059.9 -2.62194e-11 47541.9)
(501048 -8893.22 -2.97229e-11 -46265.9 -2.32235e-11 47259.5)
(499823 -3059.14 -2.66193e-11 -49982.5 -1.9235e-11 46902.4)
(722589 -19956.7 -2.23599e-11 -63771.3 -2.34864e-11 63519.8)
(692842 -22897 -2.86426e-11 -69529.1 -2.72757e-11 61244.4)
(669469 -28324.3 -3.55495e-11 -75142.4 -3.2187e-11 59270.9)
(647021 -30897.7 -4.04559e-11 -77572.4 -3.55019e-11 57798.3)
(627163 -32709.2 -4.4429e-11 -77650.1 -3.83514e-11 56764)
(608972 -33528.9 -4.54773e-11 -76188.8 -3.89727e-11 55127.3)
(592803 -33563 -4.57465e-11 -73427.9 -3.90852e-11 53789.4)
(578300 -32949.6 -4.54257e-11 -69932.1 -3.87724e-11 52671.9)
(565477 -31812.2 -4.46342e-11 -65987.9 -3.81117e-11 51753.3)
(554128 -30280.9 -4.35148e-11 -61931.2 -3.71848e-11 50987.4)
(544161 -28456.8 -4.21685e-11 -57985 -3.60554e-11 50347.6)
(535425 -26424.5 -4.06888e-11 -54359.9 -3.47777e-11 49802.8)
(527821 -24242.7 -3.91389e-11 -51217.4 -3.33873e-11 49330.6)
(521225 -21941.5 -3.75677e-11 -48710.8 -3.19026e-11 48907.5)
(515579 -19525.4 -3.60002e-11 -46970.6 -3.03243e-11 48517.6)
(510765 -16952.9 -3.44369e-11 -46151 -2.86213e-11 48138.4)
(506847 -14169.5 -3.28616e-11 -46387.7 -2.67549e-11 47766)
(503604 -10990.8 -3.12029e-11 -47927.3 -2.45968e-11 47361.8)
(501527 -7395.28 -2.94521e-11 -50934.3 -2.21282e-11 46960.5)
(499803 -2552.25 -2.7199e-11 -55977.2 -1.87823e-11 46447.1)
(711595 3138.58 -9.32468e-12 -54891.1 -1.01795e-11 64451.1)
(688246 -240.452 -1.51401e-11 -66916 -1.29962e-11 61672.3)
(666776 -6863.94 -2.25226e-11 -72734 -1.85137e-11 59750.4)
(646388 -11208.8 -2.82589e-11 -76020.4 -2.27263e-11 58244.2)
(628006 -14631.2 -3.27426e-11 -76682.6 -2.62137e-11 57053.9)
(610922 -17061 -3.48511e-11 -75759.6 -2.79047e-11 55470.1)
(595489 -18632.9 -3.61439e-11 -73493.5 -2.90403e-11 54153.4)
(581410 -19488.2 -3.68052e-11 -70432 -2.97057e-11 53032.3)
(568754 -19737.5 -3.69455e-11 -66857.6 -2.99701e-11 52091.1)
(557367 -19504.5 -3.66997e-11 -63106.4 -2.99102e-11 51288.6)
(547210 -18886.5 -3.61665e-11 -59407.3 -2.95876e-11 50602.7)
(538172 -17970 -3.54389e-11 -55982.8 -2.90569e-11 50005.3)
(530191 -16818.3 -3.45856e-11 -53008.9 -2.83568e-11 49476.6)
(523174 -15473.5 -3.36642e-11 -50658.9 -2.75133e-11 48993.8)
(517090 -13952.3 -3.2709e-11 -49085.6 -2.65344e-11 48542.7)
(511839 -12241.5 -3.17439e-11 -48475.6 -2.5408e-11 48099.2)
(507524 -10303.2 -3.07656e-11 -48996.3 -2.41052e-11 47660.8)
(503921 -8021.91 -2.97542e-11 -50944.9 -2.25436e-11 47184.3)
(501625 -5400.6 -2.87224e-11 -54551 -2.07193e-11 46709.1)
(499714 -1859.87 -2.74377e-11 -60465.3 -1.82331e-11 46101.4)
(703287 26298.9 4.18548e-12 -44400.2 3.21145e-12 65727.2)
(681787 20985.1 -2.62376e-12 -58364.6 -5.04139e-13 62760.8)
(663611 13177.2 -1.03084e-11 -65575.4 -6.36544e-12 60805.3)
(644835 7403.76 -1.67439e-11 -70364.2 -1.12125e-11 59163.9)
(627929 2622.2 -2.11052e-11 -72299.2 -1.46964e-11 57510.1)
(611744 -1183.93 -2.42253e-11 -72522.4 -1.72893e-11 55914.7)
(596971 -4091.49 -2.64856e-11 -71218.1 -1.93032e-11 54577.8)
(583273 -6252.14 -2.8084e-11 -68967.3 -2.08301e-11 53421.5)
(570817 -7753.16 -2.91117e-11 -66051.2 -2.19233e-11 52439.9)
(559472 -8711.74 -2.9702e-11 -62827.9 -2.26543e-11 51592.2)
(549243 -9216.49 -2.99494e-11 -59543.3 -2.30795e-11 50859.5)
(540046 -9353.47 -2.99471e-11 -56443.1 -2.3251e-11 50214.2)
(531843 -9188.7 -2.97702e-11 -53726.5 -2.32103e-11 49637.2)
(524565 -8774.15 -2.94834e-11 -51591.6 -2.29887e-11 49106.2)
(518197 -8139.91 -2.91348e-11 -50220.1 -2.26029e-11 48605.7)
(512663 -7300.93 -2.87679e-11 -49823 -2.20593e-11 48112.4)
(508080 -6238.24 -2.83985e-11 -50614.3 -2.13408e-11 47621.1)
(504236 -4922.85 -2.80616e-11 -52890.1 -2.04233e-11 47089.3)
(501800 -3342.05 -2.77606e-11 -56911 -1.92911e-11 46561.2)
(499695 -1153.73 -2.74426e-11 -63483.8 -1.77021e-11 45874.7)
(688699 44243.1 1.3496e-11 -35599.9 1.28206e-11 66396.7)
(670078 38814.5 6.98601e-12 -51137.9 9.45409e-12 63367.4)
(654976 30645.8 -1.9265e-13 -59219.3 3.96308e-12 61307.6)
(638304 24195.9 -5.85091e-12 -64999.1 -3.04519e-13 59221.9)
(623274 18526.7 -1.04988e-11 -67810.8 -4.09882e-12 57525.8)
(608482 13736.7 -1.43102e-11 -68850.7 -7.33448e-12 55994.1)
(594834 9779.57 -1.73032e-11 -68280 -1.00379e-11 54701.1)
(581972 6548.34 -1.96471e-11 -66684.8 -1.22702e-11 53566.9)
(570141 3978.36 -2.14156e-11 -64341.2 -1.40697e-11 52593.5)
(559234 1973.52 -2.27281e-11 -61611.2 -1.54943e-11 51742.3)
(549297 457.27 -2.36693e-11 -58744.6 -1.65904e-11 50998.1)
(540274 -649.383 -2.43303e-11 -55995.7 -1.74071e-11 50335.4)
(532157 -1411.52 -2.47842e-11 -53573.1 -1.79839e-11 49737.2)
(524896 -1889.41 -2.5103e-11 -51689.7 -1.83573e-11 49181.9)
(518496 -2121 -2.53392e-11 -50535.5 -1.85498e-11 48655.4)
(512908 -2160.29 -2.55657e-11 -50348.6 -1.8593e-11 48134.2)
(508244 -1978.14 -2.57889e-11 -51332.8 -1.8463e-11 47613.9)
(504358 -1680.66 -2.61339e-11 -53826.7 -1.82257e-11 47053.8)
(501879 -1129.14 -2.65435e-11 -58206.4 -1.77789e-11 46486.5)
(499683 -370.214 -2.71911e-11 -65119.6 -1.71449e-11 45754.7)
(670343 59143.4 2.34409e-11 -26884 2.25546e-11 65458.8)
(654650 53644.7 1.68637e-11 -43056.8 1.91226e-11 62681.3)
(642610 45528.6 9.90171e-12 -51716.3 1.37995e-11 60807.1)
(628242 38786.6 4.01818e-12 -58382.2 9.35736e-12 58872.4)
(615292 32609.3 -9.94798e-13 -62039.8 5.2423e-12 57307)
(602140 27173.8 -5.27784e-12 -63930.1 1.5924e-12 55862.8)
(589877 22461.4 -8.81187e-12 -64137.7 -1.60095e-12 54637.4)
(578124 18411.8 -1.1738e-11 -63253.1 -4.36761e-12 53549)
(567197 14985.3 -1.41091e-11 -61536.9 -6.72923e-12 52607.9)
(557007 12110.6 -1.60284e-11 -59354.3 -8.72648e-12 51777.1)
(547639 9727.18 -1.75689e-11 -56955.3 -1.03959e-11 51045.1)
(539059 7767.38 -1.88139e-11 -54602.3 -1.17774e-11 50388.3)