/*--------------------------------*- C++ -*----------------------------------*\
  =========                 |
  \\      /  F ield         | OpenFOAM: The Open Source CFD Toolbox
   \\    /   O peration     | Website:  https://openfoam.org
    \\  /    A nd           | Version:  9
     \\/     M anipulation  |
\*---------------------------------------------------------------------------*/
FoamFile
{
    format      ascii;
    class       volVectorField;
    location    "5";
    object      D;
}
// * * * * * * * * * * * * * * * * * * * * * * * * * * * * * * * * * * * * * //

dimensions      [0 1 0 0 0 0 0];

internalField   nonuniform List<vector> 
1000
(
(3.38131e-06 1.1311e-06 0)
(3.15528e-06 1.25009e-06 0)
(2.99088e-06 1.35012e-06 0)
(2.87211e-06 1.42829e-06 0)
(2.78741e-06 1.49571e-06 0)
(2.72774e-06 1.5537e-06 0)
(2.68742e-06 1.60594e-06 0)
(2.66189e-06 1.65351e-06 0)
(2.6476e-06 1.69788e-06 0)
(2.6427e-06 1.73994e-06 0)
(3.04692e-06 1.01939e-06 0)
(2.81215e-06 1.10592e-06 0)
(2.64253e-06 1.18173e-06 0)
(2.52057e-06 1.24026e-06 0)
(2.43373e-06 1.29163e-06 0)
(2.37233e-06 1.33581e-06 0)
(2.33032e-06 1.37586e-06 0)
(2.3029e-06 1.41249e-06 0)
(2.2864e-06 1.44647e-06 0)
(2.27835e-06 1.47961e-06 0)
(2.70539e-06 9.07508e-07 0)
(2.46844e-06 9.59428e-07 0)
(2.2983e-06 1.01e-06 0)
(2.17663e-06 1.04866e-06 0)
(2.09029e-06 1.08427e-06 0)
(2.02921e-06 1.11521e-06 0)
(1.98715e-06 1.14388e-06 0)
(1.95919e-06 1.17044e-06 0)
(1.94163e-06 1.19503e-06 0)
(1.93187e-06 1.21965e-06 0)
(2.35843e-06 7.97231e-07 0)
(2.12622e-06 8.13778e-07 0)
(1.96055e-06 8.39024e-07 0)
(1.8429e-06 8.58247e-07 0)
(1.75991e-06 8.7886e-07 0)
(1.7014e-06 8.97521e-07 0)
(1.66109e-06 9.15895e-07 0)
(1.63402e-06 9.33445e-07 0)
(1.61671e-06 9.49835e-07 0)
(1.6063e-06 9.66865e-07 0)
(2.00697e-06 6.90198e-07 0)
(1.78658e-06 6.72062e-07 0)
(1.63058e-06 6.73003e-07 0)
(1.52098e-06 6.74058e-07 0)
(1.44439e-06 6.81142e-07 0)
(1.3908e-06 6.89045e-07 0)
(1.35403e-06 6.98655e-07 0)
(1.32924e-06 7.08654e-07 0)
(1.31327e-06 7.18289e-07 0)
(1.30321e-06 7.2891e-07 0)
(1.65256e-06 5.87201e-07 0)
(1.4505e-06 5.365e-07 0)
(1.3095e-06 5.15495e-07 0)
(1.21211e-06 5.00691e-07 0)
(1.14507e-06 4.96545e-07 0)
(1.09873e-06 4.95839e-07 0)
(1.06721e-06 4.98687e-07 0)
(1.04601e-06 5.02948e-07 0)
(1.03235e-06 5.07553e-07 0)
(1.02338e-06 5.13282e-07 0)
(1.29384e-06 4.88219e-07 0)
(1.11717e-06 4.08603e-07 0)
(9.96917e-07 3.69695e-07 0)
(9.16217e-07 3.42792e-07 0)
(8.61968e-07 3.3074e-07 0)
(8.25105e-07 3.24276e-07 0)
(8.00398e-07 3.22768e-07 0)
(7.83838e-07 3.23356e-07 0)
(7.73178e-07 3.24796e-07 0)
(7.65873e-07 3.27281e-07 0)
(9.33377e-07 3.90472e-07 0)
(7.87957e-07 2.87949e-07 0)
(6.94627e-07 2.3811e-07 0)
(6.34901e-07 2.04908e-07 0)
(5.96124e-07 1.89529e-07 0)
(5.70329e-07 1.80861e-07 0)
(5.53342e-07 1.77731e-07 0)
(5.41963e-07 1.76848e-07 0)
(5.34628e-07 1.76983e-07 0)
(5.29338e-07 1.77899e-07 0)
(5.6315e-07 2.84374e-07 0)
(4.60591e-07 1.7115e-07 0)
(4.01663e-07 1.22179e-07 0)
(3.66637e-07 9.19025e-08 0)
(3.45384e-07 7.90656e-08 0)
(3.31486e-07 7.20935e-08 0)
(3.22531e-07 6.98142e-08 0)
(3.16419e-07 6.919e-08 0)
(3.1241e-07 6.93283e-08 0)
(3.09262e-07 6.9856e-08 0)
(1.93933e-07 1.48802e-07 0)
(1.46501e-07 6.2936e-08 0)
(1.28399e-07 3.27817e-08 0)
(1.18794e-07 1.77346e-08 0)
(1.13208e-07 1.26032e-08 0)
(1.09313e-07 1.034e-08 0)
(1.06771e-07 1.00925e-08 0)
(1.04911e-07 1.03668e-08 0)
(1.03642e-07 1.08207e-08 0)
(1.02525e-07 1.13099e-08 0)
(5.96403e-06 1.83601e-06 0)
(5.95453e-06 2.06507e-06 0)
(5.94807e-06 2.27849e-06 0)
(5.94862e-06 2.47381e-06 0)
(5.9579e-06 2.65304e-06 0)
(5.97657e-06 2.81841e-06 0)
(6.00472e-06 2.97251e-06 0)
(6.04179e-06 3.11758e-06 0)
(6.08745e-06 3.25542e-06 0)
(6.14055e-06 3.38799e-06 0)
(5.77702e-06 1.82089e-06 0)
(5.75087e-06 2.0493e-06 0)
(5.73316e-06 2.26011e-06 0)
(5.72551e-06 2.4515e-06 0)
(5.72881e-06 2.62592e-06 0)
(5.74251e-06 2.78576e-06 0)
(5.76618e-06 2.93385e-06 0)
(5.79871e-06 3.07257e-06 0)
(5.83966e-06 3.20378e-06 0)
(5.88745e-06 3.3297e-06 0)
(5.57866e-06 1.79019e-06 0)
(5.53278e-06 2.01804e-06 0)
(5.49976e-06 2.22457e-06 0)
(5.48001e-06 2.40978e-06 0)
(5.47377e-06 2.57742e-06 0)
(5.47944e-06 2.7302e-06 0)
(5.49606e-06 2.87116e-06 0)
(5.52198e-06 3.00272e-06 0)
(5.55659e-06 3.12679e-06 0)
(5.59776e-06 3.24569e-06 0)
(5.36427e-06 1.74556e-06 0)
(5.29623e-06 1.97235e-06 0)
(5.24539e-06 2.17361e-06 0)
(5.21132e-06 2.35127e-06 0)
(5.19334e-06 2.51074e-06 0)
(5.18904e-06 2.65516e-06 0)
(5.19696e-06 2.78784e-06 0)
(5.21487e-06 2.91122e-06 0)
(5.24206e-06 3.0273e-06 0)
(5.27573e-06 3.13834e-06 0)
(5.13138e-06 1.68743e-06 0)
(5.03904e-06 1.91134e-06 0)
(4.96914e-06 2.10568e-06 0)
(4.91995e-06 2.27404e-06 0)
(4.88957e-06 2.42375e-06 0)
(4.87472e-06 2.55837e-06 0)
(4.87341e-06 2.68154e-06 0)
(4.88291e-06 2.79568e-06 0)
(4.90234e-06 2.90288e-06 0)
(4.92832e-06 3.00528e-06 0)
(4.87966e-06 1.61713e-06 0)
(4.76163e-06 1.83508e-06 0)
(4.67227e-06 2.02049e-06 0)
(4.60796e-06 2.17796e-06 0)
(4.56529e-06 2.3166e-06 0)
(4.54003e-06 2.44026e-06 0)
(4.52963e-06 2.5529e-06 0)
(4.53088e-06 2.65687e-06 0)
(4.5427e-06 2.75441e-06 0)
(4.56123e-06 2.84738e-06 0)
(4.60975e-06 1.53573e-06 0)
(4.46567e-06 1.74357e-06 0)
(4.35725e-06 1.9175e-06 0)
(4.27852e-06 2.06235e-06 0)
(4.2243e-06 2.18865e-06 0)
(4.18937e-06 2.30032e-06 0)
(4.17054e-06 2.40159e-06 0)
(4.16419e-06 2.49467e-06 0)
(4.16896e-06 2.58192e-06 0)
(4.18067e-06 2.66487e-06 0)
(4.32307e-06 1.44475e-06 0)
(4.15382e-06 1.63767e-06 0)
(4.02757e-06 1.7973e-06 0)
(3.93565e-06 1.92781e-06 0)
(3.87108e-06 2.04065e-06 0)
(3.82758e-06 2.13953e-06 0)
(3.80133e-06 2.22883e-06 0)
(3.7883e-06 2.31052e-06 0)
(3.78682e-06 2.38706e-06 0)
(3.79261e-06 2.45948e-06 0)
(4.02142e-06 1.34575e-06 0)
(3.82926e-06 1.51869e-06 0)
(3.6872e-06 1.66111e-06 0)
(3.58388e-06 1.77558e-06 0)
(3.51057e-06 1.87397e-06 0)
(3.45992e-06 1.95949e-06 0)
(3.42747e-06 2.03642e-06 0)
(3.40893e-06 2.10651e-06 0)
(3.40212e-06 2.17203e-06 0)
(3.40311e-06 2.2338e-06 0)
(3.70682e-06 1.24055e-06 0)
(3.49531e-06 1.38866e-06 0)
(3.34028e-06 1.51108e-06 0)
(3.22785e-06 1.60801e-06 0)
(3.14769e-06 1.69118e-06 0)
(3.09155e-06 1.76297e-06 0)
(3.05435e-06 1.82748e-06 0)
(3.03156e-06 1.88596e-06 0)
(3.0205e-06 1.94065e-06 0)
(3.01808e-06 1.99109e-06 0)
(6.20394e-06 3.51548e-06 0)
(6.27668e-06 3.64199e-06 0)
(6.35497e-06 3.76647e-06 0)
(6.4382e-06 3.8895e-06 0)
(6.52593e-06 4.01171e-06 0)
(6.61766e-06 4.13347e-06 0)
(6.71301e-06 4.2552e-06 0)
(6.81157e-06 4.37717e-06 0)
(6.91301e-06 4.49966e-06 0)
(7.01699e-06 4.62287e-06 0)
(7.12322e-06 4.74701e-06 0)
(7.23141e-06 4.87221e-06 0)
(7.3413e-06 4.99862e-06 0)
(7.45262e-06 5.12634e-06 0)
(7.56513e-06 5.25543e-06 0)
(7.67857e-06 5.38593e-06 0)
(7.7927e-06 5.51781e-06 0)
(7.90727e-06 5.65098e-06 0)
(8.02208e-06 5.7852e-06 0)
(8.13687e-06 5.92006e-06 0)
(5.95353e-06 3.45238e-06 0)
(6.0352e-06 3.5768e-06 0)
(6.12122e-06 3.69929e-06 0)
(6.21091e-06 3.82058e-06 0)
(6.30413e-06 3.9413e-06 0)
(6.40046e-06 4.0618e-06 0)
(6.49968e-06 4.1825e-06 0)
(6.60148e-06 4.30365e-06 0)
(6.70563e-06 4.42553e-06 0)
(6.81189e-06 4.54833e-06 0)
(6.92003e-06 4.67223e-06 0)
(7.02984e-06 4.79739e-06 0)
(7.14113e-06 4.92391e-06 0)
(7.25371e-06 5.05191e-06 0)
(7.36739e-06 5.18145e-06 0)
(7.48199e-06 5.31256e-06 0)
(7.59734e-06 5.44522e-06 0)
(7.71325e-06 5.57933e-06 0)
(7.82956e-06 5.71467e-06 0)
(7.94599e-06 5.8509e-06 0)
(5.66749e-06 3.36474e-06 0)
(5.76068e-06 3.4894e-06 0)
(5.857e-06 3.61219e-06 0)
(5.95558e-06 3.73372e-06 0)
(6.05664e-06 3.85479e-06 0)
(6.15978e-06 3.97565e-06 0)
(6.26497e-06 4.09681e-06 0)
(6.372e-06 4.21848e-06 0)
(6.48075e-06 4.34098e-06 0)
(6.59107e-06 4.46448e-06 0)
(6.70284e-06 4.58917e-06 0)
(6.81591e-06 4.71521e-06 0)
(6.93018e-06 4.84273e-06 0)
(7.04551e-06 4.97183e-06 0)
(7.16181e-06 5.10259e-06 0)
(7.27893e-06 5.23506e-06 0)
(7.39678e-06 5.36924e-06 0)
(7.51519e-06 5.5051e-06 0)
(7.63403e-06 5.64253e-06 0)
(7.75299e-06 5.7813e-06 0)
(5.35002e-06 3.25449e-06 0)
(5.45689e-06 3.38118e-06 0)
(5.56573e-06 3.50609e-06 0)
(5.67528e-06 3.6295e-06 0)
(5.78623e-06 3.75243e-06 0)
(5.8981e-06 3.87506e-06 0)
(6.01113e-06 3.99796e-06 0)
(6.12514e-06 4.12134e-06 0)
(6.24018e-06 4.24555e-06 0)
(6.35615e-06 4.37077e-06 0)
(6.47305e-06 4.49722e-06 0)
(6.59081e-06 4.62506e-06 0)
(6.7094e-06 4.75443e-06 0)
(6.82877e-06 4.88545e-06 0)
(6.94886e-06 5.01822e-06 0)
(7.06962e-06 5.15283e-06 0)
(7.19098e-06 5.28932e-06 0)
(7.31281e-06 5.42775e-06 0)
(7.43502e-06 5.56813e-06 0)
(7.55728e-06 5.71039e-06 0)
(5.00803e-06 3.11951e-06 0)
(5.13022e-06 3.25029e-06 0)
(5.25324e-06 3.37939e-06 0)
(5.37532e-06 3.50651e-06 0)
(5.49769e-06 3.63305e-06 0)
(5.61977e-06 3.75901e-06 0)
(5.74205e-06 3.88509e-06 0)
(5.86439e-06 4.01152e-06 0)
(5.98699e-06 4.13866e-06 0)
(6.10984e-06 4.26674e-06 0)
(6.23302e-06 4.39599e-06 0)
(6.35655e-06 4.5266e-06 0)
(6.48049e-06 4.65872e-06 0)
(6.60484e-06 4.79252e-06 0)
(6.72962e-06 4.92811e-06 0)
(6.85483e-06 5.06564e-06 0)
(6.98045e-06 5.20521e-06 0)
(7.10641e-06 5.34695e-06 0)
(7.23265e-06 5.49104e-06 0)
(7.35888e-06 5.63753e-06 0)
(4.64713e-06 2.96061e-06 0)
(4.78579e-06 3.09738e-06 0)
(4.92424e-06 3.23261e-06 0)
(5.06001e-06 3.36518e-06 0)
(5.19496e-06 3.49693e-06 0)
(5.32837e-06 3.62773e-06 0)
(5.46099e-06 3.75839e-06 0)
(5.59272e-06 3.88915e-06 0)
(5.72388e-06 4.02042e-06 0)
(5.85456e-06 4.15246e-06 0)
(5.98493e-06 4.28554e-06 0)
(6.11509e-06 4.41987e-06 0)
(6.24516e-06 4.55565e-06 0)
(6.37523e-06 4.69306e-06 0)
(6.50537e-06 4.83227e-06 0)
(6.63565e-06 4.97345e-06 0)
(6.76611e-06 5.1168e-06 0)
(6.89674e-06 5.26251e-06 0)
(7.02752e-06 5.41091e-06 0)
(7.15826e-06 5.56215e-06 0)
(4.2733e-06 2.7781e-06 0)
(4.42902e-06 2.92277e-06 0)
(4.58366e-06 3.06601e-06 0)
(4.73387e-06 3.2058e-06 0)
(4.88216e-06 3.34433e-06 0)
(5.02769e-06 3.48146e-06 0)
(5.17141e-06 3.61805e-06 0)
(5.31328e-06 3.75441e-06 0)
(5.45373e-06 3.89098e-06 0)
(5.59293e-06 4.02809e-06 0)
(5.73114e-06 4.16602e-06 0)
(5.86853e-06 4.30504e-06 0)
(6.0053e-06 4.44538e-06 0)
(6.14161e-06 4.58724e-06 0)
(6.27761e-06 4.73084e-06 0)
(6.41341e-06 4.87639e-06 0)
(6.54911e-06 5.02415e-06 0)
(6.68479e-06 5.17439e-06 0)
(6.82049e-06 5.32756e-06 0)
(6.95615e-06 5.48391e-06 0)
(3.8922e-06 2.57363e-06 0)
(4.06502e-06 2.72801e-06 0)
(4.23604e-06 2.88075e-06 0)
(4.40103e-06 3.02939e-06 0)
(4.56301e-06 3.17612e-06 0)
(4.72112e-06 3.32101e-06 0)
(4.87641e-06 3.46484e-06 0)
(5.02893e-06 3.60803e-06 0)
(5.17917e-06 3.75106e-06 0)
(5.32739e-06 3.89429e-06 0)
(5.4739e-06 4.03807e-06 0)
(5.61897e-06 4.18268e-06 0)
(5.76285e-06 4.32841e-06 0)
(5.90577e-06 4.4755e-06 0)
(6.04794e-06 4.6242e-06 0)
(6.18955e-06 4.77477e-06 0)
(6.33076e-06 4.92751e-06 0)
(6.47174e-06 5.08274e-06 0)
(6.61259e-06 5.24102e-06 0)
(6.75344e-06 5.40265e-06 0)
(3.5096e-06 2.34914e-06 0)
(3.69907e-06 2.51512e-06 0)
(3.88601e-06 2.67853e-06 0)
(4.06587e-06 2.83751e-06 0)
(4.24148e-06 2.99363e-06 0)
(4.41232e-06 3.1474e-06 0)
(4.5793e-06 3.29953e-06 0)
(4.74265e-06 3.45059e-06 0)
(4.90289e-06 3.60108e-06 0)
(5.06034e-06 3.75141e-06 0)
(5.2154e-06 3.90198e-06 0)
(5.36838e-06 4.0531e-06 0)
(5.51959e-06 4.20508e-06 0)
(5.66932e-06 4.35819e-06 0)
(5.81785e-06 4.51271e-06 0)
(5.96543e-06 4.66893e-06 0)
(6.1123e-06 4.82718e-06 0)
(6.25872e-06 4.98782e-06 0)
(6.40484e-06 5.15146e-06 0)
(6.55101e-06 5.31844e-06 0)
(3.13002e-06 2.10807e-06 0)
(3.33526e-06 2.28684e-06 0)
(3.53644e-06 2.46127e-06 0)
(3.73078e-06 2.63169e-06 0)
(3.91976e-06 2.79843e-06 0)
(4.10338e-06 2.96229e-06 0)
(4.28222e-06 3.12389e-06 0)
(4.45662e-06 3.28384e-06 0)
(4.62707e-06 3.44272e-06 0)
(4.79397e-06 3.60101e-06 0)
(4.95774e-06 3.75915e-06 0)
(5.11876e-06 3.9175e-06 0)
(5.27741e-06 4.07641e-06 0)
(5.43405e-06 4.23618e-06 0)
(5.58899e-06 4.39711e-06 0)
(5.74258e-06 4.55949e-06 0)
(5.89511e-06 4.72368e-06 0)
(6.04695e-06 4.89004e-06 0)
(6.19832e-06 5.0592e-06 0)
(6.34981e-06 5.23151e-06 0)
(2.83739e-06 1.92734e-06 0)
(3.05135e-06 2.1154e-06 0)
(3.25999e-06 2.29605e-06 0)
(3.46217e-06 2.47299e-06 0)
(3.65873e-06 2.64622e-06 0)
(3.84969e-06 2.81651e-06 0)
(4.03555e-06 2.98443e-06 0)
(4.21661e-06 3.15051e-06 0)
(4.39331e-06 3.31529e-06 0)
(4.56604e-06 3.47921e-06 0)
(4.73521e-06 3.6427e-06 0)
(4.90122e-06 3.80611e-06 0)
(5.06445e-06 3.96976e-06 0)
(5.22528e-06 4.13395e-06 0)
(5.38406e-06 4.29897e-06 0)
(5.54118e-06 4.46509e-06 0)
(5.69697e-06 4.63264e-06 0)
(5.85189e-06 4.80196e-06 0)
(6.00619e-06 4.97358e-06 0)
(6.16066e-06 5.14782e-06 0)
(2.64228e-06 1.8193e-06 0)
(2.85624e-06 2.0073e-06 0)
(3.06491e-06 2.1894e-06 0)
(3.26773e-06 2.36833e-06 0)
(3.46526e-06 2.54402e-06 0)
(3.65745e-06 2.717e-06 0)
(3.84472e-06 2.88773e-06 0)
(4.02727e-06 3.05665e-06 0)
(4.20549e-06 3.22419e-06 0)
(4.3797e-06 3.39073e-06 0)
(4.55027e-06 3.55663e-06 0)
(4.71757e-06 3.72222e-06 0)
(4.88196e-06 3.88776e-06 0)
(5.0438e-06 4.05353e-06 0)
(5.20346e-06 4.21978e-06 0)
(5.36133e-06 4.38675e-06 0)
(5.51774e-06 4.55471e-06 0)
(5.67319e-06 4.72394e-06 0)
(5.82797e-06 4.89486e-06 0)
(5.98298e-06 5.06771e-06 0)
(2.47011e-06 1.71563e-06 0)
(2.68018e-06 1.90304e-06 0)
(2.88669e-06 2.08563e-06 0)
(3.08792e-06 2.26574e-06 0)
(3.28463e-06 2.44319e-06 0)
(3.47644e-06 2.6183e-06 0)
(3.66371e-06 2.7914e-06 0)
(3.84651e-06 2.96281e-06 0)
(4.02517e-06 3.13286e-06 0)
(4.19992e-06 3.30185e-06 0)
(4.37109e-06 3.47006e-06 0)
(4.539e-06 3.63775e-06 0)
(4.70398e-06 3.80516e-06 0)
(4.86637e-06 3.9725e-06 0)
(5.02653e-06 4.13998e-06 0)
(5.18483e-06 4.30778e-06 0)
(5.34162e-06 4.47611e-06 0)
(5.49743e-06 4.64519e-06 0)
(5.65254e-06 4.81526e-06 0)
(5.80792e-06 4.9865e-06 0)
(2.31582e-06 1.61586e-06 0)
(2.52083e-06 1.8017e-06 0)
(2.72361e-06 1.98408e-06 0)
(2.92183e-06 2.16488e-06 0)
(3.1163e-06 2.34365e-06 0)
(3.30642e-06 2.52055e-06 0)
(3.49248e-06 2.69574e-06 0)
(3.67445e-06 2.8694e-06 0)
(3.85257e-06 3.04177e-06 0)
(4.027e-06 3.21305e-06 0)
(4.19801e-06 3.38344e-06 0)
(4.36588e-06 3.55315e-06 0)
(4.5309e-06 3.72235e-06 0)
(4.69338e-06 3.8912e-06 0)
(4.85365e-06 4.05985e-06 0)
(5.01208e-06 4.22844e-06 0)
(5.16902e-06 4.39708e-06 0)
(5.32495e-06 4.56594e-06 0)
(5.48023e-06 4.7351e-06 0)
(5.63582e-06 4.9046e-06 0)
(2.17767e-06 1.52101e-06 0)
(2.3765e-06 1.70472e-06 0)
(2.57428e-06 1.88631e-06 0)
(2.76827e-06 2.06718e-06 0)
(2.95933e-06 2.24671e-06 0)
(3.14665e-06 2.42489e-06 0)
(3.33049e-06 2.60173e-06 0)
(3.51068e-06 2.77729e-06 0)
(3.6874e-06 2.95167e-06 0)
(3.86075e-06 3.12499e-06 0)
(4.03093e-06 3.29737e-06 0)
(4.19817e-06 3.46893e-06 0)
(4.36273e-06 3.6398e-06 0)
(4.52487e-06 3.81006e-06 0)
(4.6849e-06 3.97981e-06 0)
(4.84315e-06 4.14912e-06 0)
(4.99999e-06 4.31803e-06 0)
(5.15577e-06 4.4866e-06 0)
(5.31117e-06 4.6547e-06 0)
(5.46687e-06 4.82241e-06 0)
(2.053e-06 1.43102e-06 0)
(2.24503e-06 1.61209e-06 0)
(2.43699e-06 1.79236e-06 0)
(2.6259e-06 1.97281e-06 0)
(2.81266e-06 2.15264e-06 0)
(2.99632e-06 2.3317e-06 0)
(3.17708e-06 2.50981e-06 0)
(3.3547e-06 2.68692e-06 0)
(3.52929e-06 2.86302e-06 0)
(3.70088e-06 3.03812e-06 0)
(3.86964e-06 3.21226e-06 0)
(4.03572e-06 3.38549e-06 0)
(4.19935e-06 3.55786e-06 0)
(4.36077e-06 3.72941e-06 0)
(4.52024e-06 3.90015e-06 0)
(4.67807e-06 4.07009e-06 0)
(4.83456e-06 4.23921e-06 0)
(4.99021e-06 4.40739e-06 0)
(5.14527e-06 4.5745e-06 0)
(5.30068e-06 4.74051e-06 0)
(1.93963e-06 1.34594e-06 0)
(2.12448e-06 1.52407e-06 0)
(2.31004e-06 1.70266e-06 0)
(2.49326e-06 1.88226e-06 0)
(2.67504e-06 2.06198e-06 0)
(2.85436e-06 2.24149e-06 0)
(3.03137e-06 2.4205e-06 0)
(3.20577e-06 2.59881e-06 0)
(3.37761e-06 2.7763e-06 0)
(3.54689e-06 2.95289e-06 0)
(3.7137e-06 3.12855e-06 0)
(3.87818e-06 3.30322e-06 0)
(4.04049e-06 3.47691e-06 0)
(4.20083e-06 3.64958e-06 0)
(4.35944e-06 3.82119e-06 0)
(4.5166e-06 3.99167e-06 0)
(4.67257e-06 4.16091e-06 0)
(4.82779e-06 4.32877e-06 0)
(4.98249e-06 4.49492e-06 0)
(5.13752e-06 4.65923e-06 0)
(1.83543e-06 1.26557e-06 0)
(2.01292e-06 1.44056e-06 0)
(2.19172e-06 1.61719e-06 0)
(2.36886e-06 1.79563e-06 0)
(2.54517e-06 1.97489e-06 0)
(2.71964e-06 2.15452e-06 0)
(2.89237e-06 2.33407e-06 0)
(3.06304e-06 2.51326e-06 0)
(3.23164e-06 2.69184e-06 0)
(3.39814e-06 2.86964e-06 0)
(3.56258e-06 3.04654e-06 0)
(3.72505e-06 3.22244e-06 0)
(3.88569e-06 3.39724e-06 0)
(4.04467e-06 3.57086e-06 0)
(4.20217e-06 3.74319e-06 0)
(4.35844e-06 3.91411e-06 0)
(4.5137e-06 4.08344e-06 0)
(4.66834e-06 4.25094e-06 0)
(4.82254e-06 4.41621e-06 0)
(4.97707e-06 4.579e-06 0)
(1.73849e-06 1.18964e-06 0)
(1.90857e-06 1.36145e-06 0)
(2.0804e-06 1.53595e-06 0)
(2.25118e-06 1.71301e-06 0)
(2.42169e-06 1.89155e-06 0)
(2.59094e-06 2.07099e-06 0)
(2.75901e-06 2.25079e-06 0)
(2.92554e-06 2.43054e-06 0)
(3.09052e-06 2.60991e-06 0)
(3.25385e-06 2.78865e-06 0)
(3.41557e-06 2.96653e-06 0)
(3.57573e-06 3.14341e-06 0)
(3.73442e-06 3.31911e-06 0)
(3.89178e-06 3.49349e-06 0)
(4.04795e-06 3.66641e-06 0)
(4.20315e-06 3.83766e-06 0)
(4.35755e-06 4.00702e-06 0)
(4.51147e-06 4.1742e-06 0)
(4.66506e-06 4.33868e-06 0)
(4.81895e-06 4.50017e-06 0)
(1.64707e-06 1.11786e-06 0)
(1.80973e-06 1.28653e-06 0)
(1.9745e-06 1.45884e-06 0)
(2.13876e-06 1.63437e-06 0)
(2.30324e-06 1.81197e-06 0)
(2.46701e-06 1.991e-06 0)
(2.63012e-06 2.17078e-06 0)
(2.79222e-06 2.35083e-06 0)
(2.95328e-06 2.53071e-06 0)
(3.11317e-06 2.71011e-06 0)
(3.27191e-06 2.88873e-06 0)
(3.4295e-06 3.06633e-06 0)
(3.58602e-06 3.24272e-06 0)
(3.74156e-06 3.41768e-06 0)
(3.89623e-06 3.59102e-06 0)
(4.0502e-06 3.76251e-06 0)
(4.20362e-06 3.93186e-06 0)
(4.35672e-06 4.09874e-06 0)
(4.5096e-06 4.26257e-06 0)
(4.66275e-06 4.42301e-06 0)
(1.55955e-06 1.04994e-06 0)
(1.71482e-06 1.2156e-06 0)
(1.87248e-06 1.38571e-06 0)
(2.03012e-06 1.55963e-06 0)
(2.18843e-06 1.73617e-06 0)
(2.34655e-06 1.91459e-06 0)
(2.50451e-06 2.09413e-06 0)
(2.66198e-06 2.27423e-06 0)
(2.81891e-06 2.45438e-06 0)
(2.97516e-06 2.63418e-06 0)
(3.13071e-06 2.81328e-06 0)
(3.28556e-06 2.99138e-06 0)
(3.43973e-06 3.16824e-06 0)
(3.59331e-06 3.34359e-06 0)
(3.74635e-06 3.51721e-06 0)
(3.89899e-06 3.68882e-06 0)
(4.05132e-06 3.85811e-06 0)
(4.20351e-06 4.02473e-06 0)
(4.35562e-06 4.18806e-06 0)
(4.50795e-06 4.34775e-06 0)
(1.47441e-06 9.85645e-07 0)
(1.62232e-06 1.14846e-06 0)
(1.77285e-06 1.31643e-06 0)
(1.92382e-06 1.48872e-06 0)
(2.07588e-06 1.6641e-06 0)
(2.22824e-06 1.84176e-06 0)
(2.38094e-06 2.02087e-06 0)
(2.53366e-06 2.2008e-06 0)
(2.68632e-06 2.38098e-06 0)
(2.8388e-06 2.56094e-06 0)
(2.99105e-06 2.74029e-06 0)
(3.14304e-06 2.91866e-06 0)
(3.29477e-06 3.09577e-06 0)
(3.44628e-06 3.27133e-06 0)
(3.59762e-06 3.44506e-06 0)
(3.74885e-06 3.61669e-06 0)
(3.90003e-06 3.78588e-06 0)
(4.05126e-06 3.95228e-06 0)
(4.20255e-06 4.11528e-06 0)
(4.35402e-06 4.27452e-06 0)
(1.3902e-06 9.24739e-07 0)
(1.53076e-06 1.08493e-06 0)
(1.67414e-06 1.25085e-06 0)
(1.81842e-06 1.42151e-06 0)
(1.96418e-06 1.59567e-06 0)
(2.11074e-06 1.77245e-06 0)
(2.25812e-06 1.95097e-06 0)
(2.40603e-06 2.13054e-06 0)
(2.55438e-06 2.31054e-06 0)
(2.70304e-06 2.49044e-06 0)
(2.85194e-06 2.6698e-06 0)
(3.00103e-06 2.84823e-06 0)
(3.15028e-06 3.02539e-06 0)
(3.2997e-06 3.20096e-06 0)
(3.44928e-06 3.37466e-06 0)
(3.59907e-06 3.5462e-06 0)
(3.74908e-06 3.71525e-06 0)
(3.89932e-06 3.88146e-06 0)
(4.04977e-06 4.04427e-06 0)
(4.20038e-06 4.20337e-06 0)
(1.30549e-06 8.67135e-07 0)
(1.43866e-06 1.02491e-06 0)
(1.57487e-06 1.18888e-06 0)
(1.71243e-06 1.35794e-06 0)
(1.8519e-06 1.53083e-06 0)
(1.99266e-06 1.70662e-06 0)
(2.13474e-06 1.8844e-06 0)
(2.27786e-06 2.06342e-06 0)
(2.42193e-06 2.24303e-06 0)
(2.56679e-06 2.42266e-06 0)
(2.71238e-06 2.60182e-06 0)
(2.85859e-06 2.78009e-06 0)
(3.00539e-06 2.95709e-06 0)
(3.15273e-06 3.13251e-06 0)
(3.30059e-06 3.30603e-06 0)
(3.44895e-06 3.47737e-06 0)
(3.59779e-06 3.64621e-06 0)
(3.74707e-06 3.81225e-06 0)
(3.8967e-06 3.97502e-06 0)
(4.04648e-06 4.13426e-06 0)
(1.21876e-06 8.12667e-07 0)
(1.34448e-06 9.68245e-07 0)
(1.47348e-06 1.13036e-06 0)
(1.60434e-06 1.29784e-06 0)
(1.73754e-06 1.46942e-06 0)
(1.87257e-06 1.64413e-06 0)
(2.00942e-06 1.82102e-06 0)
(2.14784e-06 1.99933e-06 0)
(2.28773e-06 2.17836e-06 0)
(2.42892e-06 2.35751e-06 0)
(2.5713e-06 2.53626e-06 0)
(2.71476e-06 2.71417e-06 0)
(2.85921e-06 2.89085e-06 0)
(3.00458e-06 3.06594e-06 0)
(3.1508e-06 3.23914e-06 0)
(3.29781e-06 3.41017e-06 0)
(3.44554e-06 3.57874e-06 0)
(3.59389e-06 3.74461e-06 0)
(3.74274e-06 3.90743e-06 0)
(3.89178e-06 4.06703e-06 0)
(1.12851e-06 7.61513e-07 0)
(1.24665e-06 9.15043e-07 0)
(1.36839e-06 1.07535e-06 0)
(1.49256e-06 1.24125e-06 0)
(1.61957e-06 1.41143e-06 0)
(1.74897e-06 1.58493e-06 0)
(1.88075e-06 1.76077e-06 0)
(2.01466e-06 1.93818e-06 0)
(2.15056e-06 2.11642e-06 0)
(2.28828e-06 2.29488e-06 0)
(2.42767e-06 2.47302e-06 0)
(2.56858e-06 2.65038e-06 0)
(2.71088e-06 2.82655e-06 0)
(2.85446e-06 3.00116e-06 0)
(2.9992e-06 3.1739e-06 0)
(3.145e-06 3.34451e-06 0)
(3.29173e-06 3.51275e-06 0)
(3.43926e-06 3.67843e-06 0)
(3.58742e-06 3.84134e-06 0)
(3.73582e-06 4.00145e-06 0)
(1.03292e-06 7.13403e-07 0)
(1.14335e-06 8.65012e-07 0)
(1.2578e-06 1.02355e-06 0)
(1.37534e-06 1.18783e-06 0)
(1.49629e-06 1.35653e-06 0)
(1.62026e-06 1.52869e-06 0)
(1.74721e-06 1.70333e-06 0)
(1.87687e-06 1.87966e-06 0)
(2.00908e-06 2.05692e-06 0)
(2.14364e-06 2.23451e-06 0)
(2.28037e-06 2.41187e-06 0)
(2.41905e-06 2.5885e-06 0)
(2.55952e-06 2.764e-06 0)
(2.70161e-06 2.93799e-06 0)
(2.84514e-06 3.11017e-06 0)
(2.98996e-06 3.28027e-06 0)
(3.13589e-06 3.4481e-06 0)
(3.28276e-06 3.61354e-06 0)
(3.43035e-06 3.77654e-06 0)
(3.57825e-06 3.93722e-06 0)
(9.30243e-07 6.69087e-07 0)
(1.03282e-06 8.18731e-07 0)
(1.13996e-06 9.75382e-07 0)
(1.25098e-06 1.13786e-06 0)
(1.36607e-06 1.30489e-06 0)
(1.48489e-06 1.47549e-06 0)
(1.60733e-06 1.64869e-06 0)
(1.73312e-06 1.82368e-06 0)
(1.86206e-06 1.99974e-06 0)
(1.9939e-06 2.17622e-06 0)
(2.12839e-06 2.35256e-06 0)
(2.26528e-06 2.52828e-06 0)
(2.40435e-06 2.70294e-06 0)
(2.54536e-06 2.87618e-06 0)
(2.68807e-06 3.04768e-06 0)
(2.83225e-06 3.2172e-06 0)
(2.97769e-06 3.38456e-06 0)
(3.12413e-06 3.5497e-06 0)
(3.27134e-06 3.71272e-06 0)
(3.41891e-06 3.87392e-06 0)
(8.17885e-07 6.27509e-07 0)
(9.12507e-07 7.75158e-07 0)
(1.01242e-06 9.29827e-07 0)
(1.11713e-06 1.0904e-06 0)
(1.22669e-06 1.2556e-06 0)
(1.34078e-06 1.42447e-06 0)
(1.45921e-06 1.59605e-06 0)
(1.58167e-06 1.76954e-06 0)
(1.7079e-06 1.94421e-06 0)
(1.8376e-06 2.11941e-06 0)
(1.97045e-06 2.2946e-06 0)
(2.10617e-06 2.46926e-06 0)
(2.24444e-06 2.64298e-06 0)
(2.38496e-06 2.81538e-06 0)
(2.52742e-06 2.98614e-06 0)
(2.67151e-06 3.15502e-06 0)
(2.81693e-06 3.32187e-06 0)
(2.96335e-06 3.48668e-06 0)
(3.11048e-06 3.64962e-06 0)
(3.2579e-06 3.81116e-06 0)
(6.94382e-07 5.91093e-07 0)
(7.80994e-07 7.36274e-07 0)
(8.73841e-07 8.88478e-07 0)
(9.72546e-07 1.04665e-06 0)
(1.07701e-06 1.20957e-06 0)
(1.18688e-06 1.37627e-06 0)
(1.30188e-06 1.54581e-06 0)
(1.42164e-06 1.71741e-06 0)
(1.54582e-06 1.89033e-06 0)
(1.67405e-06 2.06394e-06 0)
(1.80597e-06 2.23767e-06 0)
(1.9412e-06 2.41104e-06 0)
(2.07937e-06 2.58362e-06 0)
(2.2201e-06 2.75503e-06 0)
(2.36301e-06 2.92496e-06 0)
(2.50768e-06 3.09317e-06 0)
(2.65373e-06 3.25953e-06 0)
(2.80069e-06 3.42401e-06 0)
(2.94818e-06 3.58681e-06 0)
(3.0957e-06 3.74845e-06 0)
(9.91332e-08 1.08562e-08 0)
(2.99369e-07 6.6023e-08 0)
(5.12011e-07 1.68428e-07 0)
(7.39809e-07 3.11291e-07 0)
(9.87163e-07 4.9082e-07 0)
(1.2555e-06 7.00695e-07 0)
(1.54597e-06 9.34151e-07 0)
(1.85811e-06 1.18407e-06 0)
(2.19099e-06 1.44326e-06 0)
(2.54287e-06 1.70577e-06 0)
(9.34e-08 9.75692e-09 0)
(2.82266e-07 5.94343e-08 0)
(4.82334e-07 1.52503e-07 0)
(6.95727e-07 2.83464e-07 0)
(9.26448e-07 4.49465e-07 0)
(1.17581e-06 6.452e-07 0)
(1.44497e-06 8.64802e-07 0)
(1.7335e-06 1.10201e-06 0)
(2.04039e-06 1.34991e-06 0)
(2.36378e-06 1.6038e-06 0)
(8.82464e-08 8.45069e-09 0)
(2.66919e-07 5.27512e-08 0)
(4.55856e-07 1.37088e-07 0)
(6.56477e-07 2.56943e-07 0)
(8.72342e-07 4.10178e-07 0)
(1.10456e-06 5.923e-07 0)
(1.35434e-06 7.98203e-07 0)
(1.62154e-06 1.02251e-06 0)
(1.90582e-06 1.25894e-06 0)
(2.20519e-06 1.50417e-06 0)
(8.35297e-08 6.92643e-09 0)
(2.52936e-07 4.60247e-08 0)
(4.3202e-07 1.22472e-07 0)
(6.21559e-07 2.32451e-07 0)
(8.24728e-07 3.74352e-07 0)
(1.04234e-06 5.44302e-07 0)
(1.27551e-06 7.37742e-07 0)
(1.52397e-06 9.4987e-07 0)
(1.7878e-06 1.17475e-06 0)
(2.06463e-06 1.4095e-06 0)
(7.91201e-08 5.17041e-09 0)
(2.39883e-07 3.90235e-08 0)
(4.0992e-07 1.07985e-07 0)
(5.8942e-07 2.08763e-07 0)
(7.81221e-07 3.40135e-07 0)
(9.85858e-07 4.98725e-07 0)
(1.20445e-06 6.8046e-07 0)
(1.43655e-06 8.81079e-07 0)
(1.68274e-06 1.09516e-06 0)
(1.93985e-06 1.31977e-06 0)
(7.4981e-08 3.21218e-09 0)
(2.2765e-07 3.1794e-08 0)
(3.89356e-07 9.37036e-08 0)
(5.59755e-07 1.86036e-07 0)
(7.41397e-07 3.07844e-07 0)
(9.3452e-07 4.56112e-07 0)
(1.14019e-06 6.27121e-07 0)
(1.35776e-06 8.1695e-07 0)
(1.58823e-06 1.02067e-06 0)
(1.82792e-06 1.23514e-06 0)
(7.10293e-08 1.04277e-09 0)
(2.15979e-07 2.42329e-08 0)
(3.69834e-07 7.93279e-08 0)
(5.31776e-07 1.63709e-07 0)
(7.04119e-07 2.76636e-07 0)
(8.86839e-07 4.15369e-07 0)
(1.08097e-06 5.765e-07 0)
(1.28568e-06 7.56366e-07 0)
(1.50223e-06 9.50511e-07 0)
(1.72659e-06 1.15546e-06 0)
(6.72338e-08 -1.30974e-09 0)
(2.04772e-07 1.63729e-08 0)
(3.51166e-07 6.48676e-08 0)
(5.05169e-07 1.41767e-07 0)
(6.68893e-07 2.46474e-07 0)
(8.42077e-07 3.76439e-07 0)
(1.02572e-06 5.28496e-07 0)
(1.21883e-06 6.99143e-07 0)
(1.42287e-06 8.8437e-07 0)
(1.63368e-06 1.08042e-06 0)
(6.35455e-08 -3.84612e-09 0)
(1.93882e-07 8.17247e-09 0)
(3.33082e-07 5.01885e-08 0)
(4.79509e-07 1.19954e-07 0)
(6.35106e-07 2.16968e-07 0)
(7.99413e-07 3.3882e-07 0)
(9.73393e-07 4.82539e-07 0)
(1.15595e-06 6.44734e-07 0)
(1.34863e-06 8.21763e-07 0)
(1.54733e-06 1.00965e-06 0)
(5.99374e-08 -6.5492e-09 0)
(1.83229e-07 -3.52941e-10 0)
(3.15426e-07 3.52776e-08 0)
(4.54534e-07 9.82156e-08 0)
(6.02347e-07 1.88016e-07 0)
(7.58244e-07 3.02351e-07 0)
(9.23147e-07 4.38397e-07 0)
(1.09593e-06 5.92835e-07 0)
(1.27813e-06 7.62329e-07 0)
(1.46586e-06 9.42784e-07 0)
(5.63799e-08 -9.41749e-09 0)
(1.72725e-07 -9.22272e-09 0)
(2.98039e-07 2.00694e-08 0)
(4.29986e-07 7.64304e-08 0)
(5.70224e-07 1.59431e-07 0)
(7.18012e-07 2.66786e-07 0)
(8.74238e-07 3.95772e-07 0)
(1.0378e-06 5.4312e-07 0)
(1.21017e-06 7.05728e-07 0)
(1.38777e-06 8.79456e-07 0)
(5.28537e-08 -1.24458e-08 0)
(1.62318e-07 -1.8438e-08 0)
(2.80813e-07 4.54512e-09 0)
(4.05668e-07 5.45622e-08 0)
(5.38417e-07 1.31149e-07 0)
(6.78239e-07 2.32024e-07 0)
(8.25996e-07 3.54516e-07 0)
(9.80662e-07 4.95391e-07 0)
(1.14364e-06 6.51723e-07 0)
(1.31169e-06 8.19393e-07 0)
(4.93472e-08 -1.5642e-08 0)
(1.51984e-07 -2.80278e-08 0)
(2.63678e-07 -1.13453e-08 0)
(3.81427e-07 3.2546e-08 0)
(5.06644e-07 1.03087e-07 0)
(6.38483e-07 1.97956e-07 0)
(7.77798e-07 3.1449e-07 0)
(9.23689e-07 4.49475e-07 0)
(1.07748e-06 6.00112e-07 0)
(1.2363e-06 7.62348e-07 0)
(4.58594e-08 -1.90325e-08 0)
(1.41735e-07 -3.80243e-08 0)
(2.46607e-07 -2.76176e-08 0)
(3.57149e-07 1.04018e-08 0)
(4.74658e-07 7.52862e-08 0)
(5.98331e-07 1.64626e-07 0)
(7.29041e-07 2.75718e-07 0)
(8.66067e-07 4.05364e-07 0)
(1.01064e-06 5.50854e-07 0)
(1.16033e-06 7.08237e-07 0)
(4.24206e-08 -2.26679e-08 0)
(1.31696e-07 -4.85153e-08 0)
(2.2969e-07 -4.43502e-08 0)
(3.32806e-07 -1.19217e-08 0)
(4.42257e-07 4.77189e-08 0)
(5.57376e-07 1.32009e-07 0)
(6.79104e-07 2.38166e-07 0)
(8.06939e-07 3.62994e-07 0)
(9.42057e-07 5.03852e-07 0)
(1.08244e-06 6.56911e-07 0)
(3.90961e-08 -2.67147e-08 0)
(1.22066e-07 -5.96241e-08 0)
(2.13073e-07 -6.15129e-08 0)
(3.084e-07 -3.42253e-08 0)
(4.09243e-07 2.06934e-08 0)
(5.15197e-07 1.00465e-07 0)
(6.27335e-07 2.02199e-07 0)
(7.45422e-07 3.22705e-07 0)
(8.70594e-07 4.59402e-07 0)
(1.00127e-06 6.08608e-07 0)
(3.61286e-08 -3.13765e-08 0)
(1.13474e-07 -7.1602e-08 0)
(1.97273e-07 -7.92688e-08 0)
(2.84146e-07 -5.66187e-08 0)
(3.7548e-07 -5.85388e-09 0)
(4.71319e-07 6.99332e-08 0)
(5.72948e-07 1.67736e-07 0)
(6.80435e-07 2.84376e-07 0)
(7.94897e-07 4.17337e-07 0)
(9.15183e-07 5.63101e-07 0)
(3.40352e-08 -3.7504e-08 0)
(1.06645e-07 -8.48285e-08 0)
(1.82787e-07 -9.72615e-08 0)
(2.60145e-07 -7.82165e-08 0)
(3.40723e-07 -3.07943e-08 0)
(4.25171e-07 4.16304e-08 0)
(5.15088e-07 1.35979e-07 0)
(6.10858e-07 2.49144e-07 0)
(7.13593e-07 3.78692e-07 0)
(8.22566e-07 5.21305e-07 0)
(3.53318e-08 -4.57453e-08 0)
(1.04285e-07 -9.978e-08 0)
(1.71333e-07 -1.15823e-07 0)
(2.36991e-07 -9.95137e-08 0)
(3.04694e-07 -5.47272e-08 0)
(3.75843e-07 1.48341e-08 0)
(4.52367e-07 1.06108e-07 0)
(5.34906e-07 2.16097e-07 0)
(6.24573e-07 3.4249e-07 0)
(7.20981e-07 4.82171e-07 0)
(4.53577e-08 -6.05969e-08 0)
(1.0809e-07 -1.16787e-07 0)
(1.63711e-07 -1.32611e-07 0)
(2.14586e-07 -1.16886e-07 0)
(2.66968e-07 -7.38031e-08 0)
(3.22635e-07 -6.64221e-09 0)
(3.83902e-07 8.17478e-08 0)
(4.51519e-07 1.88633e-07 0)
(5.26624e-07 3.11853e-07 0)
(6.09025e-07 4.48531e-07 0)
)
;

boundaryField
{
    left
    {
        type            fixedDisplacement;
        value           uniform (0 0 0);
    }
    right
    {
        type            solidTraction;
        tractionSeries  
{
        file            "$FOAM_CASE/constant/timeVsTraction";
        outOfBounds     clamp;
}
        pressure        uniform 0;
        secondOrder     false;
        setEffectiveTraction false;
        relaxationFactor 1;
        value           nonuniform List<vector> 
30
(
(8.19402e-06 5.98735e-06 2.02541e-21)
(8.00349e-06 5.91886e-06 2.03258e-21)
(7.81125e-06 5.85085e-06 2.08118e-21)
(7.61677e-06 5.78207e-06 2.18006e-21)
(7.42005e-06 5.71171e-06 2.32609e-21)
(7.22154e-06 5.63905e-06 2.51491e-21)
(7.02192e-06 5.56365e-06 2.7392e-21)
(6.82205e-06 5.48529e-06 2.99105e-21)
(6.62279e-06 5.40395e-06 3.26161e-21)
(6.42503e-06 5.31985e-06 3.54092e-21)
(6.23795e-06 5.23708e-06 3.74159e-21)
(6.06056e-06 5.1557e-06 3.83204e-21)
(5.88569e-06 5.07309e-06 3.89372e-21)
(5.71369e-06 4.98966e-06 3.92781e-21)
(5.54474e-06 4.906e-06 3.92905e-21)
(5.37845e-06 4.82265e-06 3.89949e-21)
(5.21512e-06 4.73994e-06 3.84403e-21)
(5.0544e-06 4.65846e-06 3.76264e-21)
(4.89595e-06 4.57857e-06 3.65998e-21)
(4.73936e-06 4.50059e-06 3.54024e-21)
(4.58414e-06 4.42477e-06 3.4087e-21)
(4.42977e-06 4.35126e-06 3.27094e-21)
(4.2757e-06 4.28011e-06 3.13323e-21)
(4.12137e-06 4.21127e-06 3.00175e-21)
(3.96629e-06 4.14457e-06 2.88296e-21)
(3.81e-06 4.07971e-06 2.7823e-21)
(3.65219e-06 4.01633e-06 2.7065e-21)