/*--------------------------------*- C++ -*----------------------------------*\
  =========                 |
  \\      /  F ield         | OpenFOAM: The Open Source CFD Toolbox
   \\    /   O peration     | Website:  https://openfoam.org
    \\  /    A nd           | Version:  9
     \\/     M anipulation  |
\*---------------------------------------------------------------------------*/
FoamFile
{
    format      ascii;
    class       volVectorField;
    location    "5";
    object      D_0;
}
// * * * * * * * * * * * * * * * * * * * * * * * * * * * * * * * * * * * * * //

dimensions      [0 1 0 0 0 0 0];

internalField   nonuniform List<vector> 
1000
(
(2.70614e-06 9.05692e-07 0)
(2.52528e-06 1.00085e-06 0)
(2.39373e-06 1.08083e-06 0)
(2.29868e-06 1.14331e-06 0)
(2.23086e-06 1.19718e-06 0)
(2.18304e-06 1.24351e-06 0)
(2.1507e-06 1.28523e-06 0)
(2.13021e-06 1.32321e-06 0)
(2.11871e-06 1.35863e-06 0)
(2.11474e-06 1.3922e-06 0)
(2.43858e-06 8.16273e-07 0)
(2.25073e-06 8.8545e-07 0)
(2.11499e-06 9.46045e-07 0)
(2.01734e-06 9.92811e-07 0)
(1.94776e-06 1.03385e-06 0)
(1.89854e-06 1.06912e-06 0)
(1.86484e-06 1.10109e-06 0)
(1.84283e-06 1.13031e-06 0)
(1.82957e-06 1.15742e-06 0)
(1.82308e-06 1.18385e-06 0)
(2.16531e-06 7.26708e-07 0)
(1.9757e-06 7.68183e-07 0)
(1.8395e-06 8.08579e-07 0)
(1.74203e-06 8.39453e-07 0)
(1.67283e-06 8.67877e-07 0)
(1.62386e-06 8.92561e-07 0)
(1.59013e-06 9.15427e-07 0)
(1.56769e-06 9.36594e-07 0)
(1.5536e-06 9.56186e-07 0)
(1.54575e-06 9.75806e-07 0)
(1.88772e-06 6.38464e-07 0)
(1.70182e-06 6.5162e-07 0)
(1.56915e-06 6.71741e-07 0)
(1.47488e-06 6.8705e-07 0)
(1.40835e-06 7.03476e-07 0)
(1.36145e-06 7.18335e-07 0)
(1.32913e-06 7.32962e-07 0)
(1.30742e-06 7.46929e-07 0)
(1.29354e-06 7.59961e-07 0)
(1.28521e-06 7.73506e-07 0)
(1.60646e-06 5.52823e-07 0)
(1.42999e-06 5.38222e-07 0)
(1.30503e-06 5.38885e-07 0)
(1.21719e-06 5.39644e-07 0)
(1.15578e-06 5.45238e-07 0)
(1.11283e-06 5.51486e-07 0)
(1.08336e-06 5.59101e-07 0)
(1.06351e-06 5.67026e-07 0)
(1.05072e-06 5.74659e-07 0)
(1.04266e-06 5.83081e-07 0)
(1.32281e-06 4.70371e-07 0)
(1.16098e-06 4.29714e-07 0)
(1.04801e-06 4.12822e-07 0)
(9.69937e-07 4.00891e-07 0)
(9.16193e-07 3.97497e-07 0)
(8.79069e-07 3.96857e-07 0)
(8.53836e-07 3.99063e-07 0)
(8.36862e-07 4.02402e-07 0)
(8.25924e-07 4.06021e-07 0)
(8.18734e-07 4.10539e-07 0)
(1.03571e-06 3.91112e-07 0)
(8.94173e-07 3.27316e-07 0)
(7.97801e-07 2.96103e-07 0)
(7.33093e-07 2.74504e-07 0)
(6.89613e-07 2.64792e-07 0)
(6.6011e-07 2.59548e-07 0)
(6.40338e-07 2.58279e-07 0)
(6.27079e-07 2.58691e-07 0)
(6.18543e-07 2.59787e-07 0)
(6.1269e-07 2.61721e-07 0)
(7.4719e-07 3.12818e-07 0)
(6.30661e-07 2.30689e-07 0)
(5.55843e-07 1.90739e-07 0)
(5.07947e-07 1.64123e-07 0)
(4.76885e-07 1.51755e-07 0)
(4.56257e-07 1.44766e-07 0)
(4.42662e-07 1.42212e-07 0)
(4.33553e-07 1.41463e-07 0)
(4.2768e-07 1.41529e-07 0)
(4.23442e-07 1.42222e-07 0)
(4.50834e-07 2.2782e-07 0)
(3.68632e-07 1.37124e-07 0)
(3.21374e-07 9.78965e-08 0)
(2.93286e-07 7.36386e-08 0)
(2.76275e-07 6.3321e-08 0)
(2.65166e-07 5.77143e-08 0)
(2.58001e-07 5.58574e-08 0)
(2.53109e-07 5.53321e-08 0)
(2.49899e-07 5.54161e-08 0)
(2.47378e-07 5.58139e-08 0)
(1.55267e-07 1.19199e-07 0)
(1.17242e-07 5.04169e-08 0)
(1.02719e-07 2.62788e-08 0)
(9.50182e-08 1.42194e-08 0)
(9.05528e-08 1.01018e-08 0)
(8.74398e-08 8.2808e-09 0)
(8.54059e-08 8.07174e-09 0)
(8.39176e-08 8.28216e-09 0)
(8.29019e-08 8.63621e-09 0)
(8.20072e-08 9.01923e-09 0)
(4.77295e-06 1.46995e-06 0)
(4.76533e-06 1.65325e-06 0)
(4.76014e-06 1.82402e-06 0)
(4.76058e-06 1.98032e-06 0)
(4.76799e-06 2.12373e-06 0)
(4.78292e-06 2.25605e-06 0)
(4.80544e-06 2.37934e-06 0)
(4.8351e-06 2.49542e-06 0)
(4.87164e-06 2.60569e-06 0)
(4.91413e-06 2.71175e-06 0)
(4.62327e-06 1.45783e-06 0)
(4.60233e-06 1.6406e-06 0)
(4.58814e-06 1.80929e-06 0)
(4.58201e-06 1.96243e-06 0)
(4.58464e-06 2.102e-06 0)
(4.5956e-06 2.22988e-06 0)
(4.61453e-06 2.34836e-06 0)
(4.64056e-06 2.45934e-06 0)
(4.67333e-06 2.5643e-06 0)
(4.71158e-06 2.66504e-06 0)
(4.46451e-06 1.43324e-06 0)
(4.42778e-06 1.61557e-06 0)
(4.40133e-06 1.78082e-06 0)
(4.38553e-06 1.92901e-06 0)
(4.38052e-06 2.06313e-06 0)
(4.38506e-06 2.18536e-06 0)
(4.39836e-06 2.29813e-06 0)
(4.4191e-06 2.40337e-06 0)
(4.4468e-06 2.50262e-06 0)
(4.47975e-06 2.59772e-06 0)
(4.29292e-06 1.39751e-06 0)
(4.23846e-06 1.57898e-06 0)
(4.19776e-06 1.74001e-06 0)
(4.17049e-06 1.88215e-06 0)
(4.15611e-06 2.00973e-06 0)
(4.15267e-06 2.12526e-06 0)
(4.15901e-06 2.2314e-06 0)
(4.17335e-06 2.33008e-06 0)
(4.1951e-06 2.42292e-06 0)
(4.22205e-06 2.51174e-06 0)
(4.10654e-06 1.35097e-06 0)
(4.03264e-06 1.53013e-06 0)
(3.97669e-06 1.68562e-06 0)
(3.93733e-06 1.82031e-06 0)
(3.91302e-06 1.94007e-06 0)
(3.90114e-06 2.04775e-06 0)
(3.9001e-06 2.14627e-06 0)
(3.90771e-06 2.23755e-06 0)
(3.92326e-06 2.32329e-06 0)
(3.94405e-06 2.40517e-06 0)
(3.9051e-06 1.2947e-06 0)
(3.81064e-06 1.46909e-06 0)
(3.73913e-06 1.61742e-06 0)
(3.68767e-06 1.74339e-06 0)
(3.65353e-06 1.85428e-06 0)
(3.63332e-06 1.95318e-06 0)
(3.625e-06 2.04326e-06 0)
(3.626e-06 2.1264e-06 0)
(3.63547e-06 2.2044e-06 0)
(3.65029e-06 2.27874e-06 0)
(3.68911e-06 1.22955e-06 0)
(3.57381e-06 1.39584e-06 0)
(3.48705e-06 1.53497e-06 0)
(3.42406e-06 1.65084e-06 0)
(3.38067e-06 1.75184e-06 0)
(3.35272e-06 1.84114e-06 0)
(3.33766e-06 1.92211e-06 0)
(3.33257e-06 1.99654e-06 0)
(3.33638e-06 2.06629e-06 0)
(3.34574e-06 2.13261e-06 0)
(3.4597e-06 1.15673e-06 0)
(3.32427e-06 1.31107e-06 0)
(3.22324e-06 1.43876e-06 0)
(3.14969e-06 1.54313e-06 0)
(3.09803e-06 1.63336e-06 0)
(3.06321e-06 1.71242e-06 0)
(3.0422e-06 1.7838e-06 0)
(3.03177e-06 1.8491e-06 0)
(3.03057e-06 1.91027e-06 0)
(3.03519e-06 1.96816e-06 0)
(3.21832e-06 1.07749e-06 0)
(3.06456e-06 1.21584e-06 0)
(2.95089e-06 1.32974e-06 0)
(2.86822e-06 1.42128e-06 0)
(2.80955e-06 1.49994e-06 0)
(2.76902e-06 1.56829e-06 0)
(2.74304e-06 1.62978e-06 0)
(2.72817e-06 1.68579e-06 0)
(2.72269e-06 1.73814e-06 0)
(2.72344e-06 1.78749e-06 0)
(2.96658e-06 9.93298e-07 0)
(2.79735e-06 1.11176e-06 0)
(2.67331e-06 1.20966e-06 0)
(2.58333e-06 1.28715e-06 0)
(2.51919e-06 1.35363e-06 0)
(2.47423e-06 1.411e-06 0)
(2.44442e-06 1.46254e-06 0)
(2.42612e-06 1.50925e-06 0)
(2.41722e-06 1.55294e-06 0)
(2.41523e-06 1.59321e-06 0)
(4.96486e-06 2.81375e-06 0)
(5.02307e-06 2.91496e-06 0)
(5.08573e-06 3.01454e-06 0)
(5.15233e-06 3.11297e-06 0)
(5.22254e-06 3.21074e-06 0)
(5.29595e-06 3.30814e-06 0)
(5.37226e-06 3.40552e-06 0)
(5.45114e-06 3.50309e-06 0)
(5.53232e-06 3.60108e-06 0)
(5.61553e-06 3.69964e-06 0)
(5.70055e-06 3.79894e-06 0)
(5.78713e-06 3.8991e-06 0)
(5.87507e-06 4.00022e-06 0)
(5.96416e-06 4.10239e-06 0)
(6.0542e-06 4.20565e-06 0)
(6.14498e-06 4.31004e-06 0)
(6.23632e-06 4.41554e-06 0)
(6.328e-06 4.52206e-06 0)
(6.41988e-06 4.62943e-06 0)
(6.51174e-06 4.73731e-06 0)
(4.76446e-06 2.76317e-06 0)
(4.82982e-06 2.86271e-06 0)
(4.89866e-06 2.9607e-06 0)
(4.97043e-06 3.05772e-06 0)
(5.04504e-06 3.1543e-06 0)
(5.12213e-06 3.25069e-06 0)
(5.20154e-06 3.34725e-06 0)
(5.283e-06 3.44416e-06 0)
(5.36636e-06 3.54166e-06 0)
(5.45139e-06 3.63989e-06 0)
(5.53793e-06 3.739e-06 0)
(5.62581e-06 3.83912e-06 0)
(5.71488e-06 3.94033e-06 0)
(5.80497e-06 4.04272e-06 0)
(5.89595e-06 4.14635e-06 0)
(5.98766e-06 4.25123e-06 0)
(6.07998e-06 4.35735e-06 0)
(6.17273e-06 4.46463e-06 0)
(6.26581e-06 4.57289e-06 0)
(6.35899e-06 4.68186e-06 0)
(4.53556e-06 2.69296e-06 0)
(4.61013e-06 2.79268e-06 0)
(4.68722e-06 2.89091e-06 0)
(4.76611e-06 2.98813e-06 0)
(4.84698e-06 3.08498e-06 0)
(4.92952e-06 3.18166e-06 0)
(5.01371e-06 3.27858e-06 0)
(5.09935e-06 3.37591e-06 0)
(5.18639e-06 3.47389e-06 0)
(5.27468e-06 3.57269e-06 0)
(5.36412e-06 3.67244e-06 0)
(5.45461e-06 3.77326e-06 0)
(5.54606e-06 3.87527e-06 0)
(5.63836e-06 3.97854e-06 0)
(5.73143e-06 4.08314e-06 0)
(5.82516e-06 4.1891e-06 0)
(5.91947e-06 4.29644e-06 0)
(6.01423e-06 4.40512e-06 0)
(6.10934e-06 4.51505e-06 0)
(6.20453e-06 4.62606e-06 0)
(4.2815e-06 2.60464e-06 0)
(4.36703e-06 2.70599e-06 0)
(4.45413e-06 2.80591e-06 0)
(4.5418e-06 2.90463e-06 0)
(4.63058e-06 3.00298e-06 0)
(4.72011e-06 3.10107e-06 0)
(4.81057e-06 3.19938e-06 0)
(4.90181e-06 3.29808e-06 0)
(4.99387e-06 3.39744e-06 0)
(5.08668e-06 3.49761e-06 0)
(5.18023e-06 3.59876e-06 0)
(5.27447e-06 3.70102e-06 0)
(5.36938e-06 3.8045e-06 0)
(5.4649e-06 3.90931e-06 0)
(5.56101e-06 4.01552e-06 0)
(5.65765e-06 4.1232e-06 0)
(5.75477e-06 4.23239e-06 0)
(5.85227e-06 4.34312e-06 0)
(5.95008e-06 4.45541e-06 0)
(6.04791e-06 4.56921e-06 0)
(4.00784e-06 2.49654e-06 0)
(4.10562e-06 2.60116e-06 0)
(4.20406e-06 2.70444e-06 0)
(4.30176e-06 2.80613e-06 0)
(4.39968e-06 2.90735e-06 0)
(4.49738e-06 3.00811e-06 0)
(4.59524e-06 3.10897e-06 0)
(4.69314e-06 3.2101e-06 0)
(4.79125e-06 3.31181e-06 0)
(4.88956e-06 3.41426e-06 0)
(4.98814e-06 3.51765e-06 0)
(5.08701e-06 3.62213e-06 0)
(5.18619e-06 3.72782e-06 0)
(5.2857e-06 3.83485e-06 0)
(5.38556e-06 3.94332e-06 0)
(5.48576e-06 4.05333e-06 0)
(5.5863e-06 4.16498e-06 0)
(5.6871e-06 4.27836e-06 0)
(5.78813e-06 4.39362e-06 0)
(5.88914e-06 4.51081e-06 0)
(3.71903e-06 2.3693e-06 0)
(3.82999e-06 2.47871e-06 0)
(3.94078e-06 2.5869e-06 0)
(4.04943e-06 2.69295e-06 0)
(4.15742e-06 2.79834e-06 0)
(4.26418e-06 2.90297e-06 0)
(4.37031e-06 3.00749e-06 0)
(4.47573e-06 3.11209e-06 0)
(4.5807e-06 3.21709e-06 0)
(4.68528e-06 3.32272e-06 0)
(4.78961e-06 3.42917e-06 0)
(4.89377e-06 3.53663e-06 0)
(4.99786e-06 3.64524e-06 0)
(5.10195e-06 3.75516e-06 0)
(5.20611e-06 3.86652e-06 0)
(5.31037e-06 3.97946e-06 0)
(5.41477e-06 4.09413e-06 0)
(5.51931e-06 4.21069e-06 0)
(5.62397e-06 4.3294e-06 0)
(5.7286e-06 4.45038e-06 0)
(3.41987e-06 2.22316e-06 0)
(3.54448e-06 2.3389e-06 0)
(3.66823e-06 2.45349e-06 0)
(3.78842e-06 2.56533e-06 0)
(3.9071e-06 2.67614e-06 0)
(4.02356e-06 2.78584e-06 0)
(4.13857e-06 2.8951e-06 0)
(4.2521e-06 3.00418e-06 0)
(4.3645e-06 3.11343e-06 0)
(4.4759e-06 3.2231e-06 0)
(4.5865e-06 3.33344e-06 0)
(4.69645e-06 3.44465e-06 0)
(4.80591e-06 3.5569e-06 0)
(4.915e-06 3.67038e-06 0)
(5.02383e-06 3.78525e-06 0)
(5.13251e-06 3.90169e-06 0)
(5.24111e-06 4.01989e-06 0)
(5.34969e-06 4.14007e-06 0)
(5.45829e-06 4.2626e-06 0)
(5.56686e-06 4.38767e-06 0)
(3.11487e-06 2.05945e-06 0)
(3.25317e-06 2.18296e-06 0)
(3.39002e-06 2.30516e-06 0)
(3.52205e-06 2.42407e-06 0)
(3.65168e-06 2.54146e-06 0)
(3.77821e-06 2.65736e-06 0)
(3.90248e-06 2.77241e-06 0)
(4.02453e-06 2.88696e-06 0)
(4.14477e-06 3.00137e-06 0)
(4.26338e-06 3.11594e-06 0)
(4.38064e-06 3.23095e-06 0)
(4.49673e-06 3.34664e-06 0)
(4.61188e-06 3.46321e-06 0)
(4.72625e-06 3.58087e-06 0)
(4.84003e-06 3.69982e-06 0)
(4.95336e-06 3.82027e-06 0)
(5.06637e-06 3.94245e-06 0)
(5.17919e-06 4.06663e-06 0)
(5.29191e-06 4.19325e-06 0)
(5.40463e-06 4.32254e-06 0)
(2.80865e-06 1.87972e-06 0)
(2.96027e-06 2.01251e-06 0)
(3.10988e-06 2.14325e-06 0)
(3.2538e-06 2.27045e-06 0)
(3.39435e-06 2.39534e-06 0)
(3.53106e-06 2.51835e-06 0)
(3.66469e-06 2.64005e-06 0)
(3.79542e-06 2.76089e-06 0)
(3.92365e-06 2.88126e-06 0)
(4.04966e-06 3.00152e-06 0)
(4.17375e-06 3.12196e-06 0)
(4.29618e-06 3.24285e-06 0)
(4.41719e-06 3.36442e-06 0)
(4.53702e-06 3.4869e-06 0)
(4.65589e-06 3.61051e-06 0)
(4.774e-06 3.73547e-06 0)
(4.89154e-06 3.86206e-06 0)
(5.00871e-06 3.99057e-06 0)
(5.12565e-06 4.12147e-06 0)
(5.24263e-06 4.25505e-06 0)
(2.50481e-06 1.68675e-06 0)
(2.66905e-06 1.82976e-06 0)
(2.83006e-06 1.9693e-06 0)
(2.98559e-06 2.10565e-06 0)
(3.13684e-06 2.23905e-06 0)
(3.2838e-06 2.37014e-06 0)
(3.42692e-06 2.49941e-06 0)
(3.5665e-06 2.62737e-06 0)
(3.70291e-06 2.75446e-06 0)
(3.83648e-06 2.88108e-06 0)
(3.96754e-06 3.00758e-06 0)
(4.09641e-06 3.13425e-06 0)
(4.22337e-06 3.26137e-06 0)
(4.34873e-06 3.38917e-06 0)
(4.47273e-06 3.5179e-06 0)
(4.59564e-06 3.6478e-06 0)
(4.71771e-06 3.77914e-06 0)
(4.83923e-06 3.91223e-06 0)
(4.96037e-06 4.04755e-06 0)
(5.08161e-06 4.18539e-06 0)
(2.27054e-06 1.54205e-06 0)
(2.44178e-06 1.69248e-06 0)
(2.60876e-06 1.837e-06 0)
(2.77058e-06 1.97856e-06 0)
(2.9279e-06 2.11715e-06 0)
(3.08073e-06 2.25339e-06 0)
(3.22948e-06 2.38771e-06 0)
(3.37439e-06 2.52057e-06 0)
(3.51581e-06 2.65238e-06 0)
(3.65405e-06 2.78351e-06 0)
(3.78944e-06 2.91429e-06 0)
(3.92229e-06 3.04501e-06 0)
(4.05293e-06 3.17592e-06 0)
(4.18164e-06 3.30726e-06 0)
(4.30871e-06 3.43927e-06 0)
(4.43446e-06 3.57216e-06 0)
(4.55914e-06 3.70619e-06 0)
(4.68311e-06 3.84164e-06 0)
(4.8066e-06 3.97892e-06 0)
(4.93022e-06 4.11831e-06 0)
(2.11433e-06 1.45549e-06 0)
(2.28557e-06 1.60587e-06 0)
(2.45258e-06 1.75155e-06 0)
(2.61491e-06 1.89468e-06 0)
(2.77301e-06 2.03524e-06 0)
(2.92684e-06 2.17363e-06 0)
(3.07672e-06 2.31022e-06 0)
(3.22283e-06 2.44535e-06 0)
(3.36547e-06 2.57937e-06 0)
(3.5049e-06 2.7126e-06 0)
(3.64141e-06 2.84531e-06 0)
(3.7753e-06 2.97777e-06 0)
(3.90686e-06 3.11019e-06 0)
(4.03639e-06 3.2428e-06 0)
(4.16417e-06 3.37579e-06 0)
(4.29051e-06 3.50936e-06 0)
(4.41568e-06 3.64372e-06 0)
(4.54009e-06 3.7791e-06 0)
(4.66396e-06 3.91584e-06 0)
(4.78802e-06 4.05411e-06 0)
(1.9765e-06 1.37242e-06 0)
(2.14463e-06 1.52232e-06 0)
(2.30992e-06 1.66839e-06 0)
(2.47099e-06 1.81248e-06 0)
(2.62843e-06 1.95444e-06 0)
(2.78195e-06 2.09452e-06 0)
(2.93184e-06 2.23301e-06 0)
(3.07815e-06 2.37014e-06 0)
(3.22114e-06 2.50617e-06 0)
(3.361e-06 2.64136e-06 0)
(3.49799e-06 2.77592e-06 0)
(3.63238e-06 2.91007e-06 0)
(3.76441e-06 3.04399e-06 0)
(3.89438e-06 3.17785e-06 0)
(4.02255e-06 3.31183e-06 0)
(4.14924e-06 3.44606e-06 0)
(4.27473e-06 3.58072e-06 0)
(4.39941e-06 3.71598e-06 0)
(4.52355e-06 3.85203e-06 0)
(4.6479e-06 3.98902e-06 0)
(1.85303e-06 1.29247e-06 0)
(2.0171e-06 1.44112e-06 0)
(2.1794e-06 1.58702e-06 0)
(2.33805e-06 1.73165e-06 0)
(2.4937e-06 1.87467e-06 0)
(2.64586e-06 2.01618e-06 0)
(2.79478e-06 2.15634e-06 0)
(2.94043e-06 2.29527e-06 0)
(3.08298e-06 2.43316e-06 0)
(3.22259e-06 2.57018e-06 0)
(3.35946e-06 2.70649e-06 0)
(3.49381e-06 2.84225e-06 0)
(3.62588e-06 2.97761e-06 0)
(3.75592e-06 3.11269e-06 0)
(3.88418e-06 3.2476e-06 0)
(4.01097e-06 3.38247e-06 0)
(4.13657e-06 3.51738e-06 0)
(4.26137e-06 3.65246e-06 0)
(4.38564e-06 3.78779e-06 0)
(4.51016e-06 3.92339e-06 0)
(1.74247e-06 1.21646e-06 0)
(1.90159e-06 1.36341e-06 0)
(2.05989e-06 1.50866e-06 0)
(2.21514e-06 1.65335e-06 0)
(2.36805e-06 1.79697e-06 0)
(2.51798e-06 1.93952e-06 0)
(2.66512e-06 2.08099e-06 0)
(2.80934e-06 2.22144e-06 0)
(2.95077e-06 2.36094e-06 0)
(3.08951e-06 2.49959e-06 0)
(3.22572e-06 2.6375e-06 0)
(3.35957e-06 2.77475e-06 0)
(3.49127e-06 2.91143e-06 0)
(3.62103e-06 3.04764e-06 0)
(3.74911e-06 3.18344e-06 0)
(3.87576e-06 3.31888e-06 0)
(4.00128e-06 3.45401e-06 0)
(4.12596e-06 3.58887e-06 0)
(4.25032e-06 3.72335e-06 0)
(4.37493e-06 3.85752e-06 0)
(1.64269e-06 1.14434e-06 0)
(1.79637e-06 1.28918e-06 0)
(1.95e-06 1.43338e-06 0)
(2.10119e-06 1.57772e-06 0)
(2.25066e-06 1.72159e-06 0)
(2.39766e-06 1.86483e-06 0)
(2.54233e-06 2.00732e-06 0)
(2.68449e-06 2.14901e-06 0)
(2.82422e-06 2.28989e-06 0)
(2.96155e-06 2.42997e-06 0)
(3.09662e-06 2.56928e-06 0)
(3.22954e-06 2.70786e-06 0)
(3.3605e-06 2.84576e-06 0)
(3.48969e-06 2.98299e-06 0)
(3.61731e-06 3.11959e-06 0)
(3.74363e-06 3.25554e-06 0)
(3.86887e-06 3.39083e-06 0)
(3.99343e-06 3.52538e-06 0)
(4.11753e-06 3.65907e-06 0)
(4.24191e-06 3.79188e-06 0)
(1.55195e-06 1.07616e-06 0)
(1.69989e-06 1.21864e-06 0)
(1.84839e-06 1.36149e-06 0)
(1.99503e-06 1.50516e-06 0)
(2.14051e-06 1.64893e-06 0)
(2.28403e-06 1.79253e-06 0)
(2.4257e-06 1.93574e-06 0)
(2.56528e-06 2.07838e-06 0)
(2.70282e-06 2.22038e-06 0)
(2.8383e-06 2.36165e-06 0)
(2.9718e-06 2.50217e-06 0)
(3.10344e-06 2.64192e-06 0)
(3.23334e-06 2.78087e-06 0)
(3.36167e-06 2.919e-06 0)
(3.4886e-06 3.05629e-06 0)
(3.61438e-06 3.19267e-06 0)
(3.73921e-06 3.32807e-06 0)
(3.86343e-06 3.46236e-06 0)
(3.98723e-06 3.59528e-06 0)
(4.11131e-06 3.72673e-06 0)
(1.46856e-06 1.01175e-06 0)
(1.6106e-06 1.15172e-06 0)
(1.7537e-06 1.29299e-06 0)
(1.89546e-06 1.43573e-06 0)
(2.03657e-06 1.57913e-06 0)
(2.1762e-06 1.72283e-06 0)
(2.31445e-06 1.86647e-06 0)
(2.45104e-06 2.00981e-06 0)
(2.58598e-06 2.15268e-06 0)
(2.71923e-06 2.29492e-06 0)
(2.85084e-06 2.43644e-06 0)
(2.98087e-06 2.57716e-06 0)
(3.10944e-06 2.717e-06 0)
(3.23667e-06 2.8559e-06 0)
(3.36272e-06 2.99377e-06 0)
(3.48778e-06 3.13051e-06 0)
(3.61204e-06 3.26597e-06 0)
(3.7358e-06 3.39997e-06 0)
(3.85921e-06 3.53219e-06 0)
(3.98288e-06 3.66243e-06 0)
(1.39098e-06 9.50892e-07 0)
(1.52709e-06 1.08831e-06 0)
(1.6646e-06 1.22789e-06 0)
(1.80128e-06 1.36952e-06 0)
(1.93774e-06 1.51233e-06 0)
(2.0732e-06 1.65588e-06 0)
(2.2077e-06 1.79971e-06 0)
(2.34098e-06 1.94351e-06 0)
(2.47302e-06 2.08701e-06 0)
(2.60374e-06 2.23e-06 0)
(2.73318e-06 2.37231e-06 0)
(2.86135e-06 2.51381e-06 0)
(2.98836e-06 2.65437e-06 0)
(3.11429e-06 2.79388e-06 0)
(3.23928e-06 2.93221e-06 0)
(3.36349e-06 3.06922e-06 0)
(3.48705e-06 3.20471e-06 0)
(3.61024e-06 3.33846e-06 0)
(3.73316e-06 3.47004e-06 0)
(3.85632e-06 3.59924e-06 0)
(1.31781e-06 8.93364e-07 0)
(1.44798e-06 1.02827e-06 0)
(1.57985e-06 1.16608e-06 0)
(1.7113e-06 1.30648e-06 0)
(1.84294e-06 1.44855e-06 0)
(1.974e-06 1.59176e-06 0)
(2.10455e-06 1.73558e-06 0)
(2.23428e-06 1.87961e-06 0)
(2.36318e-06 2.02352e-06 0)
(2.49114e-06 2.16704e-06 0)
(2.61818e-06 2.30994e-06 0)
(2.74431e-06 2.45203e-06 0)
(2.86957e-06 2.59314e-06 0)
(2.99405e-06 2.73311e-06 0)
(3.11784e-06 2.87179e-06 0)
(3.24106e-06 3.00898e-06 0)
(3.36384e-06 3.14446e-06 0)
(3.48637e-06 3.27797e-06 0)
(3.60872e-06 3.40903e-06 0)
(3.73128e-06 3.53739e-06 0)
(1.24777e-06 8.38927e-07 0)
(1.37203e-06 9.71414e-07 0)
(1.4982e-06 1.10747e-06 0)
(1.62436e-06 1.24658e-06 0)
(1.75106e-06 1.3878e-06 0)
(1.8776e-06 1.53052e-06 0)
(2.00402e-06 1.67414e-06 0)
(2.13004e-06 1.81821e-06 0)
(2.25563e-06 1.96233e-06 0)
(2.38068e-06 2.10617e-06 0)
(2.50517e-06 2.24945e-06 0)
(2.62909e-06 2.39194e-06 0)
(2.75248e-06 2.53343e-06 0)
(2.87539e-06 2.67372e-06 0)
(2.99787e-06 2.81261e-06 0)
(3.12003e-06 2.94991e-06 0)
(3.24194e-06 3.08534e-06 0)
(3.36374e-06 3.21864e-06 0)
(3.48547e-06 3.34931e-06 0)
(3.60738e-06 3.47706e-06 0)
(1.17965e-06 7.8739e-07 0)
(1.29801e-06 9.17601e-07 0)
(1.41847e-06 1.05194e-06 0)
(1.53929e-06 1.18974e-06 0)
(1.66098e-06 1.33002e-06 0)
(1.78291e-06 1.47214e-06 0)
(1.90512e-06 1.61542e-06 0)
(2.02733e-06 1.75935e-06 0)
(2.14951e-06 1.9035e-06 0)
(2.27154e-06 2.04747e-06 0)
(2.39338e-06 2.19094e-06 0)
(2.51502e-06 2.33365e-06 0)
(2.63646e-06 2.47534e-06 0)
(2.75771e-06 2.61579e-06 0)
(2.87882e-06 2.75478e-06 0)
(2.99985e-06 2.89209e-06 0)
(3.12084e-06 3.02744e-06 0)
(3.24187e-06 3.16056e-06 0)
(3.36295e-06 3.29096e-06 0)
(3.48416e-06 3.41836e-06 0)
(1.11226e-06 7.38568e-07 0)
(1.22474e-06 8.66673e-07 0)
(1.33948e-06 9.99367e-07 0)
(1.45494e-06 1.13587e-06 0)
(1.57159e-06 1.27517e-06 0)
(1.68888e-06 1.41658e-06 0)
(1.80682e-06 1.55938e-06 0)
(1.92519e-06 1.70303e-06 0)
(2.04391e-06 1.84703e-06 0)
(2.16288e-06 1.99095e-06 0)
(2.28205e-06 2.13444e-06 0)
(2.40136e-06 2.27718e-06 0)
(2.52081e-06 2.41891e-06 0)
(2.64038e-06 2.55938e-06 0)
(2.76009e-06 2.69834e-06 0)
(2.87997e-06 2.83558e-06 0)
(3.00002e-06 2.97081e-06 0)
(3.12026e-06 3.10379e-06 0)
(3.24066e-06 3.23404e-06 0)
(3.36119e-06 3.36132e-06 0)
(1.04448e-06 6.9239e-07 0)
(1.15104e-06 8.18562e-07 0)
(1.26004e-06 9.49691e-07 0)
(1.37013e-06 1.08491e-06 0)
(1.48174e-06 1.22319e-06 0)
(1.59438e-06 1.36381e-06 0)
(1.70808e-06 1.50602e-06 0)
(1.82261e-06 1.64923e-06 0)
(1.93791e-06 1.79291e-06 0)
(2.05384e-06 1.93661e-06 0)
(2.17035e-06 2.07994e-06 0)
(2.28736e-06 2.22255e-06 0)
(2.40484e-06 2.36416e-06 0)
(2.52275e-06 2.5045e-06 0)
(2.64108e-06 2.64332e-06 0)
(2.75981e-06 2.7804e-06 0)
(2.87893e-06 2.91547e-06 0)
(2.99839e-06 3.04831e-06 0)
(3.11814e-06 3.17852e-06 0)
(3.23801e-06 3.30591e-06 0)
(9.75093e-07 6.48725e-07 0)
(1.07569e-06 7.73133e-07 0)
(1.17891e-06 9.02779e-07 0)
(1.28363e-06 1.03673e-06 0)
(1.39022e-06 1.17397e-06 0)
(1.49827e-06 1.31371e-06 0)
(1.60779e-06 1.45521e-06 0)
(1.71856e-06 1.59785e-06 0)
(1.8305e-06 1.74106e-06 0)
(1.94349e-06 1.88438e-06 0)
(2.05744e-06 2.02738e-06 0)
(2.17224e-06 2.16971e-06 0)
(2.28784e-06 2.31106e-06 0)
(2.40418e-06 2.45113e-06 0)
(2.52119e-06 2.5897e-06 0)
(2.63884e-06 2.72652e-06 0)
(2.75706e-06 2.86138e-06 0)
(2.87579e-06 2.99408e-06 0)
(2.99491e-06 3.12433e-06 0)
(3.11418e-06 3.25201e-06 0)
(9.02882e-07 6.07714e-07 0)
(9.97414e-07 7.30482e-07 0)
(1.09483e-06 8.58684e-07 0)
(1.19419e-06 9.91361e-07 0)
(1.29582e-06 1.12748e-06 0)
(1.39937e-06 1.26625e-06 0)
(1.50482e-06 1.40691e-06 0)
(1.61197e-06 1.54882e-06 0)
(1.72073e-06 1.69141e-06 0)
(1.83093e-06 1.83417e-06 0)
(1.94248e-06 1.97669e-06 0)
(2.05525e-06 2.11857e-06 0)
(2.16913e-06 2.25951e-06 0)
(2.28403e-06 2.3992e-06 0)
(2.39986e-06 2.5374e-06 0)
(2.51653e-06 2.67389e-06 0)
(2.63396e-06 2.80848e-06 0)
(2.75203e-06 2.94102e-06 0)
(2.87059e-06 3.07135e-06 0)
(2.98935e-06 3.19944e-06 0)
(8.26416e-07 5.69142e-07 0)
(9.14775e-07 6.9037e-07 0)
(1.00635e-06 8.17154e-07 0)
(1.1004e-06 9.48531e-07 0)
(1.19718e-06 1.08346e-06 0)
(1.29637e-06 1.22117e-06 0)
(1.39795e-06 1.36086e-06 0)
(1.5017e-06 1.5019e-06 0)
(1.60751e-06 1.64371e-06 0)
(1.71518e-06 1.78577e-06 0)
(1.82459e-06 1.92765e-06 0)
(1.93557e-06 2.06896e-06 0)
(2.04799e-06 2.20936e-06 0)
(2.16169e-06 2.34855e-06 0)
(2.27655e-06 2.4863e-06 0)
(2.39244e-06 2.62238e-06 0)
(2.50923e-06 2.75664e-06 0)
(2.62677e-06 2.889e-06 0)
(2.74488e-06 3.01939e-06 0)
(2.86324e-06 3.14794e-06 0)
(7.44277e-07 5.33611e-07 0)
(8.26347e-07 6.53264e-07 0)
(9.12067e-07 7.78533e-07 0)
(1.00089e-06 9.08475e-07 0)
(1.09298e-06 1.04206e-06 0)
(1.18805e-06 1.17851e-06 0)
(1.28602e-06 1.31705e-06 0)
(1.38668e-06 1.45703e-06 0)
(1.48985e-06 1.59786e-06 0)
(1.59534e-06 1.73904e-06 0)
(1.70296e-06 1.88011e-06 0)
(1.81251e-06 2.02068e-06 0)
(1.9238e-06 2.16041e-06 0)
(2.03664e-06 2.299e-06 0)
(2.15084e-06 2.4362e-06 0)
(2.26622e-06 2.57181e-06 0)
(2.38261e-06 2.7057e-06 0)
(2.49981e-06 2.83782e-06 0)
(2.61761e-06 2.96824e-06 0)
(2.73571e-06 3.09719e-06 0)
(6.54398e-07 5.00274e-07 0)
(7.30095e-07 6.18328e-07 0)
(8.10023e-07 7.42009e-07 0)
(8.93797e-07 8.7042e-07 0)
(9.81454e-07 1.00254e-06 0)
(1.07273e-06 1.13761e-06 0)
(1.16749e-06 1.27485e-06 0)
(1.26548e-06 1.41362e-06 0)
(1.36648e-06 1.55334e-06 0)
(1.47026e-06 1.6935e-06 0)
(1.57657e-06 1.83364e-06 0)
(1.68517e-06 1.97336e-06 0)
(1.79582e-06 2.11234e-06 0)
(1.90826e-06 2.25025e-06 0)
(2.02226e-06 2.38686e-06 0)
(2.13758e-06 2.52196e-06 0)
(2.25395e-06 2.65545e-06 0)
(2.37112e-06 2.78729e-06 0)
(2.48886e-06 2.91764e-06 0)
(2.60684e-06 3.04688e-06 0)
(5.55609e-07 4.71075e-07 0)
(6.24889e-07 5.87152e-07 0)
(6.99159e-07 7.08857e-07 0)
(7.78119e-07 8.3535e-07 0)
(8.61693e-07 9.65639e-07 0)
(9.49588e-07 1.09897e-06 0)
(1.04159e-06 1.23457e-06 0)
(1.13741e-06 1.37183e-06 0)
(1.23677e-06 1.51015e-06 0)
(1.33938e-06 1.64902e-06 0)
(1.44493e-06 1.788e-06 0)
(1.55314e-06 1.92669e-06 0)
(1.66371e-06 2.06475e-06 0)
(1.77632e-06 2.20187e-06 0)
(1.89068e-06 2.33781e-06 0)
(2.00645e-06 2.47238e-06 0)
(2.12333e-06 2.60546e-06 0)
(2.24093e-06 2.73704e-06 0)
(2.35896e-06 2.86729e-06 0)
(2.47702e-06 2.99659e-06 0)
(7.92931e-08 8.64849e-09 0)
(2.39461e-07 5.27238e-08 0)
(4.09576e-07 1.34606e-07 0)
(5.91831e-07 2.48874e-07 0)
(7.89751e-07 3.92499e-07 0)
(1.00448e-06 5.60426e-07 0)
(1.23692e-06 7.47239e-07 0)
(1.48671e-06 9.47241e-07 0)
(1.75313e-06 1.15466e-06 0)
(2.03479e-06 1.36475e-06 0)
(7.4706e-08 7.76299e-09 0)
(2.25778e-07 4.74336e-08 0)
(3.8583e-07 1.21832e-07 0)
(5.56557e-07 2.26564e-07 0)
(7.41164e-07 3.5935e-07 0)
(9.40703e-07 5.15947e-07 0)
(1.15609e-06 6.91661e-07 0)
(1.38699e-06 8.81478e-07 0)
(1.63259e-06 1.07986e-06 0)
(1.89142e-06 1.28305e-06 0)
(7.05828e-08 6.71228e-09 0)
(2.13499e-07 4.20691e-08 0)
(3.64644e-07 1.09469e-07 0)
(5.2515e-07 2.05302e-07 0)
(6.97867e-07 3.27859e-07 0)
(8.8368e-07 4.7355e-07 0)
(1.08356e-06 6.38289e-07 0)
(1.29739e-06 8.17769e-07 0)
(1.52489e-06 1.00697e-06 0)
(1.76448e-06 1.20322e-06 0)
(6.68092e-08 5.48746e-09 0)
(2.02311e-07 3.6671e-08 0)
(3.45572e-07 9.7747e-08 0)
(4.9721e-07 1.85666e-07 0)
(6.59767e-07 2.99142e-07 0)
(8.3389e-07 4.35079e-07 0)
(1.02048e-06 5.89833e-07 0)
(1.21931e-06 7.59557e-07 0)
(1.43045e-06 9.39502e-07 0)
(1.65199e-06 1.12736e-06 0)
(6.32813e-08 4.07755e-09 0)
(1.91868e-07 3.10541e-08 0)
(3.2789e-07 8.61299e-08 0)
(4.71494e-07 1.66676e-07 0)
(6.24952e-07 2.71715e-07 0)
(7.88693e-07 3.9855e-07 0)
(9.63608e-07 5.43924e-07 0)
(1.14935e-06 7.04427e-07 0)
(1.34637e-06 8.75716e-07 0)
(1.55213e-06 1.05545e-06 0)
(5.99699e-08 2.50609e-09 0)
(1.82081e-07 2.52552e-08 0)
(3.11437e-07 7.46788e-08 0)
(4.47758e-07 1.48456e-07 0)
(5.93086e-07 2.45832e-07 0)
(7.47612e-07 3.64396e-07 0)
(9.12187e-07 5.01175e-07 0)
(1.0863e-06 6.53033e-07 0)
(1.27073e-06 8.16019e-07 0)
(1.46255e-06 9.87629e-07 0)
(5.68084e-08 7.65869e-10 0)
(1.72743e-07 1.91917e-08 0)
(2.95818e-07 6.3153e-08 0)
(4.25371e-07 1.30558e-07 0)
(5.63258e-07 2.20817e-07 0)
(7.09458e-07 3.31741e-07 0)
(8.648e-07 4.60605e-07 0)
(1.02861e-06 6.04479e-07 0)
(1.2019e-06 7.59796e-07 0)
(1.38146e-06 9.23776e-07 0)
(5.37718e-08 -1.1206e-09 0)
(1.63777e-07 1.28894e-08 0)
(2.80882e-07 5.15602e-08 0)
(4.04083e-07 1.12969e-07 0)
(5.35073e-07 1.96641e-07 0)
(6.73641e-07 3.00539e-07 0)
(8.20587e-07 4.22131e-07 0)
(9.75113e-07 5.58618e-07 0)
(1.13839e-06 7.06788e-07 0)
(1.3071e-06 8.63637e-07 0)
(5.08211e-08 -3.15406e-09 0)
(1.55065e-07 6.31526e-09 0)
(2.66414e-07 3.97929e-08 0)
(3.83553e-07 9.54838e-08 0)
(5.0804e-07 1.72991e-07 0)
(6.39503e-07 2.70387e-07 0)
(7.78715e-07 3.85299e-07 0)
(9.24796e-07 5.15011e-07 0)
(1.07898e-06 6.56612e-07 0)
(1.238e-06 8.06921e-07 0)
(4.79347e-08 -5.32081e-09 0)
(1.46543e-07 -5.18826e-10 0)
(2.52289e-07 2.78404e-08 0)
(3.63573e-07 7.80592e-08 0)
(4.81831e-07 1.49785e-07 0)
(6.06564e-07 2.41158e-07 0)
(7.38511e-07 3.49919e-07 0)
(8.76768e-07 4.73415e-07 0)
(1.02257e-06 6.08977e-07 0)
(1.1728e-06 7.53326e-07 0)
(4.50889e-08 -7.61962e-09 0)
(1.3814e-07 -7.62829e-09 0)
(2.3838e-07 1.56501e-08 0)
(3.43935e-07 6.05971e-08 0)
(4.56133e-07 1.26873e-07 0)
(5.74377e-07 2.12651e-07 0)
(6.99379e-07 3.15755e-07 0)
(8.30254e-07 4.33569e-07 0)
(9.68189e-07 5.63611e-07 0)
(1.11031e-06 7.02568e-07 0)
(4.22684e-08 -1.00465e-08 0)
(1.29816e-07 -1.50143e-08 0)
(2.24602e-07 3.20667e-09 0)
(3.24485e-07 4.30684e-08 0)
(4.3069e-07 1.04203e-07 0)
(5.4256e-07 1.84788e-07 0)
(6.60785e-07 2.82687e-07 0)
(7.84541e-07 3.95313e-07 0)
(9.14954e-07 5.20325e-07 0)
(1.04943e-06 6.54425e-07 0)
(3.94639e-08 -1.26076e-08 0)
(1.21551e-07 -2.27003e-08 0)
(2.10898e-07 -9.53051e-09 0)
(3.05097e-07 2.54205e-08 0)
(4.05277e-07 8.17093e-08 0)
(5.1076e-07 1.5748e-07 0)
(6.22228e-07 2.50603e-07 0)
(7.38962e-07 3.58508e-07 0)
(8.62016e-07 4.78954e-07 0)
(9.89107e-07 6.08699e-07 0)
(3.66749e-08 -1.53245e-08 0)
(1.13357e-07 -3.07128e-08 0)
(1.97249e-07 -2.25744e-08 0)
(2.85683e-07 7.66909e-09 0)
(3.79698e-07 5.94235e-08 0)
(4.78646e-07 1.30762e-07 0)
(5.83229e-07 2.19525e-07 0)
(6.92867e-07 3.23149e-07 0)
(8.0855e-07 4.39469e-07 0)
(9.28324e-07 5.65322e-07 0)
(3.39258e-08 -1.82377e-08 0)
(1.05332e-07 -3.91221e-08 0)
(1.83726e-07 -3.59885e-08 0)
(2.66223e-07 -1.02273e-08 0)
(3.53791e-07 3.73236e-08 0)
(4.45896e-07 1.04615e-07 0)
(5.4329e-07 1.89422e-07 0)
(6.45572e-07 2.89185e-07 0)
(7.53683e-07 4.01791e-07 0)
(8.6601e-07 5.24176e-07 0)
(3.12693e-08 -2.14816e-08 0)
(9.76388e-08 -4.80286e-08 0)
(1.70449e-07 -4.97496e-08 0)
(2.46718e-07 -2.811e-08 0)
(3.27401e-07 1.56561e-08 0)
(4.12172e-07 7.93264e-08 0)
(5.01891e-07 1.60588e-07 0)
(5.96371e-07 2.56886e-07 0)
(6.9652e-07 3.66156e-07 0)
(8.01074e-07 4.85451e-07 0)
(2.89004e-08 -2.52195e-08 0)
(9.0782e-08 -5.76342e-08 0)
(1.57834e-07 -6.39888e-08 0)
(2.27344e-07 -4.60671e-08 0)
(3.00419e-07 -5.63007e-09 0)
(3.77097e-07 5.48473e-08 0)
(4.58405e-07 1.32958e-07 0)
(5.444e-07 2.26158e-07 0)
(6.35975e-07 3.32433e-07 0)
(7.32212e-07 4.48966e-07 0)
(2.72348e-08 -3.01365e-08 0)
(8.53461e-08 -6.82462e-08 0)
(1.46282e-07 -7.84229e-08 0)
(2.08183e-07 -6.339e-08 0)
(2.72653e-07 -2.56308e-08 0)
(3.40214e-07 3.2153e-08 0)
(4.12148e-07 1.07496e-07 0)
(4.88763e-07 1.97911e-07 0)
(5.70951e-07 3.0145e-07 0)
(6.5813e-07 4.15455e-07 0)
(2.82929e-08 -3.67526e-08 0)
(8.35039e-08 -8.02466e-08 0)
(1.37174e-07 -9.33167e-08 0)
(1.89715e-07 -8.04744e-08 0)
(2.43882e-07 -4.48253e-08 0)
(3.00798e-07 1.06654e-08 0)
(3.62011e-07 8.3545e-08 0)
(4.28034e-07 1.71415e-07 0)
(4.99759e-07 2.72424e-07 0)
(5.76878e-07 3.84078e-07 0)
(3.6363e-08 -4.86871e-08 0)
(8.66169e-08 -9.39077e-08 0)
(1.31152e-07 -1.06796e-07 0)
(1.71863e-07 -9.44165e-08 0)
(2.13767e-07 -6.01287e-08 0)
(2.5829e-07 -6.55894e-09 0)
(3.07288e-07 6.40115e-08 0)
(3.61365e-07 1.49394e-07 0)
(4.21431e-07 2.47859e-07 0)
(4.87336e-07 3.57106e-07 0)
)
;

boundaryField
{
    left
    {
        type            fixedDisplacement;
        value           uniform (0 0 0);
    }
    right
    {
        type            solidTraction;
        tractionSeries  
{
        file            "$FOAM_CASE/constant/timeVsTraction";
        outOfBounds     clamp;
}
        pressure        uniform 0;
        secondOrder     false;
        setEffectiveTraction false;
        relaxationFactor 1;
        value           nonuniform List<vector> 
30
(
(6.55749e-06 4.79113e-06 2.16223e-21)
(6.40501e-06 4.73622e-06 2.17039e-21)
(6.25116e-06 4.6817e-06 2.21541e-21)
(6.09553e-06 4.62655e-06 2.30383e-21)
(5.9381e-06 4.57014e-06 2.43306e-21)
(5.77924e-06 4.5119e-06 2.59958e-21)
(5.61949e-06 4.45146e-06 2.79734e-21)
(5.45954e-06 4.38865e-06 3.02002e-21)
(5.30008e-06 4.32345e-06 3.2604e-21)
(5.1418e-06 4.25606e-06 3.51036e-21)
(4.99208e-06 4.18973e-06 3.6859e-21)
(4.8501e-06 4.12451e-06 3.75819e-21)
(4.71014e-06 4.0583e-06 3.80765e-21)
(4.57247e-06 3.99144e-06 3.8352e-21)
(4.43725e-06 3.92439e-06 3.83664e-21)
(4.30415e-06 3.85759e-06 3.81358e-21)
(4.17341e-06 3.7913e-06 3.76995e-21)
(4.04477e-06 3.72599e-06 3.70562e-21)
(3.91794e-06 3.66196e-06 3.62436e-21)
(3.7926e-06 3.59945e-06 3.52951e-21)
(3.66835e-06 3.53868e-06 3.42523e-21)
(3.54479e-06 3.47975e-06 3.31593e-21)
(3.42146e-06 3.42271e-06 3.2066e-21)
(3.29794e-06 3.36752e-06 3.10222e-21)
(3.17381e-06 3.31404e-06 3.00779e-21)
(3.04872e-06 3.26205e-06 2.92774e-21)