/*--------------------------------*- C++ -*----------------------------------*\
  =========                 |
  \\      /  F ield         | OpenFOAM: The Open Source CFD Toolbox
   \\    /   O peration     | Website:  https://openfoam.org
    \\  /    A nd           | Version:  9
     \\/     M anipulation  |
\*---------------------------------------------------------------------------*/
FoamFile
{
    format      ascii;
    class       volScalarField;
    location    "5";
    object      epsilonEq;
}
// * * * * * * * * * * * * * * * * * * * * * * * * * * * * * * * * * * * * * //

dimensions      [0 0 0 0 0 0 0];

internalField   nonuniform List<scalar> 
1000
(
3.40769e-06
3.23766e-06
3.18964e-06
3.21423e-06
3.21744e-06
3.21042e-06
3.18781e-06
3.15354e-06
3.11531e-06
3.06773e-06
3.97373e-06
3.60921e-06
3.43277e-06
3.37797e-06
3.32888e-06
3.28679e-06
3.23794e-06
3.18615e-06
3.12756e-06
3.07586e-06
4.52723e-06
3.96679e-06
3.65237e-06
3.50738e-06
3.39746e-06
3.31382e-06
3.23425e-06
3.16043e-06
3.08286e-06
3.02081e-06
5.05641e-06
4.30581e-06
3.84939e-06
3.6057e-06
3.42743e-06
3.29695e-06
3.1836e-06
3.08632e-06
2.99039e-06
2.91741e-06
5.54445e-06
4.61843e-06
4.02007e-06
3.6721e-06
3.41952e-06
3.23774e-06
3.08819e-06
2.96607e-06
2.853e-06
2.76853e-06
5.99431e-06
4.90232e-06
4.16191e-06
3.70641e-06
3.37544e-06
3.13982e-06
2.9531e-06
2.8061e-06
2.67701e-06
2.58075e-06
6.38048e-06
5.13851e-06
4.25477e-06
3.69365e-06
3.28723e-06
3.00127e-06
2.78118e-06
2.61239e-06
2.47063e-06
2.36372e-06
6.74217e-06
5.31664e-06
4.28086e-06
3.62516e-06
3.15488e-06
2.83011e-06
2.58659e-06
2.4037e-06
2.25544e-06
2.14128e-06
6.99012e-06
5.33193e-06
4.14627e-06
3.43504e-06
2.94883e-06
2.61942e-06
2.37739e-06
2.19606e-06
2.05136e-06
1.93556e-06
7.19867e-06
5.02428e-06
3.82999e-06
3.1641e-06
2.74277e-06
2.45077e-06
2.2356e-06
2.06792e-06
1.93219e-06
1.81683e-06
8.39906e-09
2.85074e-08
1.26426e-07
2.59373e-07
4.04967e-07
5.55193e-07
7.01085e-07
8.40109e-07
9.67763e-07
1.08606e-06
3.42235e-08
1.72427e-07
3.67292e-07
5.58934e-07
7.2885e-07
8.79673e-07
1.01117e-06
1.1287e-06
1.22952e-06
1.3242e-06
1.4024e-07
4.07867e-07
6.53774e-07
8.76294e-07
1.06176e-06
1.21578e-06
1.34086e-06
1.44571e-06
1.52774e-06
1.6053e-06
3.22401e-07
6.96295e-07
9.73542e-07
1.20829e-06
1.39513e-06
1.54487e-06
1.66114e-06
1.75419e-06
1.82078e-06
1.88478e-06
5.82229e-07
1.02152e-06
1.31698e-06
1.55362e-06
1.73179e-06
1.86966e-06
1.97223e-06
2.05066e-06
2.10138e-06
2.15156e-06
9.18381e-07
1.36778e-06
1.6637e-06
1.89361e-06
2.0568e-06
2.17805e-06
2.26366e-06
2.32533e-06
2.35982e-06
2.39542e-06
1.32387e-06
1.72914e-06
2.0042e-06
2.21803e-06
2.3612e-06
2.46261e-06
2.52914e-06
2.57263e-06
2.59074e-06
2.61088e-06
1.78893e-06
2.10061e-06
2.3302e-06
2.51659e-06
2.63456e-06
2.7135e-06
2.75991e-06
2.78457e-06
2.78768e-06
2.79146e-06
2.30064e-06
2.47868e-06
2.63794e-06
2.7841e-06
2.87089e-06
2.92462e-06
2.94956e-06
2.95536e-06
2.94418e-06
2.93385e-06
2.84531e-06
2.85925e-06
2.92469e-06
3.01666e-06
3.06506e-06
3.0897e-06
3.09163e-06
3.0768e-06
3.05608e-06
3.0234e-06
1.19257e-06
1.28415e-06
1.36907e-06
1.44587e-06
1.51532e-06
1.5778e-06
1.63389e-06
1.68401e-06
1.72867e-06
1.76819e-06
1.80295e-06
1.83318e-06
1.85908e-06
1.88079e-06
1.89834e-06
1.91185e-06
1.92125e-06
1.92687e-06
1.92862e-06
1.92748e-06
1.39738e-06
1.45064e-06
1.50439e-06
1.55435e-06
1.60122e-06
1.64479e-06
1.68506e-06
1.72201e-06
1.75577e-06
1.78636e-06
1.81391e-06
1.83848e-06
1.86016e-06
1.879e-06
1.89501e-06
1.9082e-06
1.91837e-06
1.92541e-06
1.92836e-06
1.92659e-06
1.64855e-06
1.66547e-06
1.68718e-06
1.70811e-06
1.72941e-06
1.75066e-06
1.77169e-06
1.79214e-06
1.81192e-06
1.83078e-06
1.84864e-06
1.86537e-06
1.8809e-06
1.89514e-06
1.90795e-06
1.91913e-06
1.92817e-06
1.9345e-06
1.93614e-06
1.93195e-06
1.90323e-06
1.88989e-06
1.88399e-06
1.87926e-06
1.877e-06
1.87691e-06
1.87897e-06
1.88263e-06
1.88782e-06
1.89405e-06
1.90119e-06
1.9089e-06
1.91702e-06
1.92528e-06
1.93337e-06
1.94094e-06
1.94719e-06
1.95138e-06
1.95113e-06
1.94543e-06
2.14812e-06
2.10987e-06
2.08027e-06
2.05351e-06
2.03053e-06
2.0111e-06
1.99557e-06
1.98316e-06
1.97404e-06
1.96757e-06
1.96364e-06
1.96181e-06
1.96182e-06
1.9633e-06
1.96584e-06
1.96895e-06
1.97173e-06
1.97338e-06
1.97159e-06
1.96554e-06
2.37265e-06
2.3146e-06
2.26537e-06
2.22015e-06
2.17985e-06
2.14366e-06
2.11278e-06
2.08595e-06
2.06373e-06
2.04531e-06
2.03068e-06
2.01936e-06
2.0111e-06
2.00546e-06
2.00203e-06
2.00028e-06
1.99937e-06
1.99855e-06
1.99599e-06
1.99095e-06
2.57133e-06
2.49843e-06
2.43436e-06
2.37396e-06
2.3199e-06
2.26942e-06
2.22527e-06
2.18561e-06
2.15148e-06
2.12205e-06
2.09739e-06
2.07705e-06
2.06077e-06
2.04817e-06
2.03884e-06
2.03229e-06
2.02787e-06
2.02494e-06
2.02238e-06
2.01946e-06
2.73859e-06
2.65537e-06
2.5823e-06
2.50944e-06
2.44535e-06
2.3838e-06
2.32915e-06
2.27907e-06
2.23479e-06
2.19565e-06
2.16183e-06
2.13302e-06
2.10906e-06
2.08965e-06
2.07451e-06
2.06325e-06
2.05553e-06
2.05082e-06
2.04892e-06
2.049e-06
2.87387e-06
2.78146e-06
2.70865e-06
2.62716e-06
2.55546e-06
2.48496e-06
2.42105e-06
2.36201e-06
2.30894e-06
2.26146e-06
2.21972e-06
2.18352e-06
2.15278e-06
2.1273e-06
2.10694e-06
2.09147e-06
2.08087e-06
2.07481e-06
2.07404e-06
2.07759e-06
2.97415e-06
2.87532e-06
2.80747e-06
2.72682e-06
2.65216e-06
2.57791e-06
2.5076e-06
2.44148e-06
2.38056e-06
2.32515e-06
2.27558e-06
2.23192e-06
2.19424e-06
2.16248e-06
2.13669e-06
2.11679e-06
2.10315e-06
2.09564e-06
2.09602e-06
2.10329e-06
3.01241e-06
2.91991e-06
2.85297e-06
2.7772e-06
2.70273e-06
2.62864e-06
2.55715e-06
2.48892e-06
2.42512e-06
2.36626e-06
2.31287e-06
2.26522e-06
2.22356e-06
2.18801e-06
2.15885e-06
2.13616e-06
2.1207e-06
2.11249e-06
2.11412e-06
2.12453e-06
2.93412e-06
2.88693e-06
2.82568e-06
2.75997e-06
2.6928e-06
2.62495e-06
2.55846e-06
2.49408e-06
2.43306e-06
2.37605e-06
2.32373e-06
2.27654e-06
2.23488e-06
2.19907e-06
2.16953e-06
2.14657e-06
2.1312e-06
2.12361e-06
2.12701e-06
2.14017e-06
2.87101e-06
2.83538e-06
2.78864e-06
2.73245e-06
2.67409e-06
2.61286e-06
2.55185e-06
2.49165e-06
2.43383e-06
2.37911e-06
2.32836e-06
2.28213e-06
2.241e-06
2.2054e-06
2.17595e-06
2.1531e-06
2.13808e-06
2.13114e-06
2.13582e-06
2.15087e-06
2.79612e-06
2.77496e-06
2.7401e-06
2.69322e-06
2.64323e-06
2.58872e-06
2.53351e-06
2.47807e-06
2.42418e-06
2.3726e-06
2.32433e-06
2.28001e-06
2.24033e-06
2.20583e-06
2.1772e-06
2.15509e-06
2.14067e-06
2.13457e-06
2.14059e-06
2.15668e-06
2.71114e-06
2.70136e-06
2.67766e-06
2.64048e-06
2.5994e-06
2.55245e-06
2.50385e-06
2.45401e-06
2.4049e-06
2.35731e-06
2.31238e-06
2.2708e-06
2.23334e-06
2.20065e-06
2.1734e-06
2.15254e-06
2.13866e-06
2.13423e-06
2.13733e-06
2.15722e-06
2.62088e-06
2.62123e-06
2.60752e-06
2.57943e-06
2.54673e-06
2.50724e-06
2.46534e-06
2.42141e-06
2.3775e-06
2.33447e-06
2.29348e-06
2.2553e-06
2.22075e-06
2.19049e-06
2.16534e-06
2.14596e-06
2.13373e-06
2.12933e-06
2.13568e-06
2.1513e-06
2.52692e-06
2.53557e-06
2.53057e-06
2.51097e-06
2.48622e-06
2.45413e-06
2.41902e-06
2.38125e-06
2.34292e-06
2.30488e-06
2.26835e-06
2.2341e-06
2.203e-06
2.17569e-06
2.153e-06
2.13554e-06
2.12463e-06
2.12054e-06
2.12645e-06
2.14118e-06
2.43115e-06
2.44668e-06
2.44924e-06
2.43729e-06
2.41985e-06
2.39481e-06
2.36632e-06
2.33475e-06
2.30217e-06
2.26942e-06
2.23771e-06
2.20783e-06
2.1806e-06
2.15668e-06
2.13682e-06
2.12155e-06
2.11204e-06
2.10857e-06
2.11381e-06
2.1266e-06
2.33442e-06
2.35537e-06
2.36435e-06
2.35922e-06
2.34847e-06
2.33012e-06
2.30807e-06
2.28271e-06
2.25599e-06
2.22875e-06
2.20217e-06
2.17699e-06
2.15402e-06
2.13384e-06
2.11715e-06
2.10437e-06
2.09645e-06
2.09352e-06
2.09782e-06
2.10828e-06
2.23713e-06
2.26232e-06
2.2767e-06
2.2776e-06
2.27296e-06
2.26093e-06
2.24512e-06
2.2259e-06
2.20511e-06
2.18354e-06
2.16231e-06
2.14212e-06
2.12371e-06
2.10761e-06
2.09439e-06
2.08437e-06
2.07824e-06
2.07601e-06
2.07924e-06
2.08697e-06
2.13911e-06
2.16754e-06
2.18646e-06
2.19274e-06
2.19373e-06
2.18772e-06
2.178e-06
2.16491e-06
2.15012e-06
2.13439e-06
2.11872e-06
2.10376e-06
2.09018e-06
2.07844e-06
2.06898e-06
2.062e-06
2.0579e-06
2.05652e-06
2.05872e-06
2.06362e-06
2.03989e-06
2.07082e-06
2.09363e-06
2.10482e-06
2.11112e-06
2.11097e-06
2.10727e-06
2.10034e-06
2.09168e-06
2.08195e-06
2.07204e-06
2.06254e-06
2.05404e-06
2.04689e-06
2.04144e-06
2.03777e-06
2.03597e-06
2.03571e-06
2.03708e-06
2.03923e-06
1.9385e-06
1.9715e-06
1.99782e-06
2.01371e-06
2.02524e-06
2.03095e-06
2.03339e-06
2.03279e-06
2.03046e-06
2.02695e-06
2.02304e-06
2.01924e-06
2.01601e-06
2.01368e-06
2.01245e-06
2.0123e-06
2.01308e-06
2.01427e-06
2.01516e-06
2.01488e-06
1.83399e-06
1.86898e-06
1.89876e-06
1.91943e-06
1.93636e-06
1.94817e-06
1.95703e-06
1.96308e-06
1.96738e-06
1.97039e-06
1.97274e-06
1.97484e-06
1.97708e-06
1.97971e-06
1.98284e-06
1.98638e-06
1.98997e-06
1.99293e-06
1.99383e-06
1.99167e-06
1.72473e-06
1.76212e-06
1.79575e-06
1.82171e-06
1.84458e-06
1.86306e-06
1.87889e-06
1.8921e-06
1.90351e-06
1.91344e-06
1.92238e-06
1.93063e-06
1.9385e-06
1.94617e-06
1.95372e-06
1.96101e-06
1.96754e-06
1.97254e-06
1.97402e-06
1.97071e-06
1.61011e-06
1.65081e-06
1.68913e-06
1.72128e-06
1.75096e-06
1.77693e-06
1.80047e-06
1.82148e-06
1.84055e-06
1.85784e-06
1.87369e-06
1.88829e-06
1.90188e-06
1.91459e-06
1.92646e-06
1.93737e-06
1.94682e-06
1.95398e-06
1.95657e-06
1.953e-06
1.48788e-06
1.53367e-06
1.57829e-06
1.61822e-06
1.65612e-06
1.69084e-06
1.72318e-06
1.75292e-06
1.78038e-06
1.8056e-06
1.82875e-06
1.84996e-06
1.86934e-06
1.887e-06
1.90297e-06
1.91718e-06
1.92921e-06
1.93834e-06
1.94242e-06
1.93954e-06
1.36049e-06
1.41373e-06
1.46667e-06
1.51617e-06
1.56383e-06
1.60855e-06
1.65069e-06
1.68989e-06
1.72627e-06
1.75975e-06
1.7904e-06
1.81822e-06
1.84328e-06
1.86564e-06
1.88531e-06
1.90227e-06
1.91627e-06
1.92682e-06
1.93228e-06
1.93077e-06
1.22541e-06
1.29007e-06
1.35461e-06
1.41644e-06
1.47607e-06
1.53249e-06
1.58572e-06
1.63534e-06
1.68131e-06
1.7235e-06
1.76189e-06
1.79644e-06
1.82715e-06
1.85401e-06
1.87697e-06
1.89599e-06
1.91091e-06
1.9216e-06
1.92731e-06
1.92723e-06
1.09845e-06
1.17774e-06
1.25611e-06
1.33152e-06
1.40389e-06
1.47224e-06
1.53645e-06
1.59609e-06
1.65111e-06
1.70136e-06
1.74683e-06
1.78746e-06
1.82323e-06
1.85405e-06
1.87976e-06
1.90023e-06
1.91516e-06
1.92466e-06
1.92846e-06
1.92791e-06
1.71938e-06
1.83361e-06
2.02928e-06
2.24543e-06
2.46117e-06
2.65176e-06
2.8067e-06
2.91852e-06
2.98855e-06
3.0042e-06
1.62903e-06
1.73571e-06
1.91632e-06
2.12046e-06
2.33123e-06
2.52524e-06
2.69193e-06
2.8205e-06
2.91034e-06
2.94656e-06
1.54809e-06
1.65e-06
1.81809e-06
2.0092e-06
2.20978e-06
2.39838e-06
2.56619e-06
2.70419e-06
2.81237e-06
2.87974e-06
1.474e-06
1.57277e-06
1.73055e-06
1.91015e-06
2.1013e-06
2.28418e-06
2.45017e-06
2.5908e-06
2.70385e-06
2.79004e-06
1.40446e-06
1.50113e-06
1.65016e-06
1.81895e-06
2.00012e-06
2.17597e-06
2.33867e-06
2.48154e-06
2.5979e-06
2.69478e-06
1.33914e-06
1.43453e-06
1.57639e-06
1.73563e-06
1.90719e-06
2.07518e-06
2.23209e-06
2.37353e-06
2.4897e-06
2.59343e-06
1.27681e-06
1.37139e-06
1.5072e-06
1.65796e-06
1.82052e-06
1.98081e-06
2.13163e-06
2.27049e-06
2.38478e-06
2.49058e-06
1.21728e-06
1.31124e-06
1.44186e-06
1.58499e-06
1.73902e-06
1.89146e-06
2.03546e-06
2.17031e-06
2.28189e-06
2.38759e-06
1.16013e-06
1.25346e-06
1.37945e-06
1.51565e-06
1.66174e-06
1.80656e-06
1.9437e-06
2.07365e-06
2.18179e-06
2.2855e-06
1.10536e-06
1.19781e-06
1.31938e-06
1.44903e-06
1.58747e-06
1.72468e-06
1.85487e-06
1.97931e-06
2.08369e-06
2.18443e-06
1.05308e-06
1.14417e-06
1.26123e-06
1.38439e-06
1.51531e-06
1.64489e-06
1.76809e-06
1.88655e-06
1.98685e-06
2.08399e-06
1.0037e-06
1.09266e-06
1.20469e-06
1.32102e-06
1.4442e-06
1.56592e-06
1.68199e-06
1.79415e-06
1.89016e-06
1.98338e-06
9.58037e-07
1.04364e-06
1.14951e-06
1.25808e-06
1.37288e-06
1.4863e-06
1.59498e-06
1.70056e-06
1.79213e-06
1.88132e-06
9.17316e-07
9.97713e-07
1.09556e-06
1.19489e-06
1.30022e-06
1.40463e-06
1.50552e-06
1.60428e-06
1.69131e-06
1.77652e-06
8.83901e-07
9.55818e-07
1.04213e-06
1.12958e-06
1.22369e-06
1.31814e-06
1.41084e-06
1.5027e-06
1.58533e-06
1.66687e-06
8.60613e-07
9.18431e-07
9.88468e-07
1.06097e-06
1.14181e-06
1.22525e-06
1.30936e-06
1.39436e-06
1.47291e-06
1.55132e-06
8.53709e-07
8.86461e-07
9.30553e-07
9.82798e-07
1.04791e-06
1.11966e-06
1.19547e-06
1.27445e-06
1.35009e-06
1.4267e-06
8.64504e-07
8.54128e-07
8.63974e-07
8.93036e-07
9.41197e-07
1.00129e-06
1.06972e-06
1.14403e-06
1.21843e-06
1.29496e-06
9.08661e-07
8.13569e-07
7.68627e-07
7.69323e-07
8.02534e-07
8.54688e-07
9.20009e-07
9.93962e-07
1.07126e-06
1.15158e-06
9.27795e-07
7.13972e-07
6.37965e-07
6.16602e-07
6.42581e-07
6.92576e-07
7.60455e-07
8.39437e-07
9.24427e-07
1.01285e-06
)
;

boundaryField
{
    left
    {
        type            calculated;
        value           nonuniform List<scalar> 
30
(
1.69994e-06
1.61056e-06
1.53054e-06
1.45727e-06
1.38863e-06
1.32429e-06
1.26315e-06
1.20505e-06
1.14967e-06
1.09708e-06
1.0475e-06
1.00142e-06
9.59755e-07
9.23858e-07
8.96224e-07
8.80534e-07
8.84295e-07
9.1659e-07
1.0087e-06
1.1526e-06
7.6571e-06
4.91842e-06
3.70806e-06
3.08453e-06
2.69553e-06
2.4193e-06
2.21217e-06
2.04766e-06
1.91336e-06
1.79744e-06
)
;
    }
    right
    {
        type            calculated;
        value           nonuniform List<scalar> 
30
(
1.92715e-06
1.92659e-06
1.93175e-06
1.94512e-06
1.96516e-06
1.99058e-06
2.01915e-06
2.04883e-06
2.07758e-06
2.10352e-06
2.12486e-06
2.14076e-06
2.15155e-06
2.15742e-06
2.15742e-06
2.15196e-06
2.14189e-06
2.1272e-06
2.10876e-06
2.08731e-06
2.06381e-06
2.03929e-06
2.01483e-06
1.99154e-06
1.97055e-06
1.95285e-06
1.93946e-06
1.93076e-06
1.92731e-06
1.92754e-06
)
;
    }
    down
    {
        type            calculated;
        value           nonuniform List<scalar> 
30
(
3.48446e-09
1.32987e-08
9.38137e-08
2.21211e-07
3.68037e-07
5.21593e-07
6.7163e-07
8.14699e-07
9.45951e-07
1.06755e-06
1.17703e-06
1.27243e-06
1.36007e-06
1.43888e-06
1.50998e-06
1.57368e-06
1.63079e-06
1.68168e-06
1.72697e-06
1.76699e-06
1.80215e-06
1.83268e-06
1.85881e-06
1.88067e-06
1.89831e-06
1.91185e-06
1.92124e-06
1.92683e-06
1.9286e-06
1.92795e-06
)
;
    }
    up
    {
        type            calculated;
        value           nonuniform List<scalar> 
30
(
9.14603e-07
7.05786e-07
6.33702e-07
6.11907e-07
6.37218e-07
6.86502e-07
7.53944e-07
8.32812e-07
9.17747e-07
1.00655e-06
1.09242e-06
1.17235e-06
1.25147e-06
1.3275e-06
1.40052e-06
1.46942e-06
1.53416e-06
1.59426e-06
1.6497e-06
1.7003e-06
1.74609e-06
1.78699e-06
1.82298e-06
1.85396e-06
1.87979e-06
1.90032e-06
1.91525e-06
1.9247e-06
1.92842e-06
1.9282e-06
)
;
    }
    hole
    {
        type            calculated;
        value           nonuniform List<scalar> 
20
(
3.43065e-06
4.02645e-06
4.60918e-06
5.16632e-06
5.67947e-06
6.15279e-06
6.56023e-06
6.95179e-06
7.24982e-06
7.59432e-06
7.23517e-09
7.41579e-09
6.42412e-08
2.27005e-07
4.80943e-07
8.23667e-07
1.24389e-06
1.72985e-06
2.26656e-06
2.83899e-06
)
;
    }
    frontAndBack
    {
        type            empty;
    }
}


// ************************************************************************* //
