/*--------------------------------*- C++ -*----------------------------------*\
  =========                 |
  \\      /  F ield         | OpenFOAM: The Open Source CFD Toolbox
   \\    /   O peration     | Website:  https://openfoam.org
    \\  /    A nd           | Version:  9
     \\/     M anipulation  |
\*---------------------------------------------------------------------------*/
FoamFile
{
    format      ascii;
    class       volSymmTensorField;
    location    "5";
    object      epsilon;
}
// * * * * * * * * * * * * * * * * * * * * * * * * * * * * * * * * * * * * * //

dimensions      [0 0 0 0 0 0 0];

internalField   nonuniform List<symmTensor> 
1000
(
(2.11149e-06 -2.73198e-06 2.54509e-19 4.28949e-07 2.79891e-19 7.62743e-34)
(2.91162e-06 -2.10819e-06 -4.33879e-21 -5.17516e-07 2.43742e-21 0)
(3.30356e-06 -1.61594e-06 5.06451e-21 -9.6969e-07 -9.74796e-22 0)
(3.52323e-06 -1.24424e-06 1.299e-21 -1.28652e-06 -9.30748e-22 0)
(3.62897e-06 -9.44974e-07 -5.4973e-21 -1.46207e-06 4.06975e-22 0)
(3.66437e-06 -7.10964e-07 -5.92906e-22 -1.57415e-06 6.53476e-22 0)
(3.66004e-06 -5.2092e-07 -4.99939e-21 -1.63463e-06 -2.67834e-21 0)
(3.62668e-06 -3.69849e-07 3.42986e-21 -1.66529e-06 1.60001e-21 0)
(3.58343e-06 -2.44349e-07 -1.77363e-21 -1.67624e-06 -2.01042e-21 0)
(3.52066e-06 -1.39952e-07 0 -1.67764e-06 0 0)
(2.85579e-06 -3.03902e-06 2.63533e-19 1.22145e-07 3.3972e-19 4.59781e-35)
(3.47588e-06 -2.17644e-06 0 -7.19185e-07 0 0)
(3.74123e-06 -1.55354e-06 4.05757e-21 -1.09177e-06 1.93102e-21 0)
(3.86404e-06 -1.10556e-06 -6.96203e-21 -1.35572e-06 -3.70809e-21 0)
(3.89442e-06 -7.64146e-07 -2.95917e-21 -1.48887e-06 -1.7816e-21 0)
(3.87029e-06 -5.08915e-07 2.06199e-21 -1.57134e-06 2.09801e-21 0)
(3.81771e-06 -3.09731e-07 2.30628e-21 -1.60833e-06 1.54246e-21 0)
(3.74672e-06 -1.58355e-07 5.41988e-21 -1.62482e-06 3.15624e-21 0)
(3.66691e-06 -3.57464e-08 0 -1.6191e-06 0 0)
(3.58265e-06 6.23984e-08 0 -1.62171e-06 0 0)
(3.6901e-06 -3.23357e-06 2.61971e-19 -2.8451e-07 3.92067e-19 0)
(4.06022e-06 -2.17375e-06 0 -9.47333e-07 0 0)
(4.16093e-06 -1.44523e-06 3.86685e-21 -1.2003e-06 1.99554e-21 0)
(4.16391e-06 -9.37903e-07 -1.15784e-21 -1.38738e-06 4.12401e-22 0)
(4.10535e-06 -5.66858e-07 -5.66549e-23 -1.46397e-06 2.54714e-23 0)
(4.01362e-06 -2.99604e-07 -1.9223e-21 -1.50844e-06 -1.98524e-21 0)
(3.90854e-06 -9.89761e-08 2.61899e-21 -1.5169e-06 1.20725e-21 0)
(3.79685e-06 4.75166e-08 -1.94656e-21 -1.51549e-06 -1.43408e-21 0)
(3.68358e-06 1.61285e-07 -1.5474e-22 -1.4943e-06 2.72414e-22 0)
(3.57444e-06 2.53769e-07 -4.10113e-22 -1.49246e-06 -1.75572e-22 0)
(4.58284e-06 -3.28709e-06 2.33349e-19 -7.67931e-07 4.20728e-19 -2.6883e-35)
(4.64996e-06 -2.09124e-06 2.21198e-21 -1.19333e-06 -2.31327e-22 0)
(4.55611e-06 -1.29327e-06 -1.76717e-21 -1.29319e-06 -9.96006e-22 0)
(4.42032e-06 -7.49657e-07 -1.11729e-21 -1.38318e-06 2.20064e-22 0)
(4.26175e-06 -3.65199e-07 2.00632e-21 -1.39183e-06 1.93688e-21 0)
(4.09685e-06 -9.73164e-08 -2.41241e-21 -1.39259e-06 -1.59188e-21 0)
(3.9371e-06 9.62355e-08 -2.08435e-21 -1.37078e-06 -1.4798e-21 0)
(3.78541e-06 2.32437e-07 -4.64545e-21 -1.35122e-06 -3.38949e-21 0)
(3.64085e-06 3.32743e-07 -6.68122e-22 -1.31748e-06 -8.13793e-22 0)
(3.51018e-06 4.14499e-07 1.13888e-21 -1.30986e-06 1.00461e-21 0)
(5.4901e-06 -3.17397e-06 1.81696e-19 -1.29709e-06 3.96447e-19 -4.63216e-34)
(5.22584e-06 -1.9184e-06 1.15624e-25 -1.44533e-06 5.36224e-27 0)
(4.91688e-06 -1.09561e-06 -5.71883e-21 -1.36638e-06 -2.79724e-21 0)
(4.62876e-06 -5.44932e-07 5.18631e-22 -1.34347e-06 -2.14998e-23 0)
(4.36269e-06 -1.68232e-07 -7.26294e-22 -1.2755e-06 8.07482e-23 0)
(4.12179e-06 8.53662e-08 1.73897e-21 -1.22891e-06 1.60424e-21 0)
(3.90784e-06 2.61063e-07 -1.93577e-22 -1.17661e-06 5.94276e-23 0)
(3.71803e-06 3.79667e-07 1.83224e-21 -1.14004e-06 1.21997e-21 0)
(3.54653e-06 4.61417e-07 -4.01514e-22 -1.09761e-06 -8.54338e-22 0)
(3.39739e-06 5.2814e-07 -7.25281e-22 -1.08558e-06 -5.84065e-22 0)
(6.38054e-06 -2.88958e-06 1.2193e-19 -1.83606e-06 3.40804e-19 -4.45027e-34)
(5.77393e-06 -1.64852e-06 1.0538e-25 -1.68656e-06 2.21209e-26 0)
(5.23712e-06 -8.49704e-07 -5.69999e-26 -1.41094e-06 -8.66189e-27 0)
(4.78781e-06 -3.27934e-07 4.58136e-22 -1.26594e-06 5.42395e-23 0)
(4.41064e-06 1.52645e-08 -2.47423e-21 -1.11802e-06 -1.50064e-21 0)
(4.09455e-06 2.36894e-07 2.80987e-23 -1.02506e-06 -5.17318e-25 0)
(3.82959e-06 3.83246e-07 1.84162e-21 -9.45608e-07 1.2432e-21 0)
(3.60592e-06 4.77032e-07 3.91707e-21 -8.95604e-07 2.85668e-21 0)
(3.41251e-06 5.35792e-07 7.09438e-22 -8.48986e-07 5.18858e-22 0)
(3.24887e-06 5.83764e-07 -1.23965e-21 -8.34608e-07 -9.7384e-22 0)
(7.19408e-06 -2.41624e-06 8.0403e-20 -2.34164e-06 2.6471e-19 -8.37816e-34)
(6.26191e-06 -1.26175e-06 1.65156e-21 -1.89149e-06 6.60615e-22 0)
(5.48904e-06 -5.48557e-07 1.75e-21 -1.40663e-06 7.92199e-22 0)
(4.87887e-06 -1.01243e-07 -3.76365e-22 -1.14017e-06 -1.10267e-22 0)
(4.397e-06 1.76603e-07 1.79043e-21 -9.19099e-07 1.19705e-21 0)
(4.0149e-06 3.4584e-07 -1.64768e-21 -7.88764e-07 -1.1337e-21 0)
(3.70855e-06 4.5076e-07 4.65093e-22 -6.91129e-07 2.06127e-23 0)
(3.45954e-06 5.12774e-07 -1.47014e-21 -6.34586e-07 -9.60207e-22 0)
(3.25179e-06 5.4587e-07 -1.00091e-22 -5.89841e-07 1.61101e-23 0)
(3.07866e-06 5.73418e-07 -7.44294e-22 -5.76339e-07 -4.83014e-22 0)
(7.95415e-06 -1.75288e-06 4.2231e-20 -2.77636e-06 1.69135e-19 -2.6932e-35)
(6.67217e-06 -7.39007e-07 -4.41368e-21 -2.00931e-06 -1.58025e-21 0)
(5.65498e-06 -1.88082e-07 3.40684e-23 -1.31289e-06 1.85779e-23 0)
(4.89749e-06 1.22114e-07 5.49975e-22 -9.47607e-07 2.75034e-22 0)
(4.32825e-06 2.98597e-07 4.09109e-21 -6.77888e-07 2.02731e-21 0)
(3.89825e-06 3.96422e-07 -2.40521e-22 -5.31344e-07 -7.17495e-23 0)
(3.56579e-06 4.51951e-07 5.97012e-27 -4.31741e-07 1.06255e-27 0)
(3.30313e-06 4.80169e-07 -1.43798e-21 -3.79522e-07 -7.54035e-22 0)
(3.08961e-06 4.89673e-07 3.43233e-23 -3.43875e-07 8.80587e-26 0)
(2.91252e-06 4.98791e-07 1.07168e-22 -3.34823e-07 5.15614e-23 0)
(8.53756e-06 -8.18783e-07 1.15583e-20 -3.02919e-06 6.27765e-20 1.46317e-34)
(6.87054e-06 -7.95517e-08 -4.85794e-21 -1.90739e-06 -2.02346e-21 0)
(5.6235e-06 1.8291e-07 5.05454e-22 -1.04347e-06 4.28451e-22 0)
(4.77335e-06 2.8198e-07 4.75344e-22 -6.5005e-07 3.71297e-22 0)
(4.17493e-06 3.32758e-07 -1.9882e-22 -3.94556e-07 -1.18464e-22 0)
(3.73873e-06 3.5123e-07 1.59507e-21 -2.71758e-07 5.77856e-22 0)
(3.409e-06 3.60848e-07 8.62279e-23 -1.95582e-07 2.42351e-23 0)
(3.15026e-06 3.61865e-07 2.57243e-21 -1.61251e-07 9.79888e-22 0)
(2.9414e-06 3.56418e-07 5.68071e-22 -1.41192e-07 2.18847e-22 0)
(2.76583e-06 3.53918e-07 3.19478e-22 -1.39004e-07 1.30103e-22 0)
(9.05211e-06 7.30718e-07 9.71642e-22 -2.79102e-06 -3.98325e-20 -1.76245e-34)
(6.6981e-06 8.097e-07 -3.69412e-22 -1.25339e-06 -6.40721e-22 0)
(5.3907e-06 5.32737e-07 1.68872e-21 -5.23128e-07 7.08304e-22 0)
(4.5748e-06 3.45313e-07 8.65069e-23 -2.56525e-07 1.2007e-22 0)
(4.02563e-06 2.73496e-07 2.9557e-27 -1.19708e-07 2.69167e-27 0)
(3.62082e-06 2.34151e-07 1.61815e-21 -6.49259e-08 2.88579e-22 0)
(3.3134e-06 2.20851e-07 2.48252e-23 -3.59355e-08 6.5019e-24 0)
(3.06652e-06 2.13431e-07 1.24045e-21 -2.63495e-08 2.34188e-22 0)
(2.86472e-06 2.07603e-07 -1.34735e-23 -2.22175e-08 -2.93302e-25 0)
(2.69018e-06 2.03765e-07 -2.07326e-23 -2.4053e-08 -4.0509e-24 0)
(-1.30991e-09 7.22144e-09 3.16817e-20 -1.64979e-09 2.28867e-20 1.63321e-34)
(1.77395e-08 -2.20538e-08 -9.00562e-23 -2.6793e-09 2.04188e-20 1.56283e-36)
(1.13052e-07 -7.13417e-08 -1.1856e-21 -4.8869e-08 1.67099e-20 1.9468e-35)
(2.63666e-07 -1.10943e-07 -2.16067e-24 -1.17772e-07 1.79145e-20 0)
(4.37238e-07 -1.35492e-07 -1.63542e-22 -1.94344e-07 1.59379e-20 -1.55353e-36)
(6.18763e-07 -1.4956e-07 -1.62148e-21 -2.73099e-07 1.75439e-20 3.23584e-35)
(7.96128e-07 -1.55207e-07 3.67465e-22 -3.49122e-07 1.93701e-20 1.5404e-36)
(9.65256e-07 -1.55832e-07 -1.07374e-21 -4.20906e-07 1.81531e-20 2.9176e-35)
(1.12041e-06 -1.51891e-07 8.7056e-22 -4.86963e-07 1.84352e-20 -1.26153e-35)
(1.26416e-06 -1.48854e-07 1.82292e-21 -5.46421e-07 1.78973e-20 -3.79158e-35)
(2.58741e-08 -2.36333e-08 3.26439e-20 -8.45456e-09 5.28953e-21 4.408e-35)
(1.20243e-07 -1.32098e-07 1.31071e-21 -7.23223e-10 1.43579e-21 0)
(2.92953e-07 -2.52415e-07 -1.22662e-21 -7.26745e-08 -1.2301e-21 0)
(4.85198e-07 -3.44582e-07 9.78749e-24 -1.69886e-07 -1.01831e-21 0)
(6.78022e-07 -4.01454e-07 0 -2.66768e-07 0 0)
(8.60881e-07 -4.33468e-07 -1.85779e-21 -3.57966e-07 -2.75586e-22 0)
(1.02931e-06 -4.45211e-07 3.17431e-22 -4.3996e-07 1.59711e-21 0)
(1.18405e-06 -4.44724e-07 2.36252e-23 -5.13239e-07 8.58937e-23 0)
(1.32038e-06 -4.3269e-07 -1.00977e-21 -5.77605e-07 -2.9024e-21 0)
(1.44696e-06 -4.23094e-07 7.33448e-22 -6.32271e-07 1.13909e-22 0)
(3.62365e-08 -1.19704e-07 3.47271e-20 3.48224e-08 6.86977e-21 -1.96207e-36)
(2.17278e-07 -3.31435e-07 1.34048e-21 1.1967e-08 1.41836e-21 0)
(4.61289e-07 -4.80557e-07 1.40027e-21 -9.99609e-08 2.92989e-22 0)
(7.00979e-07 -5.80707e-07 6.98187e-23 -2.39058e-07 -9.82019e-22 0)
(9.21507e-07 -6.36127e-07 0 -3.67293e-07 0 0)
(1.11545e-06 -6.62409e-07 -2.08013e-21 -4.79706e-07 -5.4259e-22 0)
(1.28382e-06 -6.65971e-07 -2.83735e-21 -5.74065e-07 -7.93914e-22 0)
(1.43184e-06 -6.55711e-07 1.87895e-21 -6.53464e-07 1.14582e-21 0)
(1.55484e-06 -6.32854e-07 1.15029e-23 -7.18183e-07 3.65617e-23 0)
(1.66962e-06 -6.13624e-07 -1.69016e-21 -7.70765e-07 -1.06513e-21 0)
(5.16905e-08 -2.70326e-07 4.41394e-20 1.38267e-07 1.10537e-20 -3.75638e-35)
(3.50185e-07 -5.70501e-07 3.27907e-22 2.51751e-08 -1.1915e-21 0)
(6.60323e-07 -7.27417e-07 1.53888e-21 -1.36834e-07 3.00554e-22 0)
(9.43052e-07 -8.15682e-07 0 -3.17083e-07 0 0)
(1.18786e-06 -8.52573e-07 -2.6188e-21 -4.73988e-07 9.75293e-22 0)
(1.39251e-06 -8.59838e-07 3.81078e-23 -6.06668e-07 2.41432e-21 0)
(1.56173e-06 -8.45685e-07 -1.34155e-22 -7.13737e-07 -1.29656e-21 0)
(1.70468e-06 -8.19e-07 -3.81644e-22 -8.00501e-07 -2.00068e-21 0)
(1.81611e-06 -7.81671e-07 8.56875e-22 -8.6749e-07 2.77748e-22 0)
(1.92111e-06 -7.50095e-07 1.59975e-21 -9.2012e-07 5.9909e-22 0)
(9.20082e-08 -4.83228e-07 4.66657e-20 2.82332e-07 2.0245e-20 9.91107e-35)
(5.37321e-07 -8.30786e-07 -2.69777e-21 2.222e-08 1.81058e-21 0)
(9.13743e-07 -9.72052e-07 -1.63893e-21 -2.07689e-07 -4.81736e-22 0)
(1.23307e-06 -1.03117e-06 -4.37859e-22 -4.32542e-07 1.7711e-21 0)
(1.49395e-06 -1.03569e-06 -1.70583e-23 -6.15411e-07 1.09207e-22 0)
(1.70256e-06 -1.0134e-06 2.52326e-21 -7.64333e-07 -6.76105e-22 0)
(1.8676e-06 -9.73912e-07 1.10081e-21 -8.80139e-07 2.88781e-22 0)
(2.00177e-06 -9.25333e-07 0 -9.70838e-07 0 0)
(2.09939e-06 -8.70627e-07 -1.17952e-21 -1.03741e-06 -1.54276e-21 0)
(2.19287e-06 -8.24069e-07 4.68768e-22 -1.08804e-06 1.13785e-22 0)
(1.80272e-07 -7.6326e-07 6.83333e-20 4.44586e-07 2.96655e-20 -1.49945e-34)
(7.8499e-07 -1.09469e-06 1.09844e-21 2.45675e-09 -2.14824e-21 0)
(1.22401e-06 -1.19216e-06 -1.35583e-21 -3.0475e-07 -1.45895e-21 0)
(1.57072e-06 -1.20719e-06 2.95417e-22 -5.73178e-07 -8.2468e-22 0)
(1.83759e-06 -1.17063e-06 2.86396e-21 -7.76722e-07 9.5722e-22 0)
(2.04134e-06 -1.11351e-06 -2.75958e-21 -9.36059e-07 3.06134e-22 0)
(2.19526e-06 -1.04547e-06 -2.92341e-24 -1.0555e-06 7.31519e-23 0)
(2.31509e-06 -9.73076e-07 -2.15478e-21 -1.14587e-06 -1.47942e-21 0)
(2.3954e-06 -9.00468e-07 4.61328e-24 -1.20931e-06 2.86942e-23 0)
(2.47403e-06 -8.38146e-07 -2.35122e-21 -1.25548e-06 -1.07249e-21 0)
(3.42315e-07 -1.10749e-06 1.07244e-19 5.90579e-07 5.78003e-20 -1.60624e-34)
(1.09527e-06 -1.35168e-06 6.08527e-23 -4.09764e-08 -9.24107e-23 0)
(1.58542e-06 -1.37465e-06 -4.45458e-26 -4.25356e-07 7.62758e-26 0)
(1.94717e-06 -1.33067e-06 -2.92835e-21 -7.33337e-07 -2.04776e-21 0)
(2.2088e-06 -1.24614e-06 -4.92957e-22 -9.51476e-07 1.32583e-21 0)
(2.39802e-06 -1.15134e-06 -2.68186e-21 -1.11516e-06 -1.08967e-21 0)
(2.53325e-06 -1.05396e-06 4.82172e-21 -1.23273e-06 2.14545e-21 0)
(2.63242e-06 -9.58136e-07 -4.19522e-25 -1.3182e-06 5.74342e-23 0)
(2.69158e-06 -8.68828e-07 9.4768e-22 -1.3752e-06 -3.42297e-24 0)
(2.75109e-06 -7.91236e-07 -1.2862e-21 -1.41428e-06 -6.11079e-22 0)
(6.02064e-07 -1.50323e-06 1.55793e-19 6.8792e-07 9.81826e-20 -3.27063e-34)
(1.4671e-06 -1.59172e-06 1.56832e-21 -1.11002e-07 -1.8776e-21 0)
(1.98653e-06 -1.51081e-06 -6.05005e-22 -5.59096e-07 8.07911e-22 0)
(2.34669e-06 -1.39456e-06 3.69562e-22 -8.96705e-07 -5.77455e-22 0)
(2.59068e-06 -1.25738e-06 3.29127e-26 -1.12133e-06 -6.48351e-26 0)
(2.75564e-06 -1.12441e-06 3.11e-21 -1.28279e-06 2.63482e-22 0)
(2.8651e-06 -9.99132e-07 2.30591e-22 -1.3936e-06 -1.01085e-21 0)
(2.93779e-06 -8.82428e-07 -7.54541e-23 -1.47e-06 8.31601e-22 0)
(2.9731e-06 -7.79289e-07 1.21682e-23 -1.51906e-06 4.1516e-22 0)
(3.00913e-06 -6.88452e-07 9.84511e-22 -1.54823e-06 9.15805e-22 0)
(9.78447e-07 -1.92735e-06 1.95359e-19 7.06212e-07 1.54244e-19 4.48381e-34)
(1.89782e-06 -1.80493e-06 -5.00629e-22 -2.12549e-07 3.44305e-21 0)
(2.41506e-06 -1.59665e-06 -5.85236e-26 -6.99015e-07 6.14657e-26 0)
(2.75291e-06 -1.39814e-06 4.02553e-21 -1.05089e-06 9.44074e-22 0)
(2.96555e-06 -1.20578e-06 3.07647e-21 -1.27167e-06 1.53298e-21 0)
(3.09642e-06 -1.03595e-06 2.77561e-21 -1.42411e-06 1.38323e-21 0)
(3.17343e-06 -8.85431e-07 -3.00514e-22 -1.52292e-06 8.69047e-22 0)
(3.21437e-06 -7.52103e-07 -3.34259e-21 -1.58746e-06 -1.86337e-21 0)
(3.22388e-06 -6.38601e-07 2.05004e-21 -1.62611e-06 4.85348e-22 0)
(3.23365e-06 -5.37082e-07 9.20515e-22 -1.64799e-06 5.45629e-22 0)
(1.48174e-06 -2.34913e-06 2.2884e-19 6.23852e-07 2.11988e-19 6.59809e-35)
(2.38189e-06 -1.9809e-06 -1.01784e-21 -3.47731e-07 7.52805e-22 0)
(2.85776e-06 -1.63143e-06 -1.97759e-21 -8.37454e-07 -9.20788e-22 0)
(3.14905e-06 -1.3457e-06 8.5633e-21 -1.18327e-06 2.00313e-21 0)
(3.3153e-06 -1.09823e-06 5.22553e-23 -1.38801e-06 -5.95392e-23 0)
(3.40233e-06 -8.93961e-07 -2.72957e-21 -1.52368e-06 -1.54647e-21 0)
(3.44052e-06 -7.22184e-07 -2.92081e-21 -1.6059e-06 -4.59402e-22 0)
(3.44499e-06 -5.77316e-07 -1.10196e-21 -1.65378e-06 -6.57522e-22 0)
(3.4298e-06 -4.59904e-07 1.1836e-22 -1.68465e-06 -9.10084e-22 0)
(3.40477e-06 -3.58115e-07 5.55015e-22 -1.68701e-06 1.15047e-21 0)
(1.39358e-06 -1.38294e-07 1.83951e-21 -6.01708e-07 1.90011e-20 -1.12494e-35)
(1.50636e-06 -1.23611e-07 1.71662e-21 -6.47761e-07 1.76875e-20 -2.46479e-35)
(1.60996e-06 -1.10844e-07 -1.80064e-22 -6.90498e-07 1.54251e-20 -1.43396e-35)
(1.70313e-06 -9.92528e-08 1.58282e-22 -7.29167e-07 1.65855e-20 -6.27758e-37)
(1.78717e-06 -8.85025e-08 -8.74428e-22 -7.63955e-07 1.6711e-20 3.72005e-35)
(1.86248e-06 -7.88766e-08 5.66419e-22 -7.9531e-07 1.71542e-20 0)
(1.92998e-06 -7.00477e-08 5.33018e-22 -8.23369e-07 1.71056e-20 0)
(1.99015e-06 -6.20832e-08 1.05381e-21 -8.48471e-07 1.77375e-20 4.80583e-37)
(2.04369e-06 -5.47799e-08 9.55891e-22 -8.7081e-07 1.72021e-20 -1.25427e-35)
(2.091e-06 -4.80864e-08 1.59666e-21 -8.90604e-07 1.83516e-20 8.12607e-37)
(2.13256e-06 -4.18571e-08 1.8828e-21 -9.08018e-07 1.75116e-20 -3.78885e-35)
(2.16865e-06 -3.60045e-08 -1.33887e-22 -9.23187e-07 1.67286e-20 1.26765e-35)
(2.19953e-06 -3.04122e-08 1.83604e-21 -9.3621e-07 1.74653e-20 -3.81778e-35)
(2.22537e-06 -2.49975e-08 -1.56295e-21 -9.47157e-07 1.47352e-20 -7.65915e-37)
(2.24624e-06 -1.96921e-08 3.75656e-22 -9.56061e-07 1.73709e-20 1.30489e-35)
(2.26224e-06 -1.44893e-08 2.25879e-22 -9.6296e-07 1.68289e-20 -3.08709e-45)
(2.27334e-06 -9.46524e-09 -4.42216e-22 -9.67833e-07 1.60818e-20 -1.39216e-37)
(2.27995e-06 -4.90686e-09 7.89794e-22 -9.70755e-07 1.75452e-20 9.98625e-38)
(2.28204e-06 -1.41199e-09 4.25265e-22 -9.71627e-07 1.58879e-20 -3.93501e-35)
(2.28127e-06 -5.97539e-10 1.72963e-20 -9.7028e-07 1.42403e-20 -4.08233e-35)
(1.55107e-06 -3.94204e-07 1.80138e-21 -6.81507e-07 2.20178e-21 0)
(1.63456e-06 -3.55054e-07 1.16349e-21 -7.16585e-07 3.1834e-22 0)
(1.71442e-06 -3.20549e-07 8.51428e-23 -7.48877e-07 -5.02889e-22 0)
(1.78606e-06 -2.88351e-07 2.64949e-21 -7.78514e-07 2.37701e-21 0)
(1.85204e-06 -2.58169e-07 -5.07652e-22 -8.04958e-07 -1.19734e-22 0)
(1.91161e-06 -2.3089e-07 -2.16164e-21 -8.29238e-07 -2.17902e-21 0)
(1.96586e-06 -2.05635e-07 1.09903e-21 -8.51025e-07 4.05642e-22 0)
(2.01471e-06 -1.82694e-07 0 -8.70831e-07 0 0)
(2.0588e-06 -1.61524e-07 5.23639e-22 -8.88646e-07 1.84978e-22 0)
(2.09824e-06 -1.42041e-07 1.07675e-21 -9.04701e-07 4.13835e-22 0)
(2.13344e-06 -1.23875e-07 3.23137e-21 -9.19071e-07 1.66414e-21 0)
(2.16456e-06 -1.06817e-07 1.46253e-23 -9.3187e-07 1.66299e-23 0)
(2.19182e-06 -9.05869e-08 4.16914e-22 -9.43147e-07 -3.25415e-22 0)
(2.21537e-06 -7.49911e-08 6.18495e-22 -9.52937e-07 7.03858e-22 0)
(2.23531e-06 -5.98773e-08 6.34488e-22 -9.61213e-07 7.24001e-22 0)
(2.25175e-06 -4.52423e-08 -6.28519e-22 -9.67888e-07 -7.2089e-22 0)
(2.26459e-06 -3.12613e-08 -6.3206e-22 -9.72731e-07 -7.29084e-22 0)
(2.27398e-06 -1.85457e-08 -1.2693e-21 -9.75338e-07 -1.47279e-21 0)
(2.27918e-06 -8.00689e-09 -9.60087e-24 -9.74779e-07 -1.04604e-23 0)
(2.28044e-06 -2.42105e-09 1.98409e-20 -9.69546e-07 1.09496e-21 4.46873e-35)
(1.74971e-06 -5.70288e-07 4.9337e-22 -8.11274e-07 6.7042e-22 0)
(1.80215e-06 -5.16914e-07 6.70352e-22 -8.32022e-07 2.38747e-22 0)
(1.85651e-06 -4.68993e-07 -1.56333e-21 -8.49379e-07 -1.95621e-21 0)
(1.90413e-06 -4.24497e-07 -1.37883e-22 -8.65848e-07 3.56946e-22 0)
(1.9498e-06 -3.8209e-07 2.84677e-21 -8.7988e-07 2.35919e-21 0)
(1.99119e-06 -3.43583e-07 -2.26251e-21 -8.93323e-07 -2.14899e-21 0)
(2.02999e-06 -3.07548e-07 -6.02846e-22 -9.05431e-07 -6.94012e-22 0)
(2.06539e-06 -2.74616e-07 1.15206e-21 -9.1687e-07 1.30273e-21 0)
(2.09812e-06 -2.44036e-07 1.31469e-24 -9.27469e-07 -8.45658e-22 0)
(2.12794e-06 -2.15797e-07 -1.21891e-21 -9.37436e-07 -1.36297e-21 0)
(2.1552e-06 -1.89438e-07 1.16794e-21 -9.4676e-07 1.30144e-21 0)
(2.17988e-06 -1.64732e-07 1.80468e-21 -9.55496e-07 2.01229e-21 0)
(2.20216e-06 -1.41343e-07 1.38068e-23 -9.63624e-07 1.51387e-23 0)
(2.22208e-06 -1.19035e-07 -6.17886e-22 -9.71095e-07 -6.93083e-22 0)
(2.23967e-06 -9.76025e-08 6.11652e-22 -9.77761e-07 6.90296e-22 0)
(2.25494e-06 -7.69685e-08 9.01523e-29 -9.83344e-07 9.99096e-29 0)
(2.26756e-06 -5.71821e-08 -6.30141e-22 -9.87294e-07 -7.20232e-22 0)
(2.27738e-06 -3.85562e-08 8.71463e-23 -9.88718e-07 5.20457e-22 0)
(2.28277e-06 -2.16539e-08 -2.0629e-21 -9.85756e-07 -2.64042e-22 0)
(2.28363e-06 -7.24347e-09 2.03975e-20 -9.76329e-07 2.91694e-22 3.36728e-38)
(1.97762e-06 -6.94588e-07 0 -9.5273e-07 0 0)
(1.9979e-06 -6.3345e-07 7.16945e-22 -9.60335e-07 2.60733e-22 0)
(2.02641e-06 -5.77006e-07 5.62945e-22 -9.63572e-07 6.39561e-22 0)
(2.04897e-06 -5.2552e-07 6.17853e-22 -9.67741e-07 7.11028e-22 0)
(2.07329e-06 -4.75383e-07 0 -9.69644e-07 0 0)
(2.09511e-06 -4.29857e-07 8.16031e-23 -9.72306e-07 -3.58661e-22 0)
(2.1171e-06 -3.8672e-07 -1.84469e-21 -9.74538e-07 -1.12877e-21 0)
(2.13759e-06 -3.47111e-07 -1.17957e-21 -9.77234e-07 -1.27463e-21 0)
(2.15753e-06 -3.10077e-07 -6.61336e-22 -9.80124e-07 -3.04412e-22 0)
(2.1763e-06 -2.75748e-07 -3.00475e-25 -9.83407e-07 8.1502e-22 0)
(2.19423e-06 -2.43622e-07 -5.79759e-22 -9.87018e-07 1.79017e-22 0)
(2.2111e-06 -2.13497e-07 1.21658e-21 -9.90954e-07 5.2043e-22 0)
(2.227e-06 -1.85015e-07 1.15303e-21 -9.95134e-07 5.71174e-23 0)
(2.24185e-06 -1.57914e-07 2.99015e-23 -9.99422e-07 4.3602e-22 0)
(2.25553e-06 -1.31932e-07 5.16774e-23 -1.00356e-06 4.62293e-22 0)
(2.26793e-06 -1.06872e-07 -6.23046e-22 -1.00715e-06 -6.97618e-22 0)
(2.27849e-06 -8.26045e-08 -1.33058e-28 -1.00945e-06 -1.49084e-28 0)
(2.28692e-06 -5.8969e-08 1.33026e-21 -1.0094e-06 1.93981e-21 0)
(2.29115e-06 -3.61596e-08 -6.9254e-23 -1.00491e-06 -5.10367e-22 0)
(2.2913e-06 -1.25269e-08 1.80181e-20 -9.93869e-07 -2.21709e-21 -6.69809e-35)
(2.22482e-06 -7.59067e-07 5.82003e-23 -1.11056e-06 8.92852e-22 0)
(2.21175e-06 -6.97693e-07 -7.79424e-22 -1.10474e-06 -3.39851e-22 0)
(2.21432e-06 -6.37745e-07 -1.96296e-21 -1.0927e-06 -1.59248e-21 0)
(2.21114e-06 -5.84971e-07 1.29159e-21 -1.08408e-06 8.75797e-22 0)
(2.21378e-06 -5.31923e-07 3.36066e-21 -1.07313e-06 2.19917e-21 0)
(2.21529e-06 -4.83962e-07 -6.18279e-22 -1.06419e-06 -6.427e-22 0)
(2.21974e-06 -4.37823e-07 0 -1.05569e-06 0 0)
(2.22441e-06 -3.95224e-07 6.0204e-22 -1.04869e-06 6.23159e-22 0)
(2.23062e-06 -3.55067e-07 -1.93267e-21 -1.04292e-06 -8.23751e-22 0)
(2.23733e-06 -3.17639e-07 -1.25525e-21 -1.03856e-06 -9.21461e-22 0)
(2.24487e-06 -2.82469e-07 6.71882e-23 -1.03553e-06 -7.10969e-22 0)
(2.25284e-06 -2.49401e-07 -6.34916e-22 -1.03379e-06 -1.06536e-21 0)
(2.26122e-06 -2.18096e-07 -5.9688e-23 -1.03321e-06 1.11898e-21 0)
(2.26981e-06 -1.88266e-07 1.23953e-21 -1.03359e-06 1.73639e-21 0)
(2.27839e-06 -1.59596e-07 6.01169e-22 -1.03461e-06 2.55598e-22 0)
(2.28673e-06 -1.31729e-07 -2.43111e-23 -1.03581e-06 -4.33099e-22 0)
(2.29413e-06 -1.04345e-07 1.16515e-21 -1.03637e-06 4.77918e-22 0)
(2.30026e-06 -7.6759e-08 5.73019e-22 -1.03525e-06 2.2934e-22 0)
(2.30301e-06 -4.89427e-08 2.35514e-21 -1.03048e-06 1.85338e-21 0)
(2.30262e-06 -1.72223e-08 2.32128e-20 -1.02012e-06 2.47361e-21 6.88729e-35)
(2.48058e-06 -7.66997e-07 4.61287e-22 -1.26701e-06 6.29439e-22 0)
(2.43386e-06 -7.13339e-07 1.11404e-23 -1.24979e-06 2.41598e-23 0)
(2.41129e-06 -6.54704e-07 -1.41869e-21 -1.22338e-06 -9.79506e-22 0)
(2.38244e-06 -6.05844e-07 -3.40757e-21 -1.203e-06 -2.53959e-21 0)
(2.36378e-06 -5.54213e-07 1.33082e-21 -1.18019e-06 9.03206e-22 0)
(2.34502e-06 -5.07715e-07 1.25407e-21 -1.16025e-06 1.23839e-21 0)
(2.33189e-06 -4.62156e-07 -6.14401e-22 -1.14156e-06 -6.07657e-22 0)
(2.32053e-06 -4.19743e-07 -9.71955e-23 -1.12513e-06 2.72134e-22 0)
(2.31261e-06 -3.79388e-07 2.69105e-21 -1.11079e-06 1.59753e-21 0)
(2.30675e-06 -3.41475e-07 -1.80156e-21 -1.09868e-06 -1.82858e-21 0)
(2.30325e-06 -3.05635e-07 -6.40821e-22 -1.08876e-06 -6.586e-22 0)
(2.30156e-06 -2.71757e-07 1.74484e-21 -1.08096e-06 2.56731e-21 0)
(2.3016e-06 -2.39554e-07 -2.53769e-21 -1.07518e-06 -7.54345e-22 0)
(2.30305e-06 -2.0873e-07 -1.81372e-21 -1.0712e-06 -1.9281e-21 0)
(2.30563e-06 -1.78939e-07 3.00691e-24 -1.06873e-06 -3.89426e-22 0)
(2.30904e-06 -1.49691e-07 -2.44093e-21 -1.06731e-06 -1.86063e-21 0)
(2.3126e-06 -1.20514e-07 -1.77789e-23 -1.06624e-06 -1.66443e-23 0)
(2.31593e-06 -9.02768e-08 2.40041e-21 -1.06461e-06 2.28491e-21 0)
(2.3173e-06 -5.88281e-08 3.93047e-23 -1.06085e-06 4.71788e-22 0)
(2.31681e-06 -2.09355e-08 2.41523e-20 -1.05333e-06 9.98844e-22 -5.21474e-37)
(2.7324e-06 -7.18305e-07 -4.83265e-22 -1.41391e-06 -6.15968e-22 0)
(2.65355e-06 -6.80953e-07 6.66837e-22 -1.38851e-06 6.05805e-22 0)
(2.60828e-06 -6.28679e-07 8.2192e-22 -1.35023e-06 4.28223e-22 0)
(2.55499e-06 -5.88694e-07 -6.50651e-22 -1.31954e-06 -6.06998e-22 0)
(2.51632e-06 -5.4311e-07 -1.53871e-21 -1.28655e-06 -7.66578e-22 0)
(2.47811e-06 -5.018e-07 7.5114e-22 -1.25633e-06 3.72547e-22 0)
(2.44783e-06 -4.60328e-07 2.12702e-21 -1.22802e-06 1.36354e-21 0)
(2.42075e-06 -4.2098e-07 -3.4223e-21 -1.20238e-06 -2.28895e-21 0)
(2.39874e-06 -3.83028e-07 -2.11075e-21 -1.17958e-06 -1.38512e-21 0)
(2.38024e-06 -3.46895e-07 3.31294e-21 -1.15972e-06 2.2348e-21 0)
(2.36549e-06 -3.12439e-07 -1.35009e-21 -1.14284e-06 -6.43872e-22 0)
(2.35384e-06 -2.79608e-07 1.79226e-21 -1.1289e-06 1.82634e-21 0)
(2.34513e-06 -2.48216e-07 1.92716e-21 -1.11779e-06 1.25105e-21 0)
(2.33897e-06 -2.17982e-07 -1.12769e-21 -1.10935e-06 -1.56003e-21 0)
(2.33507e-06 -1.88554e-07 -7.31004e-22 -1.10333e-06 3.79008e-22 0)
(2.33307e-06 -1.59347e-07 3.48087e-23 -1.09937e-06 3.19698e-23 0)
(2.33243e-06 -1.2979e-07 -2.97514e-21 -1.09694e-06 -2.46591e-21 0)
(2.33274e-06 -9.84226e-08 5.91308e-22 -1.09538e-06 6.61115e-22 0)
(2.3329e-06 -6.50407e-08 1.17077e-21 -1.09366e-06 9.12694e-22 0)
(2.33264e-06 -2.33907e-08 2.48696e-20 -1.09054e-06 8.56097e-22 -2.23949e-37)
(2.96706e-06 -6.16526e-07 5.84002e-24 -1.53836e-06 1.96183e-23 0)
(2.85987e-06 -6.03881e-07 -6.89314e-22 -1.50887e-06 -6.03552e-22 0)
(2.79576e-06 -5.63425e-07 1.46743e-22 -1.46377e-06 -1.59548e-22 0)
(2.72073e-06 -5.35646e-07 0 -1.42466e-06 0 0)
(2.66408e-06 -5.00254e-07 0 -1.38469e-06 0 0)
(2.6087e-06 -4.67043e-07 -2.06334e-21 -1.34656e-06 -1.60842e-21 0)
(2.5626e-06 -4.32872e-07 1.83678e-21 -1.31077e-06 1.70392e-21 0)
(2.52103e-06 -3.99391e-07 3.87135e-21 -1.27751e-06 3.35976e-21 0)
(2.48558e-06 -3.66475e-07 -2.92917e-21 -1.24732e-06 -2.79848e-21 0)
(2.45488e-06 -3.34452e-07 -2.56471e-21 -1.22033e-06 -2.1737e-21 0)
(2.42899e-06 -3.03434e-07 1.1833e-21 -1.19677e-06 1.17062e-21 0)
(2.40735e-06 -2.73457e-07 -1.1449e-22 -1.17669e-06 2.31751e-22 0)
(2.38971e-06 -2.44463e-07 2.0211e-21 -1.16013e-06 9.96031e-22 0)
(2.37571e-06 -2.16246e-07 3.15021e-21 -1.14702e-06 2.17088e-21 0)
(2.36504e-06 -1.88502e-07 4.30295e-23 -1.13726e-06 3.91399e-23 0)
(2.35736e-06 -1.60623e-07 1.42858e-21 -1.13065e-06 -3.89928e-22 0)
(2.35234e-06 -1.32007e-07 0 -1.12693e-06 0 0)
(2.34953e-06 -1.01015e-07 -1.20546e-21 -1.12575e-06 -5.30965e-22 0)
(2.34868e-06 -6.74419e-08 5.79896e-22 -1.12671e-06 2.44752e-22 0)
(2.34896e-06 -2.45147e-08 2.73087e-20 -1.12907e-06 1.35402e-21 -6.2248e-37)
(3.1744e-06 -4.71346e-07 -4.58778e-24 -1.63133e-06 -1.71637e-23 0)
(3.04293e-06 -4.88057e-07 8.54445e-22 -1.60071e-06 5.09217e-22 0)
(2.96573e-06 -4.67897e-07 -8.49959e-22 -1.55923e-06 -5.16114e-22 0)
(2.87399e-06 -4.54757e-07 -8.36577e-22 -1.51499e-06 -5.02666e-22 0)
(2.80115e-06 -4.33807e-07 2.29769e-21 -1.47065e-06 1.5617e-21 0)
(2.73117e-06 -4.10695e-07 1.63633e-21 -1.42607e-06 9.73883e-22 0)
(2.67064e-06 -3.85491e-07 -2.17402e-21 -1.38373e-06 -1.44981e-21 0)
(2.61614e-06 -3.59142e-07 2.87011e-22 -1.3439e-06 -3.03919e-22 0)
(2.56845e-06 -3.32382e-07 4.94032e-22 -1.3073e-06 4.5586e-22 0)
(2.52659e-06 -3.05618e-07 -2.65996e-22 -1.27423e-06 3.58545e-22 0)
(2.49038e-06 -2.79194e-07 -2.20615e-21 -1.24493e-06 -1.20611e-21 0)
(2.45934e-06 -2.53263e-07 1.97722e-23 -1.21957e-06 1.89778e-23 0)
(2.43318e-06 -2.27872e-07 -1.01202e-21 -1.19825e-06 -1.36827e-21 0)
(2.41156e-06 -2.02888e-07 -3.41328e-23 -1.18105e-06 -3.10779e-23 0)
(2.39424e-06 -1.78063e-07 1.2882e-21 -1.168e-06 6.25575e-22 0)
(2.38091e-06 -1.52815e-07 -2.57286e-23 -1.15911e-06 -2.23893e-23 0)
(2.37152e-06 -1.26556e-07 1.5751e-21 -1.15442e-06 2.10001e-21 0)
(2.36559e-06 -9.76076e-08 -5.9292e-22 -1.15393e-06 -2.64638e-22 0)
(2.36382e-06 -6.57671e-08 -2.7829e-21 -1.15795e-06 -2.74259e-21 0)
(2.36472e-06 -2.42179e-08 2.52106e-20 -1.1663e-06 -8.64529e-22 -4.90088e-35)
(3.33918e-06 -2.85127e-07 -1.08831e-22 -1.69137e-06 -5.47687e-23 0)
(3.20311e-06 -3.2128e-07 -9.15688e-22 -1.65378e-06 -5.38435e-22 0)
(3.11497e-06 -3.30029e-07 7.44297e-22 -1.62531e-06 5.82126e-22 0)
(3.01685e-06 -3.33687e-07 -1.94939e-21 -1.5851e-06 -1.7667e-21 0)
(2.93095e-06 -3.32178e-07 -2.00497e-21 -1.54327e-06 -1.65951e-21 0)
(2.84971e-06 -3.24784e-07 1.18738e-21 -1.49841e-06 1.21941e-21 0)
(2.77624e-06 -3.13314e-07 1.03279e-21 -1.45319e-06 1.22358e-21 0)
(2.70954e-06 -2.98432e-07 1.7978e-21 -1.40901e-06 1.61251e-21 0)
(2.64997e-06 -2.81176e-07 -2.10801e-21 -1.36702e-06 -1.56758e-21 0)
(2.59705e-06 -2.6233e-07 5.33343e-24 -1.32812e-06 4.2965e-23 0)
(2.55057e-06 -2.42521e-07 -2.59656e-23 -1.2929e-06 -1.2812e-22 0)
(2.51013e-06 -2.222e-07 -1.64982e-21 -1.26181e-06 -1.60462e-21 0)
(2.47544e-06 -2.01638e-07 0 -1.23518e-06 0 0)
(2.44615e-06 -1.80901e-07 -1.49139e-21 -1.21327e-06 -4.84012e-22 0)
(2.42212e-06 -1.59888e-07 -7.06336e-24 -1.19634e-06 -2.96103e-23 0)
(2.40302e-06 -1.38148e-07 -1.92641e-21 -1.18463e-06 -9.35503e-22 0)
(2.38913e-06 -1.15185e-07 5.28627e-22 -1.17853e-06 5.55044e-22 0)
(2.37993e-06 -8.94446e-08 1.21473e-21 -1.17842e-06 5.54539e-22 0)
(2.37718e-06 -6.07561e-08 1.5075e-23 -1.18536e-06 -1.2234e-24 0)
(2.37877e-06 -2.27037e-08 2.69096e-20 -1.19979e-06 -1.37657e-23 -2.15048e-37)
(3.41936e-06 -1.32034e-07 9.43196e-22 -1.69569e-06 8.26627e-22 0)
(3.29552e-06 -1.51403e-07 -8.71275e-22 -1.6642e-06 -5.46313e-22 0)
(3.2003e-06 -1.87003e-07 -5.05481e-22 -1.64444e-06 -4.17896e-22 0)
(3.10303e-06 -2.03998e-07 8.3738e-22 -1.61193e-06 5.10523e-22 0)
(3.01289e-06 -2.15972e-07 -1.65401e-21 -1.57374e-06 -7.50649e-22 0)
(2.92733e-06 -2.21361e-07 -1.11573e-21 -1.53183e-06 -5.26185e-22 0)
(2.8484e-06 -2.2163e-07 -1.39281e-21 -1.4879e-06 -1.00696e-21 0)
(2.77558e-06 -2.17681e-07 1.66781e-22 -1.44384e-06 -1.15878e-22 0)
(2.70949e-06 -2.1031e-07 2.81458e-21 -1.40098e-06 1.78838e-21 0)
(2.64988e-06 -2.00363e-07 -9.69788e-23 -1.36045e-06 -1.03689e-22 0)
(2.59676e-06 -1.88497e-07 1.50401e-21 -1.32309e-06 8.49456e-22 0)
(2.54987e-06 -1.75264e-07 -7.43625e-23 -1.28957e-06 -8.3766e-23 0)
(2.50906e-06 -1.61046e-07 5.50493e-36 -1.26045e-06 5.56216e-36 0)
(2.4741e-06 -1.4604e-07 -6.61066e-22 -1.23617e-06 -3.28563e-22 0)
(2.44495e-06 -1.30279e-07 6.46199e-22 -1.21723e-06 3.139e-22 0)
(2.42139e-06 -1.1349e-07 -2.91066e-23 -1.20408e-06 -4.1771e-23 0)
(2.40398e-06 -9.53219e-08 1.01717e-22 -1.19749e-06 -2.71502e-22 0)
(2.39218e-06 -7.45708e-08 5.90744e-24 -1.19814e-06 1.93854e-23 0)
(2.38856e-06 -5.11277e-08 -5.93903e-24 -1.20773e-06 7.7194e-24 0)
(2.3905e-06 -1.9531e-08 2.89208e-20 -1.22728e-06 1.48693e-22 2.57709e-37)
(3.35124e-06 1.80664e-08 8.75186e-22 -1.63291e-06 6.89671e-22 0)
(3.26882e-06 -4.14412e-09 0 -1.64254e-06 0 0)
(3.18272e-06 -4.74735e-08 -6.8326e-22 -1.6275e-06 -5.99464e-22 0)
(3.09655e-06 -7.59503e-08 8.92838e-36 -1.60299e-06 7.19972e-36 0)
(3.01434e-06 -9.83655e-08 2.04551e-36 -1.5704e-06 1.47858e-36 0)
(2.93495e-06 -1.14222e-07 9.70291e-36 -1.53314e-06 7.18874e-36 0)
(2.86041e-06 -1.24487e-07 1.48892e-35 -1.49296e-06 1.19809e-35 0)
(2.79043e-06 -1.30084e-07 -5.99045e-22 -1.45177e-06 -5.58671e-22 0)
(2.72589e-06 -1.31733e-07 0 -1.41097e-06 0 0)
(2.66675e-06 -1.30232e-07 5.72493e-22 -1.37182e-06 5.52007e-22 0)
(2.61329e-06 -1.26216e-07 -8.21831e-37 -1.33526e-06 -1.36947e-36 0)
(2.56544e-06 -1.20249e-07 -5.50744e-22 -1.30212e-06 -5.49817e-22 0)
(2.52328e-06 -1.12741e-07 5.41693e-22 -1.27307e-06 5.50134e-22 0)
(2.48672e-06 -1.0397e-07 7.77206e-36 -1.24873e-06 5.64e-36 0)
(2.45592e-06 -9.40405e-08 -5.27233e-22 -1.22973e-06 -5.53287e-22 0)
(2.4308e-06 -8.28677e-08 -4.67204e-36 -1.21674e-06 -4.30036e-36 0)
(2.41216e-06 -7.02089e-08 5.17837e-22 -1.21071e-06 5.59893e-22 0)
(2.39954e-06 -5.53105e-08 5.15129e-22 -1.21257e-06 5.64814e-22 0)
(2.39612e-06 -3.82221e-08 -5.55668e-36 -1.22452e-06 -4.82687e-36 0)
(2.39895e-06 -1.51161e-08 2.96392e-20 -1.24774e-06 -4.90179e-36 -1.74845e-49)