/*--------------------------------*- C++ -*----------------------------------*\
  =========                 |
  \\      /  F ield         | OpenFOAM: The Open Source CFD Toolbox
   \\    /   O peration     | Website:  https://openfoam.org
    \\  /    A nd           | Version:  9
     \\/     M anipulation  |
\*---------------------------------------------------------------------------*/
FoamFile
{
    format      ascii;
    class       volSymmTensorField;
    location    "5";
    object      sigma;
}
// * * * * * * * * * * * * * * * * * * * * * * * * * * * * * * * * * * * * * //

dimensions      [1 -1 -2 0 0 0 0];

internalField   nonuniform List<symmTensor> 
1000
(
(615087 -420901 -2.25355e-10 357106 -3.06657e-10 85255.7)
(721422 -324391 -1.87758e-10 194887 -2.38424e-10 84024.7)
(774929 -248413 -1.50693e-10 118377 -1.85841e-10 84042.6)
(797610 -191099 -1.20582e-10 58488.9 -1.44224e-10 81060.1)
(805901 -145056 -9.14075e-11 23451.7 -1.09035e-10 77525.5)
(802565 -109039 -7.00711e-11 -2622.82 -8.24983e-11 74449.2)
(794483 -79784.2 -5.34912e-11 -19418 -6.19057e-11 72257.8)
(782015 -56520.8 -4.12133e-11 -31537 -4.61867e-11 70378.1)
(769156 -37192.4 -3.136e-11 -39498.9 -3.35823e-11 68968.1)
(752134 -21104.4 -2.41457e-11 -47127.9 -2.35126e-11 67351.2)
(780001 -468012 -2.49973e-10 360320 -3.37768e-10 100989)
(850107 -334825 -1.89023e-10 205503 -2.45241e-10 97156.8)
(878768 -238837 -1.36352e-10 135759 -1.77798e-10 94511.7)
(881487 -169897 -9.42314e-11 78936.4 -1.25432e-10 88170.3)
(874409 -117351 -6.3346e-11 46582.3 -8.75593e-11 84316)
(858475 -78052.4 -4.18947e-11 21595.6 -6.0049e-11 80804.3)
(840122 -47377.2 -2.59997e-11 5553.2 -3.94775e-11 78223)
(819158 -24054.2 -1.49979e-11 -7087.32 -2.43813e-11 75856)
(798376 -5159.32 -6.62484e-12 -14777.9 -1.27683e-11 74083.8)
(775419 9977.15 -9.58695e-13 -25190.9 -3.51158e-12 71796.6)
(957662 -497761 -2.65947e-10 347033 -3.56882e-10 116851)
(981148 -334432 -1.78512e-10 211331 -2.41014e-10 108132)
(979326 -222331 -1.10371e-10 154740 -1.60523e-10 102190)
(958698 -144233 -6.6052e-11 104717 -1.0487e-10 95709.2)
(934229 -87105.4 -3.49172e-11 77289 -6.6016e-11 91702)
(904491 -45939 -1.4388e-11 54715.4 -3.87226e-11 87848.9)
(875296 -15027 1.65952e-14 40287.3 -1.91023e-11 84945.9)
(845442 7557.64 9.1977e-12 27778.9 -5.26573e-12 82146.4)
(817433 25102.9 1.56312e-11 20398.5 4.80469e-12 80039)
(788287 39378.1 1.97855e-11 8329.83 1.31568e-11 77217.6)
(1.1422e+06 -505987 -2.58118e-10 319895 -3.5327e-10 127918)
(1.11158e+06 -321928 -1.50717e-10 213037 -2.21853e-10 114975)
(1.07511e+06 -199104 -8.09411e-11 175072 -1.39365e-10 109902)
(1.02837e+06 -115392 -3.69865e-11 135101 -8.33814e-11 103521)
(984832 -56177.9 -7.37334e-12 114382 -4.55418e-11 99476.1)
(940447 -14895.6 1.10356e-11 95117.7 -1.97987e-11 95333)
(900027 14943.3 2.30834e-11 82529.5 -2.05471e-12 92100.7)
(861491 35957.1 2.99638e-11 70299 9.97308e-12 88886.8)
(826502 51441.6 3.40465e-11 62700 1.81126e-11 86377.3)
(792218 64074.5 3.63802e-11 49716.4 2.50475e-11 83159.8)
(1.32538e+06 -488829 -2.20013e-10 282204 -3.22003e-10 132285)
(1.23762e+06 -295522 -1.15046e-10 211489 -1.93498e-10 121367)
(1.16394e+06 -168840 -4.82016e-11 196702 -1.14297e-10 117536)
(1.08924e+06 -84006.7 -7.62784e-12 169479 -6.14181e-11 111454)
(1.02561e+06 -25961.1 1.83157e-11 156942 -2.70034e-11 107469)
(966231 13143.3 3.31414e-11 141650 -4.4333e-12 103074)
(914732 40250.6 4.18308e-11 131020 1.03366e-11 99512.3)
(867888 58567.1 4.58995e-11 118985 1.99371e-11 95827.3)
(826621 71134.9 5.13332e-11 110670 2.83968e-11 91325.1)
(787852 81410.9 5.44836e-11 96785 3.54429e-11 86618.7)
(1.50297e+06 -445313 -1.66532e-10 239858 -2.73248e-10 136130)
(1.35747e+06 -254177 -7.1085e-11 209580 -1.5575e-10 127612)
(1.24518e+06 -131142 -1.1975e-11 221317 -8.53019e-11 125288)
(1.14119e+06 -50722.4 2.16113e-11 208308 -3.94714e-11 119554)
(1.05688e+06 2194.49 4.13528e-11 204452 -1.12074e-11 115611)
(982594 36400.7 5.09234e-11 192971 6.41747e-12 110909)
(920473 58957.2 5.81415e-11 183804 1.90354e-11 105844)
(866031 73378.9 6.37359e-11 171540 2.8777e-11 99786.7)
(819331 82411.3 6.65608e-11 161854 3.48815e-11 94623.8)
(776917 89803.6 6.76236e-11 146949 4.00073e-11 89461.9)
(1.66381e+06 -372710 -9.76187e-11 197513 -2.06684e-10 139547)
(1.4654e+06 -194838 -1.77713e-11 210425 -1.07436e-10 133874)
(1.31371e+06 -84932.5 2.76568e-11 251146 -5.23615e-11 133209)
(1.18041e+06 -15931.7 4.99163e-11 252245 -1.81995e-11 127713)
(1.07634e+06 26956.5 6.05464e-11 256008 8.74951e-13 123650)
(988564 53060.5 6.65873e-11 247023 1.40039e-11 117179)
(917360 69172.1 7.33131e-11 238044 2.476e-11 109769)
(856825 78706.3 7.54658e-11 224650 3.12343e-11 102994)
(806034 83795.1 7.53407e-11 212838 3.473e-11 97238.4)
(760952 88048.5 7.41331e-11 196625 3.77726e-11 91691.2)
(1.81854e+06 -270873 -1.13322e-11 167883 -1.22777e-10 144727)
(1.56254e+06 -114573 4.70833e-11 225583 -4.78541e-11 141762)
(1.36947e+06 -29586 7.12225e-11 295013 -1.60845e-11 142460)
(1.20786e+06 18357.8 7.62662e-11 305756 6.35685e-13 136534)
(1.08583e+06 45665.2 7.52843e-11 312592 8.0085e-12 131495)
(986963 60668.5 8.03647e-11 302563 1.7961e-11 121326)
(908924 69186.4 8.17078e-11 291153 2.36623e-11 113003)
(844197 73528 8.0026e-11 275061 2.67031e-11 105570)
(790785 74996.1 7.70401e-11 260167 2.78295e-11 99294.2)
(744108 76419.1 7.37344e-11 242320 2.90058e-11 93443)
(1.9469e+06 -127367 9.71762e-11 166505 -1.68187e-11 152867)
(1.62813e+06 -13252.7 1.20712e-10 275166 1.89976e-11 152878)
(1.3924e+06 27412.5 1.11184e-10 363251 1.5683e-11 153294)
(1.20898e+06 42912.1 9.27477e-11 371039 9.4377e-12 145458)
(1.07734e+06 50734.1 8.77121e-11 370883 1.01892e-11 135163)
(974012 53551.7 8.38316e-11 353835 1.21135e-11 123919)
(893974 55025.2 7.97067e-11 336494 1.32139e-11 114888)
(828218 55196.1 7.46594e-11 316078 1.35474e-11 106988)
(774246 54375.7 6.96227e-11 297551 1.32139e-11 100361)
(727182 54016.5 6.4912e-11 278049 1.32298e-11 94330.6)
(2.11392e+06 110683 2.72235e-10 288210 1.40744e-10 180304)
(1.65792e+06 123411 2.12508e-10 429820 9.40572e-11 176441)
(1.39016e+06 81167.3 1.46026e-10 475569 3.80829e-11 168600)
(1.20111e+06 52502.1 1.0572e-10 453588 1.00587e-11 153424)
(1.06891e+06 41440.7 9.0785e-11 427420 2.79082e-12 138574)
(966132 35411.2 7.89648e-11 395790 -9.0896e-13 126192)
(886628 33391.3 7.1014e-11 368381 -1.94078e-12 116414)
(821199 32281 6.43123e-11 342702 -2.35699e-12 108133)
(767288 31412.5 5.86858e-11 320721 -2.65195e-12 101248)
(720033 30850.5 5.3686e-11 300260 -2.75298e-12 95124.3)
(-2856.42 1019.02 -3.43982e-11 -1605.1 -1.87387e-11 2098.42)
(2143.61 -3485.51 -3.67915e-11 316.599 -2.17784e-11 2686.72)
(22458 -11046.7 -4.12306e-11 -1113.34 -2.67504e-11 4469.72)
(55050.3 -17109.5 -4.43411e-11 -2302.34 -3.06876e-11 7469.33)
(92949.6 -20855.6 -4.57476e-11 -2926.41 -3.30692e-11 11045)
(132745 -22989.1 -4.60308e-11 -3231.07 -3.43722e-11 14842.5)
(171739 -23828.6 -4.54786e-11 -3285.97 -3.48165e-11 18593.4)
(209007 -23897.9 -4.44573e-11 -3151.11 -3.47542e-11 22199.2)
(243175 -23267 -4.30914e-11 -3084.84 -3.42309e-11 25506.8)
(275032 -22778.2 -4.18055e-11 -2556.66 -3.38192e-11 28625.4)
(3666.54 -3725.66 -3.70002e-11 -297.81 -2.1922e-11 2784.67)
(29941.7 -20427.2 -4.47133e-11 12636.3 -3.32879e-11 6155.03)
(68097 -38905.1 -5.52238e-11 13208.7 -4.55557e-11 9713.72)
(108605 -53038.1 -6.36615e-11 9236.79 -5.48151e-11 13192.3)
(149325 -61743.2 -6.86432e-11 5397.53 -6.0443e-11 16750.4)
(188029 -66627.7 -7.12088e-11 1924.72 -6.35263e-11 20176.4)
(223920 -68399.2 -7.17567e-11 -747.413 -6.45505e-11 23420)
(257139 -68294.2 -7.10715e-11 -2659.56 -6.43419e-11 26480.6)
(286431 -66417 -6.9332e-11 -4300.49 -6.29641e-11 29199)
(314221 -64920.2 -6.76346e-11 -4456.91 -6.18758e-11 31882.1)
(11424.1 -18534.4 -4.40533e-11 12532.7 -3.20742e-11 4377.4)
(57465.2 -51108.8 -6.09485e-11 27258.4 -5.40437e-11 9648.43)
(110193 -73998.2 -7.42473e-11 25304.3 -6.91699e-11 14380.9)
(158633 -89335.5 -8.41619e-11 15551.9 -7.90941e-11 18173.5)
(203188 -97798.3 -8.97317e-11 6487.77 -8.44418e-11 21705.8)
(242427 -101788 -9.24334e-11 -1399.52 -8.68343e-11 24854.9)
(276875 -102292 -9.27611e-11 -7393.88 -8.69467e-11 27717.6)
(307575 -100678 -9.15852e-11 -11721 -8.56865e-11 30364.7)
(333243 -97133.7 -8.91581e-11 -14986 -8.31703e-11 32624.6)
(358097 -94155.3 -8.67362e-11 -15941.6 -8.10825e-11 34976.9)
(27495.5 -41777.8 -5.34863e-11 42088 -4.81888e-11 7970.78)
(94697.1 -87906.4 -8.0081e-11 46148.2 -7.89517e-11 14348.7)
(159443 -111968 -9.47317e-11 38357.6 -9.47079e-11 19785.4)
(214722 -125454 -1.04276e-10 22505.2 -1.03248e-10 23789.8)
(262510 -131049 -1.08741e-10 8532.44 -1.06566e-10 27285.8)
(302295 -132100 -1.10256e-10 -3568.11 -1.06904e-10 30193.2)
(335510 -129871 -1.09429e-10 -12878.1 -1.05123e-10 32708.8)
(364001 -125725 -1.07132e-10 -19766.5 -1.02122e-10 34970.4)
(386292 -119952 -1.03707e-10 -24973.4 -9.80838e-11 36776.7)
(408510 -115073 -1.00343e-10 -27068.7 -9.47086e-11 38804.8)
(54941.6 -74633.8 -6.64376e-11 85401.1 -7.09847e-11 13623.5)
(144662 -127964 -1.0061e-10 66928.8 -1.06043e-10 20392.2)
(219415 -149579 -1.15156e-10 48534.5 -1.19915e-10 26008.7)
(279407 -158555 -1.22982e-10 24910.5 -1.25263e-10 29916.2)
(328534 -159155 -1.25088e-10 5805.19 -1.25129e-10 33195.3)
(367520 -155649 -1.24382e-10 -10208.2 -1.22339e-10 35768.5)
(398608 -149516 -1.2161e-10 -22351.9 -1.17893e-10 37898.2)
(424288 -141999 -1.17598e-10 -31311.4 -1.12601e-10 39761.1)
(442914 -133551 -1.12826e-10 -37998.4 -1.06754e-10 41125)
(462269 -126368 -1.08216e-10 -40883.6 -1.01828e-10 42837.6)
(97383.2 -117834 -8.38162e-11 139111 -1.00873e-10 21422.1)
(208993 -168575 -1.20692e-10 90138 -1.33511e-10 28002)
(291686 -183406 -1.32933e-10 58185 -1.42542e-10 33412.6)
(354034 -185574 -1.37781e-10 26001.9 -1.4315e-10 36956.6)
(402401 -179843 -1.36701e-10 2021.46 -1.38681e-10 39848)
(438889 -170971 -1.33223e-10 -17357.4 -1.32237e-10 41972)
(466573 -160442 -1.28137e-10 -31763.4 -1.24813e-10 43640.5)
(488437 -149261 -1.22171e-10 -42289.8 -1.17047e-10 45049)
(502769 -138060 -1.15968e-10 -50129.5 -1.09346e-10 45935.5)
(518646 -128453 -1.10008e-10 -53529.9 -1.02797e-10 47295)
(157794 -170909 -1.06257e-10 196949 -1.37402e-10 31180.1)
(287460 -208115 -1.39568e-10 114171 -1.60236e-10 37048.4)
(375031 -211439 -1.46816e-10 67360.8 -1.61246e-10 41901.1)
(436880 -204505 -1.47376e-10 26273.2 -1.55582e-10 44800.6)
(482171 -191384 -1.42451e-10 -2242.34 -1.46082e-10 47116.2)
(514256 -176712 -1.35895e-10 -24472.1 -1.3571e-10 48650.5)
(537134 -161670 -1.28361e-10 -40532.3 -1.25245e-10 49769.9)
(554008 -146885 -1.20433e-10 -52127.2 -1.1506e-10 50647.9)
(563397 -133117 -1.12861e-10 -60671.9 -1.0564e-10 51026.8)
(574948 -121164 -1.05589e-10 -64370.7 -9.75287e-11 51967.3)
(238878 -231883 -1.33404e-10 252973 -1.7912e-10 42723.5)
(379443 -245038 -1.56427e-10 138116 -1.85167e-10 47415.8)
(467579 -232343 -1.55777e-10 77536.2 -1.75171e-10 51418.3)
(525603 -214272 -1.50734e-10 28290 -1.61896e-10 53427.4)
(565415 -193046 -1.41457e-10 -4011.77 -1.46909e-10 54998.8)
(591237 -172503 -1.31727e-10 -28445.7 -1.32581e-10 55813.8)
(607967 -153170 -1.21843e-10 -45663.1 -1.19238e-10 56290.4)
(618766 -135177 -1.12157e-10 -57871.3 -1.06911e-10 56564.4)
(622654 -119283 -1.03497e-10 -67026.9 -9.60728e-11 56385.1)
(629031 -105297 -9.50918e-11 -70768.2 -8.66141e-11 56841.5)
(342227 -297182 -1.63926e-10 301197 -2.23509e-10 55781.8)
(483662 -277820 -1.70607e-10 160345 -2.07255e-10 58870.4)
(566827 -245508 -1.59426e-10 89164.2 -1.83924e-10 61762.3)
(617224 -214771 -1.47641e-10 33493.4 -1.62063e-10 62660.1)
(649058 -185057 -1.33646e-10 -1399.52 -1.41364e-10 63340.9)
(666760 -158846 -1.20807e-10 -27338.7 -1.23235e-10 63308.7)
(676138 -135672 -1.06691e-10 -45055.1 -1.05964e-10 62288)
(679754 -115160 -9.36555e-11 -57713.1 -9.06352e-11 61095.2)
(677894 -97692.8 -8.32886e-11 -67034.4 -7.8169e-11 60025.7)
(678039 -82074.1 -7.36809e-11 -71833.6 -6.72763e-11 59620.7)
(468123 -362067 -1.95572e-10 336993 -2.673e-10 70072.6)
(598380 -304858 -1.81339e-10 179650 -2.25406e-10 71167.1)
(670088 -250823 -1.57683e-10 102778 -1.87451e-10 72715.7)
(708683 -206669 -1.38363e-10 43350.9 -1.56565e-10 72309.5)
(729894 -168513 -1.1787e-10 7422.44 -1.29159e-10 71350.6)
(737720 -137087 -9.76673e-11 -19026.9 -1.04665e-10 68714)
(738564 -110654 -8.14794e-11 -36755.8 -8.50721e-11 66803)
(734292 -88356.6 -6.85453e-11 -49143.1 -6.92637e-11 65280.1)
(726679 -70278.8 -5.86969e-11 -59216.5 -5.67966e-11 63836.3)
(719714 -54608.9 -5.01277e-11 -62776.3 -4.66174e-11 63242.5)
(303513 -21133.4 -3.99693e-11 -2556.02 -3.26328e-11 31388.5)
(328583 -18858.8 -3.77383e-11 -1989.29 -3.10464e-11 33871.3)
(351562 -16879.3 -3.57798e-11 -1583.86 -2.96609e-11 36137.3)
(372198 -15082.6 -3.40184e-11 -1283.24 -2.84024e-11 38167.7)
(390824 -13416.5 -3.23963e-11 -986.763 -2.72372e-11 40002.6)
(407494 -11924.6 -3.09527e-11 -769.819 -2.61932e-11 41641.1)
(422443 -10556.3 -2.96362e-11 -562.539 -2.52365e-11 43111.7)
(435755 -9322.27 -2.8458e-11 -402.83 -2.43738e-11 44419.5)
(447600 -8190.62 -2.73892e-11 -262.024 -2.35837e-11 45583.5)
(458062 -7154 -2.64238e-11 -152.331 -2.28607e-11 46610.6)
(467248 -6189.67 -2.55428e-11 -63.0259 -2.21893e-11 47512.6)
(475222 -5283.87 -2.47371e-11 2.17405 -2.15604e-11 48295.1)
(482040 -4418.7 -2.39929e-11 46.6672 -2.09619e-11 48964.2)
(487739 -3581.86 -2.33014e-11 69.0731 -2.0385e-11 49523.3)
(492333 -2762.53 -2.26551e-11 69.2854 -1.98228e-11 49974)
(495850 -1959.9 -2.20523e-11 50.8086 -1.92745e-11 50319.3)
(498279 -1185.34 -2.15013e-11 12.5806 -1.87478e-11 50557.6)
(499725 -483.205 -2.10221e-11 -16.1966 -1.82728e-11 50701.3)
(500189 54.8205 -2.06692e-11 -12.3738 -1.79115e-11 50751.2)
(500139 179.104 -2.05474e-11 260.425 -1.7834e-11 50768.3)
(336590 -60456.8 -6.43981e-11 -5744.45 -5.87944e-11 33982.6)
(355050 -54422.7 -6.00482e-11 -5605.24 -5.47026e-11 35828.9)
(372850 -49104.5 -5.6114e-11 -5133.23 -5.10986e-11 37630.4)
(388740 -44141.7 -5.24948e-11 -4890.37 -4.77333e-11 39227)
(403475 -39490.4 -4.90713e-11 -4438.33 -4.45846e-11 40725.2)
(416730 -35286.3 -4.59967e-11 -4139.3 -4.17367e-11 42064.9)
(428842 -31394.4 -4.31415e-11 -3779.43 -3.91023e-11 43296.1)
(439724 -27859 -4.05591e-11 -3506.84 -3.67084e-11 44398.8)
(449554 -24596.7 -3.81812e-11 -3244.02 -3.45004e-11 45396.8)
(458336 -21594.7 -3.60056e-11 -3040.56 -3.24684e-11 46286.7)
(466167 -18795.7 -3.39914e-11 -2870.87 -3.05747e-11 47080.6)
(473079 -16167.5 -3.21174e-11 -2746.95 -2.87971e-11 47780.7)
(479129 -13667.4 -3.03544e-11 -2656.58 -2.7107e-11 48393.9)
(484350 -11265 -2.86807e-11 -2592.34 -2.54844e-11 48924.2)
(488771 -8937.52 -2.7078e-11 -2536.17 -2.39143e-11 49376.1)
(492437 -6684.39 -2.55385e-11 -2450.58 -2.23967e-11 49756.7)
(495343 -4532.56 -2.4071e-11 -2286.73 -2.09506e-11 50068.9)
(497579 -2576.51 -2.27128e-11 -1917.51 -1.96419e-11 50330.5)
(499051 -956.95 -2.1529e-11 -1179.07 -1.85682e-11 50543.4)
(500000 -101.936 -2.07121e-11 362.898 -1.80243e-11 50760.2)
(375012 -87472.9 -8.23197e-11 -17648.8 -7.65235e-11 36539.3)
(386768 -79256.9 -7.67339e-11 -17235.4 -7.09965e-11 37779.3)
(399430 -71882.5 -7.14712e-11 -15692.1 -6.6053e-11 39185.1)
(410380 -65034.3 -6.66749e-11 -14679.1 -6.14563e-11 40380.6)
(421084 -58508.7 -6.20193e-11 -13235.7 -5.7085e-11 41582.4)
(430702 -52583.2 -5.78266e-11 -12121.5 -5.31119e-11 42648.7)
(439775 -47038.2 -5.38791e-11 -10944.9 -4.93965e-11 43664)
(448007 -41970.2 -5.02904e-11 -9976.82 -4.59988e-11 44577.8)
(455615 -37264.6 -4.69608e-11 -9088.13 -4.28437e-11 45422)
(462511 -32918.8 -4.39053e-11 -8361.9 -3.99287e-11 46182)
(468790 -28862 -4.10687e-11 -7755.03 -3.72063e-11 46870.7)
(474443 -25059.8 -3.84321e-11 -7284.4 -3.46535e-11 47486.3)
(479517 -21459.9 -3.59588e-11 -6925.8 -3.22358e-11 48035.7)
(484033 -18026.6 -3.36205e-11 -6659.69 -2.99291e-11 48522.7)
(488012 -14728.3 -3.13905e-11 -6444.24 -2.77135e-11 48952.8)
(491492 -11552.9 -2.9249e-11 -6204.04 -2.55822e-11 49335.5)
(494446 -8508.68 -2.71827e-11 -5829.08 -2.35431e-11 49676.6)
(496936 -5644.69 -2.51854e-11 -5098.61 -2.16331e-11 49998.4)
(498739 -3048.11 -2.32681e-11 -3699.36 -1.9918e-11 50302.4)
(500071 -838.948 -2.14106e-11 -1085.09 -1.84882e-11 50650.1)
(419991 -106521 -9.49934e-11 -29366.8 -8.8902e-11 39814.6)
(424605 -97115.4 -8.88841e-11 -29119.4 -8.25968e-11 40363.5)
(431944 -88436.2 -8.28132e-11 -26757 -7.68125e-11 41330)
(437565 -80518.4 -7.74221e-11 -25324.1 -7.15242e-11 42052.9)
(443925 -72810 -7.20112e-11 -23080.3 -6.63903e-11 42907.1)
(449520 -65809.6 -6.71478e-11 -21323.9 -6.17228e-11 43644.1)
(455210 -59177.1 -6.2492e-11 -19430.8 -5.73042e-11 44397.2)
(460437 -53086.5 -5.82395e-11 -17833.3 -5.32435e-11 45078.2)
(465495 -47391.6 -5.42597e-11 -16347.6 -4.94462e-11 45730.8)
(470191 -42112.3 -5.0591e-11 -15099.3 -4.59232e-11 46326.7)
(474621 -37171.7 -4.71734e-11 -14033.8 -4.26242e-11 46879.9)
(478727 -32538.3 -4.39925e-11 -13175.4 -3.95274e-11 47383.4)
(482542 -28157.2 -4.10079e-11 -12492.2 -3.65968e-11 47843.1)
(486060 -23988.3 -3.81896e-11 -11958 -3.38063e-11 48260.8)
(489281 -19991.4 -3.55035e-11 -11517.3 -3.11299e-11 48641.2)
(492219 -16136.5 -3.29147e-11 -11074.6 -2.85495e-11 48993.2)
(494811 -12404.1 -3.03903e-11 -10496.1 -2.60547e-11 49321)
(497100 -8770.34 -2.78748e-11 -9531.89 -2.36349e-11 49648.2)
(498773 -5266.36 -2.53435e-11 -7860.37 -2.1318e-11 49968.5)
(500102 -1639.97 -2.25351e-11 -4901.31 -1.89465e-11 50355.1)
(468303 -116359 -1.02117e-10 -43296 -9.50603e-11 43326.2)
(465485 -106922 -9.62315e-11 -43270.4 -8.87516e-11 43141.4)
(467601 -97711.8 -8.97894e-11 -39790.2 -8.26499e-11 43693.8)
(467771 -89601 -8.43516e-11 -37877 -7.72586e-11 43929.1)
(469774 -81450.9 -7.8628e-11 -34676.3 -7.18617e-11 44439.8)
(471240 -74081.6 -7.35207e-11 -32140.6 -6.69752e-11 44841)
(473448 -66992.4 -6.85337e-11 -29382 -6.2279e-11 45328.2)
(475537 -60446.8 -6.39542e-11 -26999.9 -5.79392e-11 45770.3)
(477898 -54276 -5.96279e-11 -24769 -5.38463e-11 46223.8)
(480231 -48523.8 -5.56192e-11 -22856.4 -5.00276e-11 46646.5)
(482631 -43118.2 -5.18698e-11 -21204.4 -4.64351e-11 47052.8)
(484997 -38035 -4.83722e-11 -19846.4 -4.30526e-11 47430.3)
(487339 -33222 -4.50883e-11 -18749.7 -3.98457e-11 47783.4)
(489626 -28635.6 -4.19875e-11 -17886.8 -3.67859e-11 48111.1)
(491833 -24226.5 -3.90293e-11 -17197.2 -3.38419e-11 48416.4)
(493954 -19941.1 -3.6163e-11 -16580.2 -3.09791e-11 48706.8)
(495899 -15730.3 -3.33385e-11 -15900.3 -2.81682e-11 48984.2)
(497694 -11489.3 -3.04495e-11 -14915.2 -2.53437e-11 49270.8)
(499002 -7215.47 -2.74573e-11 -13339.5 -2.25106e-11 49555.6)
(500112 -2344.51 -2.39098e-11 -10629.6 -1.93016e-11 49913.1)
(519109 -117503 -1.03466e-10 -55912.3 -9.5417e-11 47256.9)
(508540 -109256 -9.86776e-11 -56680.3 -8.99119e-11 46252.9)
(505543 -100254 -9.23528e-11 -52228.9 -8.3985e-11 46384.2)
(500152 -92750.3 -8.74188e-11 -50103.2 -7.90209e-11 46093.5)
(497793 -84823.4 -8.18381e-11 -46160.3 -7.38015e-11 46237.9)
(495066 -77684.1 -7.68923e-11 -42999.8 -6.90947e-11 46280)
(493716 -70688.8 -7.19479e-11 -39525.8 -6.44864e-11 46477.5)
(492577 -64176.1 -6.73669e-11 -36450.8 -6.01923e-11 46660.8)
(492124 -57978.9 -6.29934e-11 -33543.8 -5.61041e-11 46894.5)
(491966 -52155.9 -5.89064e-11 -30994.2 -5.22584e-11 47126)
(492189 -46651 -5.50601e-11 -28760.3 -4.86176e-11 47367.4)
(492654 -41446.1 -5.14551e-11 -26886.3 -4.51699e-11 47602)
(493351 -36497.5 -4.80612e-11 -25352.6 -4.18862e-11 47830.7)
(494217 -31760.3 -4.48483e-11 -24140.9 -3.87368e-11 48049.4)
(495214 -27180.8 -4.17752e-11 -23201.8 -3.56871e-11 48258.5)
(496310 -22683.8 -3.87827e-11 -22451 -3.26887e-11 48461.9)
(497408 -18197.8 -3.58085e-11 -21774.3 -2.9696e-11 48659.9)
(498510 -13549.4 -3.27116e-11 -20975 -2.65969e-11 48869.1)
(499329 -8715.55 -2.94501e-11 -19831.6 -2.33818e-11 49078.9)
(500087 -2893.23 -2.54368e-11 -17895.2 -1.9521e-11 49352.1)
(569989 -109945 -9.89794e-11 -66454.7 -8.99902e-11 51431.2)
(551697 -104207 -9.62323e-11 -68702.2 -8.61577e-11 49546.7)
(543958 -96188.4 -9.05664e-11 -63664.3 -8.09154e-11 49256.1)
(533170 -90053.2 -8.66536e-11 -61569 -7.68832e-11 48430.1)
(526591 -83061 -8.17092e-11 -57187.7 -7.23109e-11 48192.3)
(519814 -76723.9 -7.72973e-11 -53494.5 -6.8164e-11 47876.9)
(514950 -70361.8 -7.27514e-11 -49407.7 -6.40027e-11 47776.3)
(510641 -64324.9 -6.84513e-11 -45663.9 -6.00502e-11 47700.3)
(507367 -58501.6 -6.42865e-11 -42103.4 -5.6234e-11 47708.3)
(504701 -52956 -6.03421e-11 -38923.2 -5.25942e-11 47743.4)
(502696 -47667.1 -5.66019e-11 -36115 -4.91166e-11 47811.6)
(501188 -42626.2 -5.30732e-11 -33733.5 -4.57949e-11 47893.1)
(500142 -37805 -4.974e-11 -31775.9 -4.26104e-11 47984.8)
(499476 -33160.3 -4.65756e-11 -30238.9 -3.95343e-11 48079.5)
(499136 -28638.7 -4.35422e-11 -29091.8 -3.65314e-11 48174.9)
(499069 -24149 -4.05769e-11 -28278.7 -3.35426e-11 48270.9)
(499193 -19605.2 -3.76122e-11 -27718.8 -3.05115e-11 48366.5)
(499473 -14782 -3.44875e-11 -27283.9 -2.72907e-11 48470.2)
(499731 -9649.28 -3.11637e-11 -26825 -2.38631e-11 48576.3)
(500044 -3245.9 -2.69842e-11 -26045.1 -1.95913e-11 48723.7)
(618870 -94235.9 -8.87496e-11 -72984 -7.91944e-11 55791.9)
(593403 -92296.4 -8.89481e-11 -77362.6 -7.78828e-11 53018.4)
(581366 -86097.8 -8.46048e-11 -72649.3 -7.38651e-11 52272.1)
(565690 -81842.8 -8.20522e-11 -70779.3 -7.11015e-11 50940.2)
(555068 -76420.3 -7.82436e-11 -66582.9 -6.75886e-11 50284)
(544575 -71332.1 -7.46979e-11 -62730.6 -6.42921e-11 49610.9)
(536312 -66095.8 -7.09264e-11 -58445 -6.08987e-11 49187.5)
(528978 -60964.7 -6.72205e-11 -54317.4 -5.75696e-11 48840.5)
(522936 -55918.9 -6.35519e-11 -50310.4 -5.42913e-11 48608.5)
(517803 -51009.3 -5.9995e-11 -46618.4 -5.10949e-11 48438.8)
(513570 -46252.2 -5.65688e-11 -43290.7 -4.79907e-11 48326.8)
(510077 -41653.2 -5.32941e-11 -40410 -4.49811e-11 48250.8)
(507257 -37203.8 -5.01727e-11 -38010.8 -4.20594e-11 48201.6)
(505014 -32871.4 -4.71927e-11 -36121.7 -3.92043e-11 48168.2)
(503283 -28610.1 -4.43263e-11 -34745.9 -3.63848e-11 48144.5)
(501992 -24325.9 -4.15149e-11 -33872.8 -3.35382e-11 48125)
(501084 -19926.9 -3.86965e-11 -33468.9 -3.06044e-11 48107.9)
(500480 -15160.9 -3.57063e-11 -33491.5 -2.7415e-11 48090.8)
(500155 -9996.6 -3.25148e-11 -33867.2 -2.39511e-11 48077.5)
(499978 -3392.9 -2.84501e-11 -34494 -1.95177e-11 48072.2)
(664038 -71940.5 -6.95989e-11 -74204.9 -6.1493e-11 58758.2)
(632157 -74461.4 -7.61715e-11 -81063.9 -6.50797e-11 56251.2)
(616169 -71361.7 -7.53238e-11 -78813.9 -6.37703e-11 55293.4)
(596573 -69359.4 -7.43905e-11 -77474.7 -6.25156e-11 53522.6)
(582089 -66158.8 -7.22022e-11 -73950.5 -6.04881e-11 52422.4)
(568401 -62626.3 -6.97187e-11 -70038.5 -5.82438e-11 51431.6)
(557005 -58771.9 -6.68897e-11 -65643.4 -5.57871e-11 50701.7)
(546941 -54740.4 -6.39089e-11 -61232.8 -5.32079e-11 50103)
(538341 -50644.5 -6.08605e-11 -56907.2 -5.05798e-11 49639.8)
(530902 -46546.2 -5.78225e-11 -52858.9 -4.79407e-11 49267.5)
(524551 -42498.2 -5.48458e-11 -49173.6 -4.5325e-11 48971.9)
(519134 -38524 -5.19639e-11 -45952.2 -4.27461e-11 48730.6)
(514565 -34630.6 -4.91946e-11 -43254.8 -4.02082e-11 48530.3)
(510741 -30797.4 -4.6537e-11 -41138.7 -3.76966e-11 48357.2)
(507599 -26986.4 -4.3975e-11 -39641.8 -3.51852e-11 48202.4)
(505046 -23107.9 -4.14605e-11 -38801.6 -3.26135e-11 48055.2)
(503072 -19071.3 -3.89393e-11 -38637.3 -2.99203e-11 47913.6)
(501544 -14618.7 -3.62616e-11 -39202.6 -2.69325e-11 47763.2)
(500618 -9718.5 -3.34031e-11 -40500.5 -2.36282e-11 47619.1)
(499915 -3322.34 -2.97328e-11 -42656.8 -1.93045e-11 47444.6)
(701572 -43350.4 -4.60933e-11 -71503.4 -3.97095e-11 61360.2)
(669246 -48862 -5.45625e-11 -77014.4 -4.5467e-11 58966.3)
(648795 -50177.2 -5.85588e-11 -79489.7 -4.77899e-11 57613.7)
(627016 -50709.4 -6.21643e-11 -79971.5 -4.98881e-11 56438.1)
(608708 -50495.1 -6.23191e-11 -78603.7 -4.98272e-11 54777.7)
(592014 -49378.6 -6.1641e-11 -75894.9 -4.91848e-11 53383.3)
(577454 -47636.3 -6.03487e-11 -72201.8 -4.81373e-11 52275.6)
(564604 -45369.7 -5.85969e-11 -68013.5 -4.67437e-11 51375.1)
(553420 -42737.7 -5.65307e-11 -63599.5 -4.51049e-11 50656.1)
(543671 -39859.7 -5.42801e-11 -59252 -4.3296e-11 50072.6)
(535234 -36831.8 -5.19377e-11 -55151.7 -4.13775e-11 49598.4)
(527945 -33723.3 -4.95808e-11 -51468.1 -3.93935e-11 49203.7)
(521690 -30575.2 -4.72565e-11 -48321.2 -3.73687e-11 48868.3)
(516344 -27397.6 -4.49932e-11 -45819.9 -3.53084e-11 48571.8)
(511837 -24174.5 -4.2796e-11 -44050.4 -3.32003e-11 48300.9)
(508058 -20836.8 -4.06415e-11 -43112.8 -3.09962e-11 48037.7)
(505032 -17307.5 -3.84924e-11 -43082.8 -2.86429e-11 47779.8)
(502579 -13347.3 -3.62281e-11 -44121.2 -2.59781e-11 47499.7)
(501046 -8929.64 -3.38366e-11 -46313.1 -2.29806e-11 47224.6)
(499824 -3066.96 -3.07691e-11 -50015.7 -1.89838e-11 46877.4)
(722751 -19835.1 -2.81519e-11 -63569.5 -2.32757e-11 63767.7)
(693024 -22768.9 -3.46301e-11 -69320.1 -2.70798e-11 61506.3)
(669640 -28208.2 -4.16824e-11 -74920.8 -3.20188e-11 59543.6)
(647192 -30788.8 -4.67681e-11 -77356.4 -3.53527e-11 58080.1)
(627322 -32612.9 -5.03171e-11 -77455.7 -3.78234e-11 56822.5)
(609114 -33459.8 -5.11287e-11 -76022.1 -3.8474e-11 55167.2)
(592928 -33521.1 -5.11778e-11 -73293.4 -3.86193e-11 53812.7)
(578406 -32935 -5.06522e-11 -69832.5 -3.83408e-11 52680.5)
(565563 -31822.8 -4.96744e-11 -65923.3 -3.77143e-11 51749.2)
(554196 -30313.8 -4.83859e-11 -61899.1 -3.68199e-11 50972.6)
(544212 -28508.1 -4.68889e-11 -57982.8 -3.57207e-11 50324)
(535462 -26490.3 -4.52754e-11 -54384 -3.44695e-11 49772.1)
(527845 -24318.8 -4.36104e-11 -51263.2 -3.3102e-11 49294.6)
(521240 -22023.3 -4.1941e-11 -48773.9 -3.16359e-11 48867.6)
(515588 -19609 -4.02937e-11 -47046.2 -3.00716e-11 48475.6)
(510768 -17032.9 -3.86701e-11 -46234.2 -2.8378e-11 48095.7)
(506848 -14240.9 -3.70549e-11 -46471.9 -2.65157e-11 47724.4)
(503603 -11047.3 -3.53773e-11 -48007.6 -2.43559e-11 47323.1)
(501527 -7434.1 -3.36403e-11 -51005.2 -2.18822e-11 46927)
(499802 -2560.6 -3.14271e-11 -56036.8 -1.85223e-11 46421)
(711748 3265.33 -1.53918e-11 -54671.7 -9.96349e-12 64704.4)
(688413 -111.024 -2.12692e-11 -66675.9 -1.27957e-11 61935.8)
(666936 -6742.26 -2.877e-11 -72490.4 -1.83358e-11 60023)
(646544 -11091.5 -3.46494e-11 -75789.5 -2.2565e-11 58523.9)
(628157 -14528.3 -3.87108e-11 -76467.4 -2.5734e-11 57141.5)
(611070 -16982.2 -4.05922e-11 -75564.3 -2.74465e-11 55539.4)
(595626 -18578.9 -4.16707e-11 -73331.6 -2.86071e-11 54204.9)
(581536 -19459.4 -4.21304e-11 -70306.8 -2.93004e-11 53067.9)
(568864 -19733 -4.20834e-11 -66770.2 -2.95935e-11 52112.2)
(557461 -19521.9 -4.16656e-11 -63054.7 -2.95619e-11 51296.9)
(547287 -18922.9 -4.09769e-11 -59388.9 -2.9266e-11 50600)
(538234 -18022.5 -4.01107e-11 -55994.2 -2.87593e-11 49993.2)
(530239 -16882.8 -3.91356e-11 -53046 -2.80802e-11 49456.7)
(523208 -15545.9 -3.81102e-11 -50717.9 -2.72539e-11 48967.8)
(517114 -14028.2 -3.70696e-11 -49161.6 -2.62877e-11 48512)
(511854 -12315.6 -3.60381e-11 -48563.5 -2.51692e-11 48065.5)
(507534 -10370.1 -3.50158e-11 -49090.9 -2.38689e-11 47625.9)
(503925 -8075.56 -3.39841e-11 -51041.2 -2.23038e-11 47149.8)
(501628 -5438.22 -3.29676e-11 -54643.3 -2.04718e-11 46677.4)
(499712 -1867.82 -3.17251e-11 -60549.6 -1.7967e-11 46074.7)
(703439 26416.3 -2.16001e-12 -44197.8 3.42921e-12 65980.9)
(681946 21112 -8.98043e-12 -58138.6 -2.97543e-13 63023.8)
(663768 13301.8 -1.67286e-11 -65341.3 -6.17675e-12 61076.5)
(644995 7526.77 -2.32671e-11 -70129.1 -1.10393e-11 59443.3)
(628091 2724.1 -2.71008e-11 -72067.7 -1.42738e-11 57626)
(611907 -1100.21 -3.00087e-11 -72307.8 -1.68778e-11 56011.5)
(597127 -4027.81 -3.2065e-11 -71034.1 -1.89079e-11 54656)
(583418 -6209.98 -3.34672e-11 -68818.9 -2.0455e-11 53482.4)
(570949 -7733.05 -3.4311e-11 -65941.2 -2.15704e-11 52484.7)
(559588 -8712.48 -3.47311e-11 -62755.6 -2.23252e-11 51622.4)
(549342 -9236.47 -3.48208e-11 -59506.8 -2.27727e-11 50876.7)
(540128 -9389.89 -3.46774e-11 -56439.8 -2.29654e-11 50219.9)
(531910 -9238.34 -3.43751e-11 -53753 -2.29432e-11 49633)
(524616 -8833.29 -3.39815e-11 -51644 -2.27369e-11 49093.6)
(518234 -8204.39 -3.3544e-11 -50294.4 -2.23625e-11 48586.3)
(512688 -7365.41 -3.31077e-11 -49914.4 -2.18252e-11 48087.6)
(508095 -6297.91 -3.26922e-11 -50718.4 -2.11078e-11 47592.8)
(504243 -4971.69 -3.23332e-11 -53001.5 -2.01849e-11 47059.1)
(501805 -3376.73 -3.20472e-11 -57023.1 -1.90427e-11 46531.8)
(499692 -1160.61 -3.17726e-11 -63591.5 -1.74315e-11 45847.4)
(688830 44363.6 6.85481e-12 -35406.3 1.30398e-11 66654.6)
(670223 38945.1 3.91609e-13 -50904.4 9.66976e-12 63630.8)
(655129 30769.8 -6.50432e-12 -58972.9 4.31593e-12 61485.8)
(638466 24309.1 -1.19887e-11 -64744.8 5.83323e-14 59379.8)
(623444 18626.8 -1.64553e-11 -67560.1 -3.73329e-12 57664.5)
(608650 13823.4 -2.0075e-11 -68617.5 -6.97186e-12 56113.1)
(594998 9850.46 -2.28786e-11 -68076.2 -9.68354e-12 54801.2)
(582128 6601.19 -2.50376e-11 -66516 -1.1929e-11 53648.9)
(570286 4012.23 -2.663e-11 -64210.8 -1.37447e-11 52658.5)
(559364 1988.56 -2.77769e-11 -61519.6 -1.5187e-11 51791.5)
(549412 454.397 -2.85653e-11 -58690.6 -1.63015e-11 51033)
(540372 -668.56 -2.90873e-11 -55977.5 -1.71355e-11 50357.2)
(532236 -1444.46 -2.9417e-11 -53587.9 -1.7728e-11 49747.4)
(524958 -1932.77 -2.96278e-11 -51734.1 -1.81143e-11 49181.9)
(518543 -2171.18 -2.97753e-11 -50605.8 -1.83163e-11 48646.8)
(512939 -2212.61 -2.99316e-11 -50441.1 -1.83641e-11 48118.2)
(508264 -2028.06 -3.01083e-11 -51443.4 -1.8234e-11 47592.4)
(504367 -1722.03 -3.04312e-11 -53950.7 -1.79898e-11 47028)
(501885 -1158.74 -3.08568e-11 -58336.8 -1.75307e-11 46459.4)
(499680 -376.027 -3.15464e-11 -65248 -1.68725e-11 45727)
(670434 59229.6 1.71368e-11 -26712 2.27574e-11 65677.6)
(654766 53748.8 1.062e-11 -42828.6 1.93695e-11 62888.2)
(642748 45634.5 3.75631e-12 -51466.1 1.40773e-11 60997.3)
(628394 38889.8 -1.9856e-12 -58121 9.65453e-12 59044.1)
(615452 32705.3 -6.84857e-12 -61781.6 5.55004e-12 57460.7)
(602303 27261.3 -1.09646e-11 -63686 1.90502e-12 55997.7)
(590040 22536.8 -1.43298e-11 -63919.8 -1.28983e-12 54753.9)
(578281 18473.4 -1.70868e-11 -63067.9 -4.06266e-12 53647.6)
(567346 15030.9 -1.92947e-11 -61389.3 -6.43427e-12 52689.2)
(557143 12139.9 -2.10584e-11 -59245.1 -8.44396e-12 51842.1)
(547761 9740.21 -2.24535e-11 -56884.7 -1.01265e-11 51095)
(539164 7765.31 -2.35653e-11 -54569.4 -1.15214e-11 50424.1)
(531367 6154.31 -2.44674e-11 -52513.2 -1.26653e-11 49813.9)