/*--------------------------------*- C++ -*----------------------------------*\
  =========                 |
  \\      /  F ield         | OpenFOAM: The Open Source CFD Toolbox
   \\    /   O peration     | Website:  https://openfoam.org
    \\  /    A nd           | Version:  9
     \\/     M anipulation  |
\*---------------------------------------------------------------------------*/
FoamFile
{
    format      ascii;
    class       volScalarField;
    location    "5";
    object      sigmaEq;
}
// * * * * * * * * * * * * * * * * * * * * * * * * * * * * * * * * * * * * * //

dimensions      [1 -1 -2 0 0 0 0];

internalField   nonuniform List<scalar> 
1000
(
861431
814611
799943
799802
797474
792388
784424
773902
762972
749508
1.00465e+06
912917
869218
850504
834744
820121
804904
789155
772618
756989
1.14442e+06
1.00908e+06
935056
894129
863114
837491
814016
791988
770179
751000
1.28023e+06
1.10273e+06
995945
931169
883374
845615
813166
784540
757502
734787
1.40852e+06
1.18977e+06
1.05067e+06
961176
895560
844836
802964
767479
736200
710342
1.52714e+06
1.26976e+06
1.09883e+06
984201
900146
836069
785250
743943
708078
678656
1.62945e+06
1.33819e+06
1.13574e+06
996669
895110
819435
761195
714100
674451
641834
1.7273e+06
1.39497e+06
1.15942e+06
998047
881469
797704
733345
682148
640055
605128
1.80082e+06
1.41826e+06
1.14959e+06
973440
853754
767250
701796
649791
607447
571612
1.89173e+06
1.389e+06
1.10961e+06
938897
827877
745318
682638
631940
590390
554306
4799.1
6408.71
28657.8
60848.9
96709.6
133955
170254
204912
236737
266324
7391.84
41297.1
88077.2
133925
175062
211870
244265
273434
298566
322397
33004.1
97932.7
157098
209872
254210
291241
321638
347407
367771
387360
78199.9
167615
234234
289686
334089
369753
397706
420342
436717
452880
143541
246880
317298
372745
414796
447332
471741
490645
502985
515707
228770
332603
402286
455460
493578
521828
541916
556581
564794
573901
331890
423412
487095
535537
568389
591492
606713
616760
620799
626041
450276
518155
570047
610891
637124
654343
664357
669568
669672
670794
580460
615786
650249
680402
698508
709061
713756
714242
710664
707972
718833
715082
727005
743219
751702
755212
753849
748760
742216
733832
292884
315874
337147
356360
373732
389345
403362
415877
427026
436890
445562
453100
459556
464961
469330
472686
475019
476412
476850
476636
340787
354585
368470
381276
393305
404420
414690
424080
432646
440388
447350
453548
459008
463748
467774
471101
473692
475551
476482
476441
398492
403565
409950
415922
422019
427941
433769
439346
444697
449738
454474
458869
462919
466607
469910
472805
475189
476979
477762
477398
457888
455480
455273
455046
455561
456419
457787
459419
461359
463455
465696
467999
470330
472636
474857
476930
478695
480028
480423
479776
515305
506591
500699
495067
490635
486859
484063
481903
480486
479609
479267
479342
479784
480510
481434
482462
483408
484130
484130
483340
568674
554707
544044
533769
525116
517254
510757
505139
500598
496887
494018
491858
490351
489400
488909
488772
488811
488887
488599
487873
616598
598409
584037
569844
557747
546353
536610
527888
520483
514138
508878
504571
501159
498542
496629
495315
494457
493926
493480
493008
657869
636417
619580
602107
587348
573131
560724
549412
539512
530811
523343
517006
511755
507506
504187
501707
499986
498907
498432
498380
692856
668010
650431
630583
613664
597139
582363
568813
556728
545976
536565
528427
521522
515786
511177
507622
505120
503572
503165
503636
719877
693600
675943
655525
637309
619502
602900
587457
573366
560643
549322
539384
530814
523571
517645
512992
509688
507662
507338
508394
731825
707181
689000
669349
650613
632533
615384
599215
584253
570552
558198
547207
537605
529385
522581
517183
513346
511022
510821
512371
714275
699705
682982
665699
648719
632060
616027
600695
586316
572976
560802
549849
540180
531828
524870
519334
515434
513159
513255
515301
700585
688529
675233
660077
645182
629937
615064
600597
586863
573968
562077
551275
541661
533298
526296
520723
516836
514635
514953
517324
683317
674610
664284
651459
638496
624777
611213
597800
584927
572708
561342
550934
541607
533452
526599
521152
517361
515312
515874
518427
663825
657824
650197
639634
628743
616755
604701
592553
580753
569424
558794
548986
540142
532377
525814
520631
516930
515256
515104
518585
642712
639192
634015
625630
616738
606508
596021
585246
574648
564363
554635
545599
537416
530200
524115
519269
515964
514277
514942
517422
620450
619069
616071
609761
602795
594333
585457
576136
566845
557726
549035
540914
533530
527003
521495
517109
514132
512566
513175
515503
597497
597965
596900
592506
587344
580602
573327
565494
557573
549709
542159
535067
528602
522877
518050
514205
511599
510236
510763
512763
574096
576119
576737
574096
570618
565538
559844
553518
547014
540474
534150
528182
522734
517913
513859
510639
508464
507313
507729
509337
550372
553702
555785
554739
552830
549346
545206
540394
535339
530177
525147
520382
516036
512205
509005
506488
504804
503917
504218
505377
526325
530750
534113
534530
534099
532162
529557
526272
522698
518964
515288
511796
508624
505857
503588
501845
500718
500147
500355
501068
501865
507234
511741
513528
514518
514104
513036
511300
509248
506992
504729
502571
500637
498998
497722
496819
496317
496128
496299
496603
476814
483038
488614
491736
494138
495262
495768
495632
495159
494443
493655
492889
492247
491787
491556
491546
491730
491995
492210
492182
450953
458029
464673
469161
473028
475758
477913
479457
480643
481543
482296
482978
483674
484430
485275
486191
487109
487891
488252
488002
423987
432011
439819
445798
451258
455729
459665
463012
465969
468578
470949
473137
475208
477198
479126
480972
482640
483982
484592
484257
395695
404898
414075
421765
429029
435439
441335
446643
451503
455929
459997
463741
467209
470430
473417
476154
478546
480445
481388
481111
365781
376559
387463
397217
406601
415230
423326
430796
437719
444084
449933
455281
460157
464584
468569
472109
475130
477509
478815
478728
334444
347373
360492
372749
384626
395781
406322
416140
425264
433660
441343
448312
454579
460156
465049
469260
472750
475442
477023
477176
301805
317734
333764
349096
363921
377946
391189
403535
414978
425477
435029
443623
451257
457927
463622
468340
472044
474732
476260
476544
270059
289821
309363
328154
346196
363227
379230
394090
407798
420317
431643
441764
450670
458341
464737
469824
473527
475876
476809
476716
523826
540667
572993
609362
646869
680036
706512
724693
734631
733357
495786
511678
542086
577286
615126
650435
680838
703629
718579
721799
470508
485624
514056
547216
583563
618340
649591
675153
694652
706154
447327
461974
488939
520502
555695
590072
621684
648490
669478
685323
425568
439816
465398
495239
528886
562335
593804
621748
644068
663136
405102
419104
443607
471987
504177
536516
567251
595395
618060
639237
385528
399324
422876
449896
480649
511828
541712
569800
592487
614683
366748
380377
403127
428938
458328
488274
517104
544739
567202
589815
348569
362021
384043
408742
436842
465567
493315
520284
542366
564911
330935
344172
365501
389144
415996
443475
470093
496220
517832
540034
313796
326736
347340
369924
395538
421750
447219
472386
493453
515129
297183
309693
329466
350915
375233
400115
424394
448511
468984
490038
281207
293075
311786
331913
354797
378249
401280
424280
444121
464511
266090
276964
294226
312721
333937
355802
377500
399326
418517
438249
252287
261548
276640
292970
312154
332233
352507
373141
391714
410858
240446
246919
258779
272271
288975
307039
325812
345273
363315
382002
231878
233314
239912
249487
263190
279100
296436
314907
332672
351201
227454
219566
218818
223688
234095
247857
263982
281798
299699
318493
230671
203872
191591
190839
198437
210886
226726
244823
263751
283640
231923
174996
155696
150216
156637
169046
185921
205579
226713
248758
)
;

boundaryField
{
    left
    {
        type            calculated;
        value           nonuniform List<scalar> 
30
(
519429
491465
466249
443091
421369
400956
381473
362832
344858
327511
310756
294646
279312
265005
252218
241806
235466
236099
252470
290407
2.00868e+06
1.35194e+06
1.07355e+06
916865
815516
737556
677295
627534
586383
550099
)
;
    }
    right
    {
        type            calculated;
        value           nonuniform List<scalar> 
30
(
476540
476442
477346
479696
483244
487787
492945
498361
503661
508485
512485
515483
517525
518640
518640
517603
515697
512927
509466
505466
501116
496613
492161
487959
484204
481061
478699
477171
476567
476607
)
;
    }
    down
    {
        type            calculated;
        value           nonuniform List<scalar> 
30
(
3850.07
2421.37
21039.6
52625.7
89090.9
127240
164517
200065
232678
262892
290095
313802
335579
355161
372826
388656
402846
415494
426747
436691
445426
453013
459505
464937
469322
472686
475018
476408
476848
476687
)
;
    }
    up
    {
        type            calculated;
        value           nonuniform List<scalar> 
30
(
224889
173004
155094
149678
155967
168212
184969
204566
225670
247735
269072
288933
308593
327484
345628
362749
378836
393770
407545
420120
431496
441660
450602
458302
464719
469821
473529
475877
476804
476747
)
;
    }
    hole
    {
        type            calculated;
        value           nonuniform List<scalar> 
20
(
856451
1.00387e+06
1.14762e+06
1.28474e+06
1.41638e+06
1.53834e+06
1.64345e+06
1.7442e+06
1.82077e+06
1.90852e+06
2735.68
2767.63
16077.2
56675.6
120240
206111
311384
432988
567014
709572
)
;
    }
    frontAndBack
    {
        type            empty;
    }
}


// ************************************************************************* //
