/*--------------------------------*- C++ -*----------------------------------*\
  =========                 |
  \\      /  F ield         | OpenFOAM: The Open Source CFD Toolbox
   \\    /   O peration     | Website:  https://openfoam.org
    \\  /    A nd           | Version:  9
     \\/     M anipulation  |
\*---------------------------------------------------------------------------*/
FoamFile
{
    format      ascii;
    class       volVectorField;
    location    "15";
    object      D;
}
// * * * * * * * * * * * * * * * * * * * * * * * * * * * * * * * * * * * * * //

dimensions      [0 1 0 0 0 0 0];

internalField   nonuniform List<vector> 
1000
(
(1.01585e-05 3.41991e-06 0)
(9.47914e-06 3.77385e-06 0)
(8.98421e-06 4.07395e-06 0)
(8.6263e-06 4.30741e-06 0)
(8.37093e-06 4.5093e-06 0)
(8.19046e-06 4.68287e-06 0)
(8.06818e-06 4.8393e-06 0)
(7.99032e-06 4.98177e-06 0)
(7.94621e-06 5.1147e-06 0)
(7.93036e-06 5.24072e-06 0)
(9.15401e-06 3.08652e-06 0)
(8.44969e-06 3.34063e-06 0)
(7.93928e-06 3.5683e-06 0)
(7.57154e-06 3.74266e-06 0)
(7.30974e-06 3.89611e-06 0)
(7.12396e-06 4.02802e-06 0)
(6.99663e-06 4.14761e-06 0)
(6.91308e-06 4.25703e-06 0)
(6.86237e-06 4.35851e-06 0)
(6.83707e-06 4.45756e-06 0)
(8.12426e-06 2.75011e-06 0)
(7.41808e-06 2.90023e-06 0)
(6.90593e-06 3.05164e-06 0)
(6.53905e-06 3.16684e-06 0)
(6.27872e-06 3.27249e-06 0)
(6.09392e-06 3.36461e-06 0)
(5.96644e-06 3.44971e-06 0)
(5.88128e-06 3.52869e-06 0)
(5.82743e-06 3.60173e-06 0)
(5.79705e-06 3.67503e-06 0)
(7.08306e-06 2.41296e-06 0)
(6.3915e-06 2.46175e-06 0)
(5.89199e-06 2.53605e-06 0)
(5.53704e-06 2.59394e-06 0)
(5.28655e-06 2.65406e-06 0)
(5.10944e-06 2.70937e-06 0)
(4.98722e-06 2.76323e-06 0)
(4.9048e-06 2.81504e-06 0)
(4.85178e-06 2.86321e-06 0)
(4.81959e-06 2.91352e-06 0)
(6.0324e-06 2.09095e-06 0)
(5.37279e-06 2.03827e-06 0)
(4.9018e-06 2.03657e-06 0)
(4.57021e-06 2.04002e-06 0)
(4.33873e-06 2.05859e-06 0)
(4.17634e-06 2.08147e-06 0)
(4.0648e-06 2.10863e-06 0)
(3.98937e-06 2.1376e-06 0)
(3.9405e-06 2.16528e-06 0)
(3.90937e-06 2.1962e-06 0)
(4.96964e-06 1.77956e-06 0)
(4.36493e-06 1.63296e-06 0)
(3.93661e-06 1.56151e-06 0)
(3.64158e-06 1.51795e-06 0)
(3.43885e-06 1.50174e-06 0)
(3.29846e-06 1.49885e-06 0)
(3.20294e-06 1.5054e-06 0)
(3.13844e-06 1.51712e-06 0)
(3.09663e-06 1.5296e-06 0)
(3.06892e-06 1.5458e-06 0)
(3.88927e-06 1.47152e-06 0)
(3.36088e-06 1.24502e-06 0)
(2.995e-06 1.11816e-06 0)
(2.75109e-06 1.04029e-06 0)
(2.58731e-06 1.00007e-06 0)
(2.47594e-06 9.80457e-07 0)
(2.40115e-06 9.73985e-07 0)
(2.35083e-06 9.74902e-07 0)
(2.31822e-06 9.77971e-07 0)
(2.29571e-06 9.84551e-07 0)
(2.81004e-06 1.15844e-06 0)
(2.36966e-06 8.72818e-07 0)
(2.08598e-06 7.14399e-07 0)
(1.90537e-06 6.20953e-07 0)
(1.78837e-06 5.71452e-07 0)
(1.7106e-06 5.46258e-07 0)
(1.65915e-06 5.35353e-07 0)
(1.62463e-06 5.32299e-07 0)
(1.6022e-06 5.31746e-07 0)
(1.58593e-06 5.33871e-07 0)
(1.70226e-06 8.30535e-07 0)
(1.38409e-06 5.2195e-07 0)
(1.20761e-06 3.61886e-07 0)
(1.10076e-06 2.78325e-07 0)
(1.03615e-06 2.36658e-07 0)
(9.94073e-07 2.17091e-07 0)
(9.66732e-07 2.09198e-07 0)
(9.48146e-07 2.07318e-07 0)
(9.35822e-07 2.07145e-07 0)
(9.26139e-07 2.08411e-07 0)
(5.94719e-07 4.32052e-07 0)
(4.4068e-07 2.02254e-07 0)
(3.85596e-07 9.60078e-08 0)
(3.56844e-07 5.5163e-08 0)
(3.39463e-07 3.70103e-08 0)
(3.27816e-07 3.10333e-08 0)
(3.19949e-07 2.96641e-08 0)
(3.14323e-07 3.05879e-08 0)
(3.10396e-07 3.17116e-08 0)
(3.06969e-07 3.31057e-08 0)
(1.79e-05 5.53162e-06 0)
(1.78703e-05 6.21877e-06 0)
(1.78499e-05 6.85899e-06 0)
(1.78505e-05 7.44511e-06 0)
(1.78774e-05 7.98319e-06 0)
(1.79324e-05 8.47991e-06 0)
(1.80159e-05 8.94302e-06 0)
(1.81261e-05 9.37922e-06 0)
(1.82621e-05 9.79382e-06 0)
(1.84204e-05 1.01927e-05 0)
(1.73388e-05 5.48617e-06 0)
(1.72592e-05 6.1713e-06 0)
(1.7205e-05 6.80371e-06 0)
(1.71809e-05 7.37801e-06 0)
(1.71897e-05 7.90166e-06 0)
(1.72297e-05 8.38177e-06 0)
(1.72996e-05 8.82681e-06 0)
(1.7396e-05 9.24389e-06 0)
(1.75178e-05 9.6385e-06 0)
(1.76601e-05 1.00174e-05 0)
(1.67435e-05 5.39405e-06 0)
(1.66048e-05 6.07738e-06 0)
(1.65046e-05 6.69689e-06 0)
(1.64443e-05 7.25266e-06 0)
(1.64244e-05 7.75598e-06 0)
(1.64402e-05 8.21491e-06 0)
(1.64889e-05 8.63854e-06 0)
(1.65654e-05 9.03405e-06 0)
(1.66681e-05 9.40719e-06 0)
(1.67905e-05 9.76486e-06 0)
(1.61003e-05 5.26016e-06 0)
(1.58951e-05 5.94014e-06 0)
(1.57416e-05 6.54387e-06 0)
(1.56382e-05 7.07699e-06 0)
(1.55831e-05 7.55583e-06 0)
(1.5569e-05 7.98965e-06 0)
(1.55916e-05 8.38838e-06 0)
(1.56442e-05 8.75929e-06 0)
(1.57246e-05 9.10835e-06 0)
(1.58245e-05 9.44239e-06 0)
(1.54017e-05 5.08576e-06 0)
(1.51238e-05 5.75696e-06 0)
(1.49131e-05 6.33992e-06 0)
(1.47644e-05 6.84517e-06 0)
(1.46721e-05 7.29472e-06 0)
(1.46264e-05 7.6991e-06 0)
(1.46213e-05 8.06924e-06 0)
(1.46487e-05 8.41236e-06 0)
(1.47059e-05 8.73474e-06 0)
(1.47827e-05 9.04274e-06 0)
(1.46468e-05 4.87494e-06 0)
(1.4292e-05 5.52807e-06 0)
(1.40229e-05 6.08426e-06 0)
(1.3829e-05 6.55682e-06 0)
(1.36998e-05 6.97312e-06 0)
(1.3623e-05 7.34454e-06 0)
(1.35907e-05 7.68304e-06 0)
(1.35933e-05 7.99558e-06 0)
(1.36277e-05 8.2889e-06 0)
(1.36822e-05 8.56854e-06 0)
(1.38376e-05 4.63083e-06 0)
(1.34048e-05 5.25344e-06 0)
(1.30786e-05 5.77523e-06 0)
(1.28414e-05 6.20986e-06 0)
(1.26778e-05 6.58909e-06 0)
(1.25719e-05 6.92448e-06 0)
(1.25144e-05 7.22877e-06 0)
(1.24942e-05 7.50857e-06 0)
(1.25075e-05 7.77091e-06 0)
(1.25416e-05 8.0204e-06 0)
(1.29782e-05 4.35822e-06 0)
(1.24702e-05 4.93579e-06 0)
(1.20906e-05 5.41467e-06 0)
(1.18138e-05 5.80614e-06 0)
(1.16191e-05 6.14492e-06 0)
(1.14876e-05 6.44184e-06 0)
(1.14078e-05 6.71011e-06 0)
(1.13677e-05 6.95558e-06 0)
(1.13622e-05 7.18564e-06 0)
(1.13785e-05 7.40342e-06 0)
(1.20744e-05 4.06152e-06 0)
(1.14978e-05 4.5789e-06 0)
(1.10707e-05 5.00617e-06 0)
(1.07597e-05 5.34938e-06 0)
(1.05388e-05 5.64471e-06 0)
(1.03857e-05 5.90135e-06 0)
(1.02873e-05 6.13238e-06 0)
(1.02306e-05 6.34287e-06 0)
(1.02091e-05 6.53971e-06 0)
(1.02109e-05 6.72535e-06 0)
(1.11322e-05 3.74749e-06 0)
(1.04976e-05 4.18929e-06 0)
(1.00314e-05 4.55647e-06 0)
(9.6928e-06 4.84666e-06 0)
(9.45121e-06 5.09611e-06 0)
(9.28154e-06 5.31134e-06 0)
(9.16873e-06 5.50486e-06 0)
(9.09912e-06 5.68032e-06 0)
(9.06477e-06 5.84448e-06 0)
(9.05632e-06 5.99591e-06 0)
(1.86096e-05 1.05764e-05 0)
(1.88269e-05 1.09572e-05 0)
(1.90608e-05 1.1332e-05 0)
(1.93096e-05 1.17024e-05 0)
(1.95719e-05 1.20704e-05 0)
(1.98461e-05 1.2437e-05 0)
(2.01313e-05 1.28036e-05 0)
(2.0426e-05 1.31708e-05 0)
(2.07294e-05 1.35396e-05 0)
(2.10405e-05 1.39105e-05 0)
(2.13583e-05 1.42842e-05 0)
(2.16819e-05 1.46611e-05 0)
(2.20107e-05 1.50416e-05 0)
(2.23437e-05 1.5426e-05 0)
(2.26804e-05 1.58145e-05 0)
(2.30198e-05 1.62072e-05 0)
(2.33613e-05 1.6604e-05 0)
(2.37042e-05 1.70047e-05 0)
(2.40477e-05 1.74086e-05 0)
(2.43912e-05 1.78144e-05 0)
(1.78573e-05 1.03865e-05 0)
(1.81013e-05 1.0761e-05 0)
(1.83584e-05 1.11298e-05 0)
(1.86266e-05 1.14949e-05 0)
(1.89053e-05 1.18584e-05 0)
(1.91934e-05 1.22212e-05 0)
(1.94901e-05 1.25846e-05 0)
(1.97946e-05 1.29494e-05 0)
(2.01062e-05 1.33163e-05 0)
(2.0424e-05 1.3686e-05 0)
(2.07476e-05 1.4059e-05 0)
(2.10761e-05 1.44357e-05 0)
(2.14091e-05 1.48165e-05 0)
(2.1746e-05 1.52017e-05 0)
(2.20861e-05 1.55916e-05 0)
(2.2429e-05 1.59861e-05 0)
(2.27742e-05 1.63853e-05 0)
(2.31211e-05 1.67888e-05 0)
(2.34691e-05 1.71961e-05 0)
(2.38176e-05 1.76059e-05 0)
(1.69986e-05 1.01231e-05 0)
(1.72772e-05 1.04982e-05 0)
(1.75651e-05 1.08678e-05 0)
(1.78599e-05 1.12336e-05 0)
(1.81621e-05 1.15981e-05 0)
(1.84706e-05 1.1962e-05 0)
(1.87852e-05 1.23267e-05 0)
(1.91054e-05 1.2693e-05 0)
(1.94307e-05 1.30618e-05 0)
(1.97608e-05 1.34336e-05 0)
(2.00952e-05 1.38089e-05 0)
(2.04335e-05 1.41883e-05 0)
(2.07754e-05 1.45721e-05 0)
(2.11205e-05 1.49606e-05 0)
(2.14685e-05 1.53541e-05 0)
(2.18189e-05 1.57527e-05 0)
(2.21716e-05 1.61565e-05 0)
(2.25259e-05 1.65652e-05 0)
(2.28816e-05 1.69787e-05 0)
(2.32376e-05 1.73962e-05 0)
(1.60462e-05 9.7918e-06 0)
(1.63657e-05 1.0173e-05 0)
(1.66911e-05 1.05489e-05 0)
(1.70187e-05 1.09203e-05 0)
(1.73505e-05 1.12903e-05 0)
(1.76852e-05 1.16594e-05 0)
(1.80233e-05 1.20294e-05 0)
(1.83643e-05 1.24008e-05 0)
(1.87085e-05 1.27747e-05 0)
(1.90554e-05 1.31516e-05 0)
(1.94052e-05 1.35322e-05 0)
(1.97575e-05 1.39169e-05 0)
(2.01124e-05 1.43063e-05 0)
(2.04695e-05 1.47006e-05 0)
(2.08289e-05 1.51001e-05 0)
(2.11902e-05 1.55051e-05 0)
(2.15534e-05 1.59158e-05 0)
(2.1918e-05 1.63323e-05 0)
(2.22837e-05 1.67546e-05 0)
(2.26496e-05 1.71825e-05 0)
(1.50207e-05 9.38633e-06 0)
(1.5386e-05 9.77972e-06 0)
(1.57539e-05 1.01681e-05 0)
(1.6119e-05 1.05506e-05 0)
(1.6485e-05 1.09314e-05 0)
(1.68502e-05 1.13105e-05 0)
(1.7216e-05 1.169e-05 0)
(1.75819e-05 1.20705e-05 0)
(1.79487e-05 1.24532e-05 0)
(1.83162e-05 1.28387e-05 0)
(1.86848e-05 1.32277e-05 0)
(1.90544e-05 1.36207e-05 0)
(1.94252e-05 1.40183e-05 0)
(1.97973e-05 1.44209e-05 0)
(2.01706e-05 1.48289e-05 0)
(2.05453e-05 1.52427e-05 0)
(2.09212e-05 1.56626e-05 0)
(2.12981e-05 1.6089e-05 0)
(2.16759e-05 1.65225e-05 0)
(2.20536e-05 1.69631e-05 0)
(1.39387e-05 8.90905e-06 0)
(1.43534e-05 9.32037e-06 0)
(1.47675e-05 9.72713e-06 0)
(1.51736e-05 1.0126e-05 0)
(1.55772e-05 1.05223e-05 0)
(1.59763e-05 1.09159e-05 0)
(1.6373e-05 1.13091e-05 0)
(1.67671e-05 1.17026e-05 0)
(1.71595e-05 1.20976e-05 0)
(1.75504e-05 1.2495e-05 0)
(1.79404e-05 1.28955e-05 0)
(1.83299e-05 1.32997e-05 0)
(1.8719e-05 1.37083e-05 0)
(1.91082e-05 1.41218e-05 0)
(1.94976e-05 1.45406e-05 0)
(1.98874e-05 1.49654e-05 0)
(2.02777e-05 1.53966e-05 0)
(2.06686e-05 1.58349e-05 0)
(2.10599e-05 1.62813e-05 0)
(2.14511e-05 1.67361e-05 0)
(1.28183e-05 8.36082e-06 0)
(1.3284e-05 8.79585e-06 0)
(1.37466e-05 9.2266e-06 0)
(1.41959e-05 9.64706e-06 0)
(1.46395e-05 1.00638e-05 0)
(1.50748e-05 1.04763e-05 0)
(1.55047e-05 1.08873e-05 0)
(1.59291e-05 1.12976e-05 0)
(1.63493e-05 1.17085e-05 0)
(1.67657e-05 1.21211e-05 0)
(1.71792e-05 1.25361e-05 0)
(1.75903e-05 1.29545e-05 0)
(1.79995e-05 1.33767e-05 0)
(1.84073e-05 1.38035e-05 0)
(1.88141e-05 1.42356e-05 0)
(1.92204e-05 1.46734e-05 0)
(1.96265e-05 1.51179e-05 0)
(2.00324e-05 1.55698e-05 0)
(2.04384e-05 1.60305e-05 0)
(2.08443e-05 1.65007e-05 0)
(1.1676e-05 7.74654e-06 0)
(1.21931e-05 8.21071e-06 0)
(1.27047e-05 8.66999e-06 0)
(1.31983e-05 9.117e-06 0)
(1.36828e-05 9.55833e-06 0)
(1.41558e-05 9.99415e-06 0)
(1.46204e-05 1.04268e-05 0)
(1.50766e-05 1.08576e-05 0)
(1.55261e-05 1.12879e-05 0)
(1.59695e-05 1.17189e-05 0)
(1.64078e-05 1.21515e-05 0)
(1.68418e-05 1.25866e-05 0)
(1.72723e-05 1.30251e-05 0)
(1.76998e-05 1.34676e-05 0)
(1.81251e-05 1.39149e-05 0)
(1.85488e-05 1.43679e-05 0)
(1.89713e-05 1.48273e-05 0)
(1.9393e-05 1.52942e-05 0)
(1.98144e-05 1.57702e-05 0)
(2.02358e-05 1.62563e-05 0)
(1.05291e-05 7.07195e-06 0)
(1.10962e-05 7.57095e-06 0)
(1.16555e-05 8.06229e-06 0)
(1.21937e-05 8.54038e-06 0)
(1.27191e-05 9.00988e-06 0)
(1.32302e-05 9.47238e-06 0)
(1.37298e-05 9.92999e-06 0)
(1.42185e-05 1.03844e-05 0)
(1.46978e-05 1.08371e-05 0)
(1.51689e-05 1.12894e-05 0)
(1.56327e-05 1.17424e-05 0)
(1.60904e-05 1.2197e-05 0)
(1.65427e-05 1.26543e-05 0)
(1.69907e-05 1.31149e-05 0)
(1.7435e-05 1.35798e-05 0)
(1.78765e-05 1.40497e-05 0)
(1.83159e-05 1.45257e-05 0)
(1.87539e-05 1.50088e-05 0)
(1.9191e-05 1.5501e-05 0)
(1.96283e-05 1.60031e-05 0)
(9.39101e-06 6.34739e-06 0)
(1.00054e-05 6.88481e-06 0)
(1.06076e-05 7.40925e-06 0)
(1.11892e-05 7.92174e-06 0)
(1.17548e-05 8.42319e-06 0)
(1.23042e-05 8.91602e-06 0)
(1.28393e-05 9.40206e-06 0)
(1.33611e-05 9.8832e-06 0)
(1.3871e-05 1.03611e-05 0)
(1.43703e-05 1.08373e-05 0)
(1.48603e-05 1.1313e-05 0)
(1.5342e-05 1.17894e-05 0)
(1.58166e-05 1.22675e-05 0)
(1.62851e-05 1.27482e-05 0)
(1.67486e-05 1.32323e-05 0)
(1.72081e-05 1.37207e-05 0)
(1.76643e-05 1.42146e-05 0)
(1.81185e-05 1.4715e-05 0)
(1.85713e-05 1.52237e-05 0)
(1.90245e-05 1.57418e-05 0)
(8.51277e-06 5.80393e-06 0)
(9.15352e-06 6.36929e-06 0)
(9.77822e-06 6.91248e-06 0)
(1.03835e-05 7.4446e-06 0)
(1.09718e-05 7.96561e-06 0)
(1.15433e-05 8.4778e-06 0)
(1.20995e-05 8.98285e-06 0)
(1.26413e-05 9.48243e-06 0)
(1.317e-05 9.9781e-06 0)
(1.36868e-05 1.04712e-05 0)
(1.41929e-05 1.0963e-05 0)
(1.46895e-05 1.14546e-05 0)
(1.51778e-05 1.19469e-05 0)
(1.56589e-05 1.24409e-05 0)
(1.61339e-05 1.29373e-05 0)
(1.66039e-05 1.3437e-05 0)
(1.70699e-05 1.3941e-05 0)
(1.75333e-05 1.44503e-05 0)
(1.79948e-05 1.49664e-05 0)
(1.84568e-05 1.54904e-05 0)
(7.92651e-06 5.47861e-06 0)
(8.56738e-06 6.04397e-06 0)
(9.19231e-06 6.59164e-06 0)
(9.7996e-06 7.1298e-06 0)
(1.0391e-05 7.65826e-06 0)
(1.09663e-05 8.17861e-06 0)
(1.15267e-05 8.69219e-06 0)
(1.2073e-05 9.20032e-06 0)
(1.26063e-05 9.70431e-06 0)
(1.31276e-05 1.02053e-05 0)
(1.36379e-05 1.07044e-05 0)
(1.41384e-05 1.12025e-05 0)
(1.46302e-05 1.17005e-05 0)
(1.51143e-05 1.21992e-05 0)
(1.55919e-05 1.26993e-05 0)
(1.60642e-05 1.32016e-05 0)
(1.6532e-05 1.37068e-05 0)
(1.6997e-05 1.42159e-05 0)
(1.746e-05 1.473e-05 0)
(1.79236e-05 1.52498e-05 0)
(7.40895e-06 5.16623e-06 0)
(8.0383e-06 5.72996e-06 0)
(8.65688e-06 6.27924e-06 0)
(9.25953e-06 6.82108e-06 0)
(9.84852e-06 7.35492e-06 0)
(1.04227e-05 7.88172e-06 0)
(1.09833e-05 8.40249e-06 0)
(1.15304e-05 8.91817e-06 0)
(1.20651e-05 9.42975e-06 0)
(1.2588e-05 9.93813e-06 0)
(1.31001e-05 1.04442e-05 0)
(1.36025e-05 1.09487e-05 0)
(1.4096e-05 1.14523e-05 0)
(1.45819e-05 1.19557e-05 0)
(1.5061e-05 1.24595e-05 0)
(1.55345e-05 1.29643e-05 0)
(1.60035e-05 1.34707e-05 0)
(1.64695e-05 1.39793e-05 0)
(1.69335e-05 1.44909e-05 0)
(1.73982e-05 1.50059e-05 0)
(6.94503e-06 4.86534e-06 0)
(7.55933e-06 5.42455e-06 0)
(8.16682e-06 5.97337e-06 0)
(8.7605e-06 6.51738e-06 0)
(9.34286e-06 7.0553e-06 0)
(9.91208e-06 7.58756e-06 0)
(1.04691e-05 8.11468e-06 0)
(1.10138e-05 8.63719e-06 0)
(1.15468e-05 9.15579e-06 0)
(1.20688e-05 9.6711e-06 0)
(1.25805e-05 1.01837e-05 0)
(1.30828e-05 1.06943e-05 0)
(1.35765e-05 1.12034e-05 0)
(1.40626e-05 1.17114e-05 0)
(1.4542e-05 1.22187e-05 0)
(1.5016e-05 1.27259e-05 0)
(1.54854e-05 1.32333e-05 0)
(1.59518e-05 1.37412e-05 0)
(1.64163e-05 1.42501e-05 0)
(1.68816e-05 1.476e-05 0)
(6.52947e-06 4.57912e-06 0)
(7.12529e-06 5.13213e-06 0)
(7.71787e-06 5.67868e-06 0)
(8.29893e-06 6.22304e-06 0)
(8.87113e-06 6.76336e-06 0)
(9.43204e-06 7.29958e-06 0)
(9.98241e-06 7.83175e-06 0)
(1.05218e-05 8.36002e-06 0)
(1.10507e-05 8.88473e-06 0)
(1.15695e-05 9.40622e-06 0)
(1.20788e-05 9.92487e-06 0)
(1.25792e-05 1.04411e-05 0)
(1.30715e-05 1.09551e-05 0)
(1.35566e-05 1.14674e-05 0)
(1.40354e-05 1.19781e-05 0)
(1.45088e-05 1.24875e-05 0)
(1.49779e-05 1.29957e-05 0)
(1.54439e-05 1.35029e-05 0)
(1.59087e-05 1.40087e-05 0)
(1.63744e-05 1.45133e-05 0)
(6.15425e-06 4.30744e-06 0)
(6.72975e-06 4.85264e-06 0)
(7.30491e-06 5.39539e-06 0)
(7.87083e-06 5.9386e-06 0)
(8.43018e-06 6.47995e-06 0)
(8.98017e-06 7.01888e-06 0)
(9.52138e-06 7.55497e-06 0)
(1.00531e-05 8.08799e-06 0)
(1.05757e-05 8.61793e-06 0)
(1.10893e-05 9.14483e-06 0)
(1.15943e-05 9.66884e-06 0)
(1.20913e-05 1.01901e-05 0)
(1.25809e-05 1.07087e-05 0)
(1.30638e-05 1.12249e-05 0)
(1.35409e-05 1.17387e-05 0)
(1.40131e-05 1.225e-05 0)
(1.44812e-05 1.27589e-05 0)
(1.49468e-05 1.32649e-05 0)
(1.54106e-05 1.37678e-05 0)
(1.58754e-05 1.42674e-05 0)
(5.81291e-06 4.05049e-06 0)
(6.36691e-06 4.58697e-06 0)
(6.92289e-06 5.12477e-06 0)
(7.47181e-06 5.66558e-06 0)
(8.01627e-06 6.20667e-06 0)
(8.55329e-06 6.74709e-06 0)
(9.0833e-06 7.28593e-06 0)
(9.60542e-06 7.82264e-06 0)
(1.01198e-05 8.35684e-06 0)
(1.06265e-05 8.88831e-06 0)
(1.11257e-05 9.41691e-06 0)
(1.16179e-05 9.94257e-06 0)
(1.21036e-05 1.04652e-05 0)
(1.25833e-05 1.09848e-05 0)
(1.30579e-05 1.15012e-05 0)
(1.3528e-05 1.20142e-05 0)
(1.39946e-05 1.25235e-05 0)
(1.44589e-05 1.30287e-05 0)
(1.49216e-05 1.35288e-05 0)
(1.53853e-05 1.40233e-05 0)
(5.49906e-06 3.80764e-06 0)
(6.03099e-06 4.3348e-06 0)
(6.56673e-06 4.86681e-06 0)
(7.0974e-06 5.40424e-06 0)
(7.62552e-06 5.94406e-06 0)
(8.14803e-06 6.48491e-06 0)
(8.66526e-06 7.0255e-06 0)
(9.17622e-06 7.56491e-06 0)
(9.68095e-06 8.10246e-06 0)
(1.01793e-05 8.63764e-06 0)
(1.06715e-05 9.17007e-06 0)
(1.11577e-05 9.69944e-06 0)
(1.16384e-05 1.02255e-05 0)
(1.2114e-05 1.0748e-05 0)
(1.25853e-05 1.12666e-05 0)
(1.30528e-05 1.1781e-05 0)
(1.35173e-05 1.22907e-05 0)
(1.39799e-05 1.27948e-05 0)
(1.44411e-05 1.32923e-05 0)
(1.49033e-05 1.37824e-05 0)
(5.20703e-06 3.57817e-06 0)
(5.71667e-06 4.09585e-06 0)
(6.23153e-06 4.62156e-06 0)
(6.74314e-06 5.15492e-06 0)
(7.25387e-06 5.69264e-06 0)
(7.76074e-06 6.23304e-06 0)
(8.264e-06 6.77444e-06 0)
(8.7626e-06 7.31564e-06 0)
(9.25648e-06 7.85565e-06 0)
(9.74538e-06 8.39369e-06 0)
(1.02294e-05 8.92915e-06 0)
(1.07087e-05 9.46152e-06 0)
(1.11836e-05 9.99035e-06 0)
(1.16544e-05 1.05152e-05 0)
(1.21217e-05 1.10356e-05 0)
(1.2586e-05 1.15511e-05 0)
(1.3048e-05 1.20609e-05 0)
(1.35084e-05 1.25642e-05 0)
(1.39679e-05 1.30594e-05 0)
(1.44282e-05 1.35456e-05 0)
(4.93154e-06 3.36123e-06 0)
(5.41889e-06 3.86952e-06 0)
(5.91254e-06 4.38869e-06 0)
(6.40458e-06 4.91751e-06 0)
(6.89724e-06 5.45254e-06 0)
(7.38768e-06 5.99175e-06 0)
(7.8761e-06 6.53318e-06 0)
(8.36143e-06 7.07535e-06 0)
(8.84357e-06 7.61698e-06 0)
(9.32218e-06 8.15707e-06 0)
(9.79727e-06 8.6948e-06 0)
(1.02689e-05 9.22944e-06 0)
(1.07373e-05 9.76039e-06 0)
(1.12027e-05 1.02871e-05 0)
(1.16655e-05 1.08088e-05 0)
(1.21262e-05 1.13251e-05 0)
(1.25852e-05 1.18349e-05 0)
(1.30432e-05 1.23373e-05 0)
(1.35005e-05 1.28306e-05 0)
(1.39586e-05 1.33138e-05 0)
(4.66777e-06 3.15594e-06 0)
(5.13291e-06 3.6552e-06 0)
(5.60519e-06 4.16782e-06 0)
(6.07735e-06 4.69187e-06 0)
(6.55149e-06 5.22376e-06 0)
(7.02497e-06 5.76121e-06 0)
(7.49795e-06 6.30199e-06 0)
(7.9694e-06 6.84438e-06 0)
(8.43916e-06 7.38687e-06 0)
(8.90685e-06 7.92825e-06 0)
(9.37242e-06 8.46748e-06 0)
(9.83584e-06 9.00369e-06 0)
(1.02972e-05 9.5361e-06 0)
(1.07568e-05 1.0064e-05 0)
(1.12147e-05 1.05867e-05 0)
(1.16714e-05 1.11033e-05 0)
(1.21272e-05 1.1613e-05 0)
(1.25825e-05 1.21147e-05 0)
(1.30375e-05 1.26066e-05 0)
(1.34932e-05 1.30876e-05 0)
(4.41119e-06 2.9616e-06 0)
(4.85418e-06 3.45234e-06 0)
(5.30501e-06 3.95856e-06 0)
(5.75713e-06 4.47774e-06 0)
(6.21247e-06 5.00619e-06 0)
(6.66867e-06 5.54143e-06 0)
(7.12585e-06 6.08098e-06 0)
(7.58303e-06 6.62293e-06 0)
(8.04001e-06 7.16557e-06 0)
(8.4964e-06 7.7075e-06 0)
(8.95208e-06 8.24752e-06 0)
(9.40694e-06 8.7846e-06 0)
(9.86102e-06 9.31784e-06 0)
(1.03144e-05 9.8464e-06 0)
(1.07672e-05 1.03695e-05 0)
(1.12197e-05 1.08862e-05 0)
(1.16721e-05 1.13957e-05 0)
(1.21245e-05 1.18968e-05 0)
(1.25771e-05 1.23877e-05 0)
(1.30302e-05 1.28675e-05 0)
(4.1574e-06 2.77754e-06 0)
(4.57825e-06 3.26038e-06 0)
(5.00757e-06 3.76045e-06 0)
(5.43954e-06 4.27479e-06 0)
(5.87597e-06 4.79961e-06 0)
(6.31473e-06 5.33225e-06 0)
(6.75594e-06 5.87008e-06 0)
(7.19868e-06 6.411e-06 0)
(7.64274e-06 6.95314e-06 0)
(8.08767e-06 7.49494e-06 0)
(8.53331e-06 8.03507e-06 0)
(8.97948e-06 8.57236e-06 0)
(9.42612e-06 9.10579e-06 0)
(9.87323e-06 9.63446e-06 0)
(1.03208e-05 1.01575e-05 0)
(1.0769e-05 1.0674e-05 0)
(1.12178e-05 1.11831e-05 0)
(1.16674e-05 1.16837e-05 0)
(1.21175e-05 1.21742e-05 0)
(1.25681e-05 1.26535e-05 0)
(3.90211e-06 2.60349e-06 0)
(4.30071e-06 3.07907e-06 0)
(4.70843e-06 3.57328e-06 0)
(5.12021e-06 4.08282e-06 0)
(5.53769e-06 4.60385e-06 0)
(5.95903e-06 5.13356e-06 0)
(6.38429e-06 5.66919e-06 0)
(6.81265e-06 6.20852e-06 0)
(7.24384e-06 6.74953e-06 0)
(7.6774e-06 7.29056e-06 0)
(8.11309e-06 7.83013e-06 0)
(8.55065e-06 8.36698e-06 0)
(8.98994e-06 8.90002e-06 0)
(9.43084e-06 9.42826e-06 0)
(9.87328e-06 9.9508e-06 0)
(1.03172e-05 1.04668e-05 0)
(1.07626e-05 1.09753e-05 0)
(1.12092e-05 1.14754e-05 0)
(1.16569e-05 1.19658e-05 0)
(1.2105e-05 1.24456e-05 0)
(3.64082e-06 2.43896e-06 0)
(4.01693e-06 2.90791e-06 0)
(4.40294e-06 3.39655e-06 0)
(4.79452e-06 3.90136e-06 0)
(5.19314e-06 4.41846e-06 0)
(5.59721e-06 4.94494e-06 0)
(6.00676e-06 5.47795e-06 0)
(6.42101e-06 6.01515e-06 0)
(6.83965e-06 6.55445e-06 0)
(7.26217e-06 7.09408e-06 0)
(7.68826e-06 7.63248e-06 0)
(8.11757e-06 8.1683e-06 0)
(8.54983e-06 8.70038e-06 0)
(8.98483e-06 9.22768e-06 0)
(9.42236e-06 9.74929e-06 0)
(9.86224e-06 1.02644e-05 0)
(1.03043e-05 1.07721e-05 0)
(1.07482e-05 1.12718e-05 0)
(1.11935e-05 1.17623e-05 0)
(1.16395e-05 1.22432e-05 0)
(3.36891e-06 2.2845e-06 0)
(3.7222e-06 2.74727e-06 0)
(4.08632e-06 3.23049e-06 0)
(4.45776e-06 3.73051e-06 0)
(4.83773e-06 4.24342e-06 0)
(5.22488e-06 4.76627e-06 0)
(5.61916e-06 5.29614e-06 0)
(6.01982e-06 5.83065e-06 0)
(6.42649e-06 6.36762e-06 0)
(6.83859e-06 6.90521e-06 0)
(7.2557e-06 7.4418e-06 0)
(7.67737e-06 7.976e-06 0)
(8.10321e-06 8.50657e-06 0)
(8.53285e-06 9.03246e-06 0)
(8.96596e-06 9.55273e-06 0)
(9.40222e-06 1.00666e-05 0)
(9.84129e-06 1.05734e-05 0)
(1.02827e-05 1.10725e-05 0)
(1.0726e-05 1.15633e-05 0)
(1.11701e-05 1.20458e-05 0)
(3.081e-06 2.13929e-06 0)
(3.41104e-06 2.59626e-06 0)
(3.75317e-06 3.07413e-06 0)
(4.10462e-06 3.56927e-06 0)
(4.46633e-06 4.07773e-06 0)
(4.83714e-06 4.59657e-06 0)
(5.21687e-06 5.12283e-06 0)
(5.60478e-06 5.6541e-06 0)
(6.00037e-06 6.18817e-06 0)
(6.403e-06 6.72315e-06 0)
(6.8121e-06 7.25738e-06 0)
(7.2271e-06 7.78942e-06 0)
(7.64745e-06 8.31802e-06 0)
(8.07263e-06 8.84207e-06 0)
(8.50214e-06 9.36066e-06 0)
(8.93548e-06 9.87303e-06 0)
(9.37218e-06 1.03786e-05 0)
(9.81165e-06 1.0877e-05 0)
(1.02533e-05 1.13681e-05 0)
(1.06958e-05 1.18523e-05 0)
(2.77176e-06 2.00563e-06 0)
(3.07811e-06 2.45665e-06 0)
(3.3982e-06 2.92881e-06 0)
(3.73e-06 3.41854e-06 0)
(4.07406e-06 3.92195e-06 0)
(4.42935e-06 4.43607e-06 0)
(4.79555e-06 4.95799e-06 0)
(5.17184e-06 5.48527e-06 0)
(5.55759e-06 6.01568e-06 0)
(5.95203e-06 6.54734e-06 0)
(6.35445e-06 7.07855e-06 0)
(6.76409e-06 7.60785e-06 0)
(7.18025e-06 8.13395e-06 0)
(7.6022e-06 8.65576e-06 0)
(8.02926e-06 9.17234e-06 0)
(8.46073e-06 9.68297e-06 0)
(8.89595e-06 1.01871e-05 0)
(9.33417e-06 1.06847e-05 0)
(9.77466e-06 1.11759e-05 0)
(1.02163e-05 1.16616e-05 0)
(2.43339e-06 1.8803e-06 0)
(2.71573e-06 2.32528e-06 0)
(3.01402e-06 2.79145e-06 0)
(3.32682e-06 3.2754e-06 0)
(3.65424e-06 3.77329e-06 0)
(3.9953e-06 4.2822e-06 0)
(4.34944e-06 4.79924e-06 0)
(4.71573e-06 5.32198e-06 0)
(5.09336e-06 5.84822e-06 0)
(5.48139e-06 6.37605e-06 0)
(5.87894e-06 6.90377e-06 0)
(6.28505e-06 7.42991e-06 0)
(6.69883e-06 7.95318e-06 0)
(7.11935e-06 8.47247e-06 0)
(7.54568e-06 8.98684e-06 0)
(7.9769e-06 9.49558e-06 0)
(8.41209e-06 9.99823e-06 0)
(8.85025e-06 1.04948e-05 0)
(9.29051e-06 1.09857e-05 0)
(9.73168e-06 1.14725e-05 0)
(2.06148e-06 1.77069e-06 0)
(2.31965e-06 2.20819e-06 0)
(2.59667e-06 2.66688e-06 0)
(2.89137e-06 3.14358e-06 0)
(3.20346e-06 3.63454e-06 0)
(3.53184e-06 4.13689e-06 0)
(3.87569e-06 4.64777e-06 0)
(4.23388e-06 5.1648e-06 0)
(4.60538e-06 5.68576e-06 0)
(4.98906e-06 6.20878e-06 0)
(5.3838e-06 6.73214e-06 0)
(5.78849e-06 7.25439e-06 0)
(6.202e-06 7.77423e-06 0)
(6.62317e-06 8.29055e-06 0)
(7.05086e-06 8.80243e-06 0)
(7.48384e-06 9.30917e-06 0)
(7.9209e-06 9.81034e-06 0)
(8.36069e-06 1.03059e-05 0)
(8.80206e-06 1.07964e-05 0)
(9.24353e-06 1.12835e-05 0)
(2.96724e-07 3.15935e-08 0)
(8.96266e-07 1.96413e-07 0)
(1.53358e-06 5.04546e-07 0)
(2.21691e-06 9.35306e-07 0)
(2.95942e-06 1.47693e-06 0)
(3.7652e-06 2.11003e-06 0)
(4.63744e-06 2.81396e-06 0)
(5.57459e-06 3.56709e-06 0)
(6.57378e-06 4.3476e-06 0)
(7.62976e-06 5.13759e-06 0)
(2.79487e-07 2.82166e-08 0)
(8.44825e-07 1.76286e-07 0)
(1.44425e-06 4.56002e-07 0)
(2.08414e-06 8.50616e-07 0)
(2.77649e-06 1.35128e-06 0)
(3.52512e-06 1.94171e-06 0)
(4.33329e-06 2.60397e-06 0)
(5.1996e-06 3.31901e-06 0)
(6.1208e-06 4.06584e-06 0)
(7.09138e-06 4.83027e-06 0)
(2.63986e-07 2.42025e-08 0)
(7.98657e-07 1.55869e-07 0)
(1.36455e-06 4.09018e-07 0)
(1.96591e-06 7.69906e-07 0)
(2.61345e-06 1.2319e-06 0)
(3.3104e-06 1.78121e-06 0)
(4.06029e-06 2.40223e-06 0)
(4.86253e-06 3.07853e-06 0)
(5.7159e-06 3.79108e-06 0)
(6.61445e-06 4.52978e-06 0)
(2.49805e-07 1.95532e-08 0)
(7.56602e-07 1.35387e-07 0)
(1.29281e-06 3.64558e-07 0)
(1.86075e-06 6.95471e-07 0)
(2.46999e-06 1.12312e-06 0)
(3.12291e-06 1.63563e-06 0)
(3.82279e-06 2.21906e-06 0)
(4.56867e-06 2.85875e-06 0)
(5.36069e-06 3.53666e-06 0)
(6.19162e-06 4.24403e-06 0)
(2.36545e-07 1.42073e-08 0)
(7.17341e-07 1.14095e-07 0)
(1.22629e-06 3.20533e-07 0)
(1.76396e-06 6.23526e-07 0)
(2.3389e-06 1.01926e-06 0)
(2.9527e-06 1.49741e-06 0)
(3.60863e-06 2.0455e-06 0)
(4.30532e-06 2.65054e-06 0)
(5.04431e-06 3.296e-06 0)
(5.81611e-06 3.97304e-06 0)
(2.24101e-07 8.26487e-09 0)
(6.8055e-07 9.21565e-08 0)
(1.16441e-06 2.77204e-07 0)
(1.67463e-06 5.54579e-07 0)
(2.21893e-06 9.21336e-07 0)
(2.798e-06 1.36824e-06 0)
(3.41498e-06 1.88392e-06 0)
(4.06791e-06 2.45643e-06 0)
(4.75962e-06 3.07072e-06 0)
(5.47909e-06 3.71734e-06 0)
(2.12219e-07 1.6927e-09 0)
(6.45449e-07 6.9243e-08 0)
(1.10566e-06 2.33634e-07 0)
(1.59039e-06 4.86908e-07 0)
(2.10664e-06 8.2675e-07 0)
(2.65432e-06 1.24479e-06 0)
(3.23652e-06 1.73061e-06 0)
(3.85066e-06 2.27304e-06 0)
(4.50049e-06 2.85851e-06 0)
(5.17389e-06 3.47652e-06 0)
(2.00809e-07 -5.42002e-09 0)
(6.11747e-07 4.54596e-08 0)
(1.04949e-06 1.89864e-07 0)
(1.5103e-06 4.20472e-07 0)
(2.00054e-06 7.3541e-07 0)
(2.51946e-06 1.1269e-06 0)
(3.07001e-06 1.58527e-06 0)
(3.6492e-06 2.09985e-06 0)
(4.26133e-06 2.65843e-06 0)
(4.89396e-06 3.24965e-06 0)
(1.89721e-07 -1.30765e-08 0)
(5.79004e-07 2.06761e-08 0)
(9.95083e-07 1.45477e-07 0)
(1.43306e-06 3.54483e-07 0)
(1.89879e-06 6.46122e-07 0)
(2.39093e-06 1.01304e-06 0)
(2.91232e-06 1.44618e-06 0)
(3.45969e-06 1.93521e-06 0)
(4.03759e-06 2.46905e-06 0)
(4.63374e-06 3.03568e-06 0)
(1.78878e-07 -2.12267e-08 0)
(5.46977e-07 -5.0579e-09 0)
(9.41971e-07 1.00437e-07 0)
(1.3579e-06 2.88783e-07 0)
(1.80016e-06 5.58579e-07 0)
(2.26692e-06 9.02733e-07 0)
(2.76093e-06 1.31264e-06 0)
(3.27881e-06 1.77821e-06 0)
(3.82512e-06 2.28929e-06 0)
(4.38819e-06 2.83348e-06 0)
(1.68189e-07 -2.98693e-08 0)
(5.15406e-07 -3.18032e-08 0)
(8.89677e-07 5.45419e-08 0)
(1.28403e-06 2.22996e-07 0)
(1.70346e-06 4.72208e-07 0)
(2.14576e-06 7.95225e-07 0)
(2.61359e-06 1.18376e-06 0)
(3.10363e-06 1.62787e-06 0)
(3.62032e-06 2.11813e-06 0)
(4.15284e-06 2.642e-06 0)
(1.57596e-07 -3.89857e-08 0)
(4.84133e-07 -5.95598e-08 0)
(8.37881e-07 7.73734e-09 0)
(1.21088e-06 1.57014e-07 0)
(1.60773e-06 3.86819e-07 0)
(2.026e-06 6.90213e-07 0)
(2.46828e-06 1.05908e-06 0)
(2.93149e-06 1.4836e-06 0)
(3.41983e-06 1.95487e-06 0)
(3.92353e-06 2.46043e-06 0)
(1.47065e-07 -4.85991e-08 0)
(4.53086e-07 -8.84171e-08 0)
(7.86374e-07 -4.013e-08 0)
(1.13797e-06 9.06372e-08 0)
(1.51213e-06 3.02149e-07 0)
(1.90633e-06 5.87358e-07 0)
(2.32315e-06 9.38175e-07 0)
(2.75988e-06 1.34486e-06 0)
(3.22047e-06 1.79889e-06 0)
(3.69634e-06 2.28801e-06 0)
(1.36595e-07 -5.87893e-08 0)
(4.22314e-07 -1.18476e-07 0)
(7.35085e-07 -8.9106e-08 0)
(1.06498e-06 2.39266e-08 0)
(1.41592e-06 2.18329e-07 0)
(1.78551e-06 4.86794e-07 0)
(2.17637e-06 8.2113e-07 0)
(2.58634e-06 1.21163e-06 0)
(3.01914e-06 1.65009e-06 0)
(3.46742e-06 2.12451e-06 0)
(1.26278e-07 -6.97058e-08 0)
(3.9219e-07 -1.49998e-07 0)
(6.84286e-07 -1.3943e-07 0)
(9.91843e-07 -4.3278e-08 0)
(1.31851e-06 1.35263e-07 0)
(1.66231e-06 3.88439e-07 0)
(2.02608e-06 7.07824e-07 0)
(2.40832e-06 1.08373e-06 0)
(2.81258e-06 1.50815e-06 0)
(3.23277e-06 1.96947e-06 0)
(1.16314e-07 -8.18561e-08 0)
(3.63327e-07 -1.83359e-07 0)
(6.34435e-07 -1.91008e-07 0)
(9.18562e-07 -1.10373e-07 0)
(1.21931e-06 5.38917e-08 0)
(1.53548e-06 2.93389e-07 0)
(1.87033e-06 5.99372e-07 0)
(2.22316e-06 9.6218e-07 0)
(2.5974e-06 1.37399e-06 0)
(2.98827e-06 1.82364e-06 0)
(1.07442e-07 -9.58393e-08 0)
(3.37635e-07 -2.1931e-07 0)
(5.87113e-07 -2.44343e-07 0)
(8.45822e-07 -1.77702e-07 0)
(1.11793e-06 -2.60016e-08 0)
(1.40362e-06 2.01432e-07 0)
(1.70677e-06 4.95508e-07 0)
(2.02761e-06 8.46601e-07 0)
(2.36952e-06 1.24709e-06 0)
(2.72903e-06 1.6863e-06 0)
(1.01234e-07 -1.14251e-07 0)
(3.17329e-07 -2.59016e-07 0)
(5.43847e-07 -2.9837e-07 0)
(7.7395e-07 -2.42584e-07 0)
(1.01366e-06 -1.00976e-07 0)
(1.26501e-06 1.16284e-07 0)
(1.53283e-06 3.99898e-07 0)
(1.81831e-06 7.40462e-07 0)
(2.12481e-06 1.13061e-06 0)
(2.45016e-06 1.56028e-06 0)
(1.05345e-07 -1.38994e-07 0)
(3.10659e-07 -3.03905e-07 0)
(5.09894e-07 -3.54111e-07 0)
(7.04787e-07 -3.06567e-07 0)
(9.05694e-07 -1.72906e-07 0)
(1.11693e-06 3.57079e-08 0)
(1.34432e-06 3.10026e-07 0)
(1.58986e-06 6.40978e-07 0)
(1.8569e-06 1.02157e-06 0)
(2.14431e-06 1.44235e-06 0)
(1.35976e-07 -1.83797e-07 0)
(3.2282e-07 -3.55032e-07 0)
(4.87751e-07 -4.04491e-07 0)
(6.38093e-07 -3.58659e-07 0)
(7.92779e-07 -2.30107e-07 0)
(9.57274e-07 -2.87206e-08 0)
(1.1386e-06 2.36902e-07 0)
(1.33907e-06 5.58481e-07 0)
(1.56214e-06 9.29475e-07 0)
(1.80725e-06 1.34116e-06 0)
)
;

boundaryField
{
    left
    {
        type            fixedDisplacement;
        value           uniform (0 0 0);
    }
    right
    {
        type            solidTraction;
        tractionSeries  
{
        file            "$FOAM_CASE/constant/timeVsTraction";
        outOfBounds     clamp;
}
        pressure        uniform 0;
        secondOrder     false;
        setEffectiveTraction false;
        relaxationFactor 1;
        value           nonuniform List<vector> 
30
(
(2.45623e-05 1.80168e-05 -1.00698e-20)
(2.39896e-05 1.78104e-05 -1.01304e-20)
(2.34119e-05 1.76054e-05 -1.02362e-20)
(2.28276e-05 1.73981e-05 -1.03794e-20)
(2.22366e-05 1.71862e-05 -1.05606e-20)
(2.16405e-05 1.69674e-05 -1.07808e-20)
(2.10411e-05 1.67404e-05 -1.10426e-20)
(2.04411e-05 1.65047e-05 -1.13483e-20)
(1.9843e-05 1.62602e-05 -1.17002e-20)
(1.92494e-05 1.60075e-05 -1.2101e-20)
(1.8688e-05 1.57588e-05 -1.23031e-20)
(1.81556e-05 1.55144e-05 -1.22515e-20)
(1.76308e-05 1.52664e-05 -1.22174e-20)
(1.71145e-05 1.50159e-05 -1.22e-20)
(1.66073e-05 1.47648e-05 -1.22023e-20)
(1.6108e-05 1.45146e-05 -1.22229e-20)
(1.56174e-05 1.42663e-05 -1.2259e-20)
(1.51346e-05 1.40217e-05 -1.23104e-20)
(1.46585e-05 1.37817e-05 -1.23741e-20)
(1.41878e-05 1.35475e-05 -1.24477e-20)
(1.37211e-05 1.33197e-05 -1.2528e-20)
(1.32569e-05 1.30987e-05 -1.26114e-20)
(1.27934e-05 1.28848e-05 -1.26945e-20)
(1.23291e-05 1.26777e-05 -1.27733e-20)
(1.18624e-05 1.24769e-05 -1.28439e-20)
(1.13921e-05 1.22816e-05 -1.29033e-20)