/*--------------------------------*- C++ -*----------------------------------*\
  =========                 |
  \\      /  F ield         | OpenFOAM: The Open Source CFD Toolbox
   \\    /   O peration     | Website:  https://openfoam.org
    \\  /    A nd           | Version:  9
     \\/     M anipulation  |
\*---------------------------------------------------------------------------*/
FoamFile
{
    format      ascii;
    class       volVectorField;
    location    "15";
    object      D_0;
}
// * * * * * * * * * * * * * * * * * * * * * * * * * * * * * * * * * * * * * //

dimensions      [0 1 0 0 0 0 0];

internalField   nonuniform List<vector> 
1000
(
(9.46772e-06 3.18342e-06 0)
(8.83455e-06 3.51369e-06 0)
(8.37347e-06 3.79326e-06 0)
(8.04006e-06 4.01124e-06 0)
(7.80224e-06 4.19959e-06 0)
(7.63433e-06 4.36157e-06 0)
(7.52066e-06 4.50754e-06 0)
(7.44843e-06 4.64048e-06 0)
(7.40765e-06 4.7645e-06 0)
(7.3932e-06 4.88207e-06 0)
(8.53174e-06 2.87106e-06 0)
(7.87455e-06 3.11005e-06 0)
(7.39873e-06 3.32168e-06 0)
(7.05632e-06 3.48457e-06 0)
(6.81252e-06 3.62771e-06 0)
(6.63977e-06 3.75084e-06 0)
(6.52144e-06 3.86249e-06 0)
(6.44395e-06 3.96463e-06 0)
(6.39705e-06 4.05938e-06 0)
(6.37382e-06 4.15183e-06 0)
(7.57368e-06 2.55448e-06 0)
(6.91206e-06 2.69846e-06 0)
(6.43471e-06 2.83945e-06 0)
(6.09335e-06 2.94721e-06 0)
(5.85102e-06 3.04604e-06 0)
(5.67932e-06 3.1321e-06 0)
(5.56092e-06 3.21171e-06 0)
(5.48198e-06 3.28552e-06 0)
(5.43217e-06 3.3538e-06 0)
(5.40422e-06 3.42228e-06 0)
(6.60293e-06 2.24352e-06 0)
(5.95402e-06 2.2898e-06 0)
(5.48923e-06 2.35937e-06 0)
(5.15907e-06 2.41295e-06 0)
(4.92608e-06 2.46958e-06 0)
(4.7616e-06 2.52122e-06 0)
(4.64814e-06 2.5718e-06 0)
(4.57175e-06 2.62028e-06 0)
(4.52272e-06 2.66542e-06 0)
(4.49305e-06 2.71249e-06 0)
(5.62164e-06 1.94594e-06 0)
(5.0033e-06 1.89341e-06 0)
(4.56577e-06 1.89404e-06 0)
(4.25758e-06 1.89634e-06 0)
(4.04261e-06 1.91463e-06 0)
(3.89189e-06 1.93599e-06 0)
(3.78843e-06 1.96179e-06 0)
(3.71854e-06 1.98899e-06 0)
(3.67334e-06 2.01506e-06 0)
(3.64463e-06 2.04406e-06 0)
(4.62913e-06 1.65511e-06 0)
(4.06186e-06 1.5142e-06 0)
(3.6661e-06 1.45115e-06 0)
(3.39208e-06 1.40965e-06 0)
(3.20418e-06 1.39591e-06 0)
(3.0739e-06 1.39325e-06 0)
(2.98534e-06 1.39993e-06 0)
(2.92556e-06 1.41103e-06 0)
(2.88688e-06 1.42295e-06 0)
(2.86128e-06 1.4382e-06 0)
(3.62079e-06 1.37024e-06 0)
(3.12657e-06 1.15316e-06 0)
(2.78943e-06 1.03907e-06 0)
(2.56287e-06 9.65283e-07 0)
(2.41113e-06 9.29239e-07 0)
(2.30768e-06 9.10856e-07 0)
(2.23831e-06 9.05343e-07 0)
(2.19161e-06 9.06291e-07 0)
(2.16141e-06 9.09379e-07 0)
(2.14057e-06 9.1561e-07 0)
(2.61205e-06 1.08583e-06 0)
(2.20272e-06 8.09314e-07 0)
(1.94323e-06 6.65686e-07 0)
(1.77522e-06 5.76308e-07 0)
(1.66701e-06 5.31273e-07 0)
(1.59462e-06 5.07338e-07 0)
(1.54689e-06 4.97495e-07 0)
(1.51478e-06 4.94588e-07 0)
(1.49397e-06 4.94195e-07 0)
(1.47888e-06 4.96194e-07 0)
(1.57419e-06 7.80163e-07 0)
(1.28587e-06 4.85964e-07 0)
(1.12502e-06 3.38834e-07 0)
(1.02544e-06 2.58964e-07 0)
(9.65991e-07 2.20518e-07 0)
(9.26718e-07 2.01704e-07 0)
(9.01406e-07 1.94417e-07 0)
(8.8409e-07 1.92503e-07 0)
(8.72667e-07 1.92358e-07 0)
(8.63675e-07 1.93497e-07 0)
(5.49166e-07 4.01915e-07 0)
(4.09146e-07 1.90035e-07 0)
(3.59145e-07 9.02086e-08 0)
(3.32327e-07 5.17491e-08 0)
(3.16432e-07 3.46848e-08 0)
(3.05554e-07 2.88622e-08 0)
(2.98302e-07 2.755e-08 0)
(2.93063e-07 2.83201e-08 0)
(2.89434e-07 2.9356e-08 0)
(2.86253e-07 3.06271e-08 0)
(1.66922e-05 5.15337e-06 0)
(1.66644e-05 5.79431e-06 0)
(1.66452e-05 6.39148e-06 0)
(1.66457e-05 6.93817e-06 0)
(1.66706e-05 7.44003e-06 0)
(1.67218e-05 7.90327e-06 0)
(1.67996e-05 8.33513e-06 0)
(1.69023e-05 8.74187e-06 0)
(1.70291e-05 9.12843e-06 0)
(1.71768e-05 9.50032e-06 0)
(1.61688e-05 5.11102e-06 0)
(1.60944e-05 5.75009e-06 0)
(1.60437e-05 6.33998e-06 0)
(1.60212e-05 6.87565e-06 0)
(1.60293e-05 7.36405e-06 0)
(1.60665e-05 7.81178e-06 0)
(1.61317e-05 8.22679e-06 0)
(1.62216e-05 8.61569e-06 0)
(1.63352e-05 8.98362e-06 0)
(1.64679e-05 9.33684e-06 0)
(1.56136e-05 5.02513e-06 0)
(1.54841e-05 5.66254e-06 0)
(1.53905e-05 6.24041e-06 0)
(1.53341e-05 6.7588e-06 0)
(1.53155e-05 7.22821e-06 0)
(1.53302e-05 7.6562e-06 0)
(1.53756e-05 8.05124e-06 0)
(1.5447e-05 8.42003e-06 0)
(1.55428e-05 8.76793e-06 0)
(1.5657e-05 9.10138e-06 0)
(1.50137e-05 4.90027e-06 0)
(1.48222e-05 5.5346e-06 0)
(1.46788e-05 6.09775e-06 0)
(1.45823e-05 6.595e-06 0)
(1.45309e-05 7.04158e-06 0)
(1.45177e-05 7.44615e-06 0)
(1.45387e-05 7.81797e-06 0)
(1.45878e-05 8.16381e-06 0)
(1.46628e-05 8.48925e-06 0)
(1.4756e-05 8.80066e-06 0)
(1.43621e-05 4.73763e-06 0)
(1.41026e-05 5.3638e-06 0)
(1.39059e-05 5.90758e-06 0)
(1.37671e-05 6.37883e-06 0)
(1.3681e-05 6.7981e-06 0)
(1.36383e-05 7.1752e-06 0)
(1.36336e-05 7.52035e-06 0)
(1.36592e-05 7.84026e-06 0)
(1.37126e-05 8.14082e-06 0)
(1.37843e-05 8.42794e-06 0)
(1.36578e-05 4.54098e-06 0)
(1.33266e-05 5.15034e-06 0)
(1.30754e-05 5.66915e-06 0)
(1.28944e-05 6.10992e-06 0)
(1.2774e-05 6.49816e-06 0)
(1.27022e-05 6.84453e-06 0)
(1.26721e-05 7.16015e-06 0)
(1.26747e-05 7.45155e-06 0)
(1.27069e-05 7.72501e-06 0)
(1.27578e-05 7.98569e-06 0)
(1.29028e-05 4.31333e-06 0)
(1.24987e-05 4.89423e-06 0)
(1.21943e-05 5.38092e-06 0)
(1.1973e-05 5.78631e-06 0)
(1.18203e-05 6.13997e-06 0)
(1.17216e-05 6.45272e-06 0)
(1.1668e-05 6.73644e-06 0)
(1.16494e-05 6.99731e-06 0)
(1.16619e-05 7.24188e-06 0)
(1.16938e-05 7.47445e-06 0)
(1.21008e-05 4.05893e-06 0)
(1.16265e-05 4.59787e-06 0)
(1.12723e-05 5.04454e-06 0)
(1.10142e-05 5.40968e-06 0)
(1.08326e-05 5.72561e-06 0)
(1.071e-05 6.0025e-06 0)
(1.06357e-05 6.25264e-06 0)
(1.05985e-05 6.4815e-06 0)
(1.05935e-05 6.69599e-06 0)
(1.06089e-05 6.89901e-06 0)
(1.12571e-05 3.78223e-06 0)
(1.07189e-05 4.26498e-06 0)
(1.03205e-05 4.6634e-06 0)
(1.00305e-05 4.98354e-06 0)
(9.82458e-06 5.25894e-06 0)
(9.68205e-06 5.49829e-06 0)
(9.59048e-06 5.71371e-06 0)
(9.5378e-06 5.90999e-06 0)
(9.51796e-06 6.09352e-06 0)
(9.51993e-06 6.2666e-06 0)
(1.03774e-05 3.48846e-06 0)
(9.78519e-06 3.90118e-06 0)
(9.35051e-06 4.2436e-06 0)
(9.03497e-06 4.51443e-06 0)
(8.80991e-06 4.74708e-06 0)
(8.65199e-06 4.94786e-06 0)
(8.54708e-06 5.12836e-06 0)
(8.48247e-06 5.292e-06 0)
(8.45075e-06 5.4451e-06 0)
(8.44317e-06 5.58631e-06 0)
(1.73533e-05 9.85803e-06 0)
(1.75559e-05 1.02131e-05 0)
(1.77741e-05 1.05624e-05 0)
(1.80062e-05 1.09077e-05 0)
(1.82508e-05 1.12507e-05 0)
(1.85066e-05 1.15925e-05 0)
(1.87726e-05 1.19341e-05 0)
(1.90476e-05 1.22765e-05 0)
(1.93307e-05 1.26202e-05 0)
(1.96209e-05 1.2966e-05 0)
(1.99173e-05 1.33143e-05 0)
(2.02193e-05 1.36656e-05 0)
(2.0526e-05 1.40203e-05 0)
(2.08368e-05 1.43786e-05 0)
(2.11508e-05 1.47408e-05 0)
(2.14675e-05 1.51069e-05 0)
(2.17862e-05 1.54768e-05 0)
(2.21061e-05 1.58504e-05 0)
(2.24267e-05 1.62269e-05 0)
(2.27472e-05 1.66053e-05 0)
(1.66519e-05 9.68101e-06 0)
(1.68795e-05 1.00301e-05 0)
(1.71193e-05 1.03739e-05 0)
(1.73694e-05 1.07142e-05 0)
(1.76294e-05 1.10531e-05 0)
(1.78981e-05 1.13912e-05 0)
(1.8175e-05 1.173e-05 0)
(1.8459e-05 1.207e-05 0)
(1.87497e-05 1.2412e-05 0)
(1.90462e-05 1.27566e-05 0)
(1.93481e-05 1.31042e-05 0)
(1.96546e-05 1.34554e-05 0)
(1.99652e-05 1.38104e-05 0)
(2.02795e-05 1.41695e-05 0)
(2.05969e-05 1.45329e-05 0)
(2.09168e-05 1.49007e-05 0)
(2.12389e-05 1.52728e-05 0)
(2.15625e-05 1.5649e-05 0)
(2.18873e-05 1.60287e-05 0)
(2.22124e-05 1.64108e-05 0)
(1.58511e-05 9.43533e-06 0)
(1.6111e-05 9.78503e-06 0)
(1.63796e-05 1.01295e-05 0)
(1.66545e-05 1.04706e-05 0)
(1.69365e-05 1.08103e-05 0)
(1.72242e-05 1.11495e-05 0)
(1.75177e-05 1.14895e-05 0)
(1.78164e-05 1.18309e-05 0)
(1.81199e-05 1.21746e-05 0)
(1.84278e-05 1.25211e-05 0)
(1.87398e-05 1.2871e-05 0)
(1.90554e-05 1.32246e-05 0)
(1.93744e-05 1.35824e-05 0)
(1.96964e-05 1.39445e-05 0)
(2.00211e-05 1.43114e-05 0)
(2.03481e-05 1.46829e-05 0)
(2.06771e-05 1.50593e-05 0)
(2.10077e-05 1.54404e-05 0)
(2.13395e-05 1.58259e-05 0)
(2.16717e-05 1.62152e-05 0)
(1.49629e-05 9.12639e-06 0)
(1.52609e-05 9.48173e-06 0)
(1.55645e-05 9.83212e-06 0)
(1.58701e-05 1.01783e-05 0)
(1.61797e-05 1.05233e-05 0)
(1.64918e-05 1.08673e-05 0)
(1.68073e-05 1.12121e-05 0)
(1.71254e-05 1.15583e-05 0)
(1.74465e-05 1.19068e-05 0)
(1.77702e-05 1.22582e-05 0)
(1.80965e-05 1.26129e-05 0)
(1.84252e-05 1.29716e-05 0)
(1.87563e-05 1.33345e-05 0)
(1.90895e-05 1.3702e-05 0)
(1.94248e-05 1.40744e-05 0)
(1.97619e-05 1.4452e-05 0)
(2.01007e-05 1.48349e-05 0)
(2.04409e-05 1.52231e-05 0)
(2.07821e-05 1.56168e-05 0)
(2.11235e-05 1.60158e-05 0)
(1.40063e-05 8.74825e-06 0)
(1.43472e-05 9.11498e-06 0)
(1.46904e-05 9.47706e-06 0)
(1.5031e-05 9.83363e-06 0)
(1.53725e-05 1.01886e-05 0)
(1.57131e-05 1.05419e-05 0)
(1.60544e-05 1.08956e-05 0)
(1.63958e-05 1.12503e-05 0)
(1.6738e-05 1.1607e-05 0)
(1.70809e-05 1.19663e-05 0)
(1.74247e-05 1.23289e-05 0)
(1.77696e-05 1.26953e-05 0)
(1.81155e-05 1.30659e-05 0)
(1.84627e-05 1.34412e-05 0)
(1.8811e-05 1.38215e-05 0)
(1.91606e-05 1.42072e-05 0)
(1.95113e-05 1.45987e-05 0)
(1.9863e-05 1.49962e-05 0)
(2.02154e-05 1.54003e-05 0)
(2.05679e-05 1.58111e-05 0)
(1.29972e-05 8.30313e-06 0)
(1.33841e-05 8.68659e-06 0)
(1.37704e-05 9.06579e-06 0)
(1.41493e-05 9.43757e-06 0)
(1.45259e-05 9.80706e-06 0)
(1.48982e-05 1.01739e-05 0)
(1.52683e-05 1.05404e-05 0)
(1.56359e-05 1.09072e-05 0)
(1.6002e-05 1.12754e-05 0)
(1.63668e-05 1.16458e-05 0)
(1.67307e-05 1.20191e-05 0)
(1.7094e-05 1.23959e-05 0)
(1.74571e-05 1.27768e-05 0)
(1.78201e-05 1.31622e-05 0)
(1.81835e-05 1.35526e-05 0)
(1.85471e-05 1.39485e-05 0)
(1.89113e-05 1.43505e-05 0)
(1.9276e-05 1.47591e-05 0)
(1.96412e-05 1.51753e-05 0)
(2.00062e-05 1.55994e-05 0)
(1.1952e-05 7.79183e-06 0)
(1.23866e-05 8.19741e-06 0)
(1.28182e-05 8.59899e-06 0)
(1.32374e-05 8.99096e-06 0)
(1.36513e-05 9.37943e-06 0)
(1.40574e-05 9.764e-06 0)
(1.44585e-05 1.01471e-05 0)
(1.48545e-05 1.05295e-05 0)
(1.52465e-05 1.09125e-05 0)
(1.5635e-05 1.12971e-05 0)
(1.60208e-05 1.1684e-05 0)
(1.64043e-05 1.20739e-05 0)
(1.67861e-05 1.24675e-05 0)
(1.71666e-05 1.28653e-05 0)
(1.75462e-05 1.3268e-05 0)
(1.79253e-05 1.36762e-05 0)
(1.83041e-05 1.40906e-05 0)
(1.86829e-05 1.45118e-05 0)
(1.90617e-05 1.49413e-05 0)
(1.94404e-05 1.53797e-05 0)
(1.08867e-05 7.21893e-06 0)
(1.13691e-05 7.65169e-06 0)
(1.18464e-05 8.0799e-06 0)
(1.2307e-05 8.49664e-06 0)
(1.27591e-05 8.90806e-06 0)
(1.32004e-05 9.31433e-06 0)
(1.36338e-05 9.71765e-06 0)
(1.40595e-05 1.01192e-05 0)
(1.44788e-05 1.05203e-05 0)
(1.48925e-05 1.0922e-05 0)
(1.53015e-05 1.13252e-05 0)
(1.57064e-05 1.17308e-05 0)
(1.6108e-05 1.21395e-05 0)
(1.65069e-05 1.2552e-05 0)
(1.69038e-05 1.2969e-05 0)
(1.7299e-05 1.33912e-05 0)
(1.76932e-05 1.38195e-05 0)
(1.80868e-05 1.42547e-05 0)
(1.84799e-05 1.46985e-05 0)
(1.88731e-05 1.51516e-05 0)
(9.81699e-06 6.58979e-06 0)
(1.0346e-05 7.05506e-06 0)
(1.0868e-05 7.51317e-06 0)
(1.137e-05 7.9589e-06 0)
(1.18603e-05 8.3966e-06 0)
(1.23372e-05 8.82776e-06 0)
(1.28032e-05 9.25433e-06 0)
(1.32592e-05 9.67792e-06 0)
(1.37065e-05 1.00999e-05 0)
(1.4146e-05 1.05215e-05 0)
(1.45787e-05 1.09437e-05 0)
(1.50057e-05 1.13675e-05 0)
(1.54278e-05 1.17937e-05 0)
(1.58457e-05 1.22231e-05 0)
(1.62603e-05 1.26564e-05 0)
(1.66722e-05 1.30944e-05 0)
(1.70822e-05 1.35381e-05 0)
(1.74908e-05 1.39885e-05 0)
(1.78987e-05 1.44473e-05 0)
(1.83067e-05 1.49154e-05 0)
(8.75557e-06 5.91406e-06 0)
(9.3288e-06 6.41517e-06 0)
(9.89064e-06 6.90416e-06 0)
(1.04333e-05 7.38198e-06 0)
(1.0961e-05 7.84948e-06 0)
(1.14736e-05 8.30893e-06 0)
(1.19728e-05 8.76202e-06 0)
(1.24597e-05 9.21054e-06 0)
(1.29355e-05 9.65604e-06 0)
(1.34013e-05 1.00999e-05 0)
(1.38584e-05 1.05433e-05 0)
(1.43079e-05 1.09874e-05 0)
(1.47507e-05 1.1433e-05 0)
(1.51879e-05 1.1881e-05 0)
(1.56203e-05 1.23323e-05 0)
(1.6049e-05 1.27876e-05 0)
(1.64747e-05 1.32479e-05 0)
(1.68985e-05 1.37143e-05 0)
(1.7321e-05 1.41886e-05 0)
(1.77438e-05 1.46716e-05 0)
(7.93678e-06 5.40727e-06 0)
(8.53453e-06 5.93444e-06 0)
(9.11735e-06 6.4409e-06 0)
(9.68203e-06 6.93702e-06 0)
(1.0231e-05 7.42276e-06 0)
(1.07642e-05 7.90025e-06 0)
(1.12831e-05 8.37107e-06 0)
(1.17886e-05 8.83678e-06 0)
(1.22818e-05 9.29882e-06 0)
(1.2764e-05 9.75848e-06 0)
(1.32362e-05 1.02169e-05 0)
(1.36996e-05 1.06751e-05 0)
(1.41552e-05 1.1134e-05 0)
(1.46041e-05 1.15944e-05 0)
(1.50472e-05 1.20571e-05 0)
(1.54858e-05 1.25229e-05 0)
(1.59206e-05 1.29927e-05 0)
(1.63529e-05 1.34674e-05 0)
(1.67836e-05 1.39485e-05 0)
(1.72147e-05 1.4437e-05 0)
(7.39041e-06 5.10394e-06 0)
(7.98825e-06 5.63107e-06 0)
(8.57125e-06 6.14169e-06 0)
(9.1378e-06 6.64343e-06 0)
(9.68952e-06 7.1361e-06 0)
(1.02262e-05 7.62119e-06 0)
(1.07492e-05 8.09996e-06 0)
(1.12589e-05 8.57364e-06 0)
(1.17564e-05 9.04344e-06 0)
(1.22427e-05 9.51044e-06 0)
(1.27189e-05 9.97565e-06 0)
(1.31859e-05 1.044e-05 0)
(1.36447e-05 1.09042e-05 0)
(1.40965e-05 1.1369e-05 0)
(1.45421e-05 1.18351e-05 0)
(1.49827e-05 1.23033e-05 0)
(1.54192e-05 1.27742e-05 0)
(1.58531e-05 1.32487e-05 0)
(1.62851e-05 1.37279e-05 0)
(1.67177e-05 1.42124e-05 0)
(6.90816e-06 4.81272e-06 0)
(7.49523e-06 5.33829e-06 0)
(8.07227e-06 5.85039e-06 0)
(8.63448e-06 6.35554e-06 0)
(9.18396e-06 6.8532e-06 0)
(9.71968e-06 7.3443e-06 0)
(1.02426e-05 7.82976e-06 0)
(1.07531e-05 8.31046e-06 0)
(1.12519e-05 8.78733e-06 0)
(1.17398e-05 9.26122e-06 0)
(1.22177e-05 9.73292e-06 0)
(1.26864e-05 1.02032e-05 0)
(1.31469e-05 1.06726e-05 0)
(1.36002e-05 1.11418e-05 0)
(1.40472e-05 1.16114e-05 0)
(1.4489e-05 1.20819e-05 0)
(1.49266e-05 1.25539e-05 0)
(1.53614e-05 1.3028e-05 0)
(1.57943e-05 1.35048e-05 0)
(1.6228e-05 1.39849e-05 0)
(6.47594e-06 4.53223e-06 0)
(7.04894e-06 5.05356e-06 0)
(7.61563e-06 5.56519e-06 0)
(8.16945e-06 6.07234e-06 0)
(8.71274e-06 6.5738e-06 0)
(9.24378e-06 7.06997e-06 0)
(9.76343e-06 7.56133e-06 0)
(1.02716e-05 8.0484e-06 0)
(1.07689e-05 8.53181e-06 0)
(1.12559e-05 9.01214e-06 0)
(1.17334e-05 9.48999e-06 0)
(1.2202e-05 9.9659e-06 0)
(1.26627e-05 1.04404e-05 0)
(1.31162e-05 1.09139e-05 0)
(1.35636e-05 1.13868e-05 0)
(1.40057e-05 1.18595e-05 0)
(1.44438e-05 1.23324e-05 0)
(1.4879e-05 1.28058e-05 0)
(1.53123e-05 1.32802e-05 0)
(1.57465e-05 1.37554e-05 0)
(6.08881e-06 4.26545e-06 0)
(6.64457e-06 4.78095e-06 0)
(7.19734e-06 5.29045e-06 0)
(7.73938e-06 5.79788e-06 0)
(8.27317e-06 6.30156e-06 0)
(8.79646e-06 6.80141e-06 0)
(9.30993e-06 7.29747e-06 0)
(9.81316e-06 7.78989e-06 0)
(1.03066e-05 8.27899e-06 0)
(1.07907e-05 8.76508e-06 0)
(1.12658e-05 9.24852e-06 0)
(1.17327e-05 9.72967e-06 0)
(1.21921e-05 1.02088e-05 0)
(1.26447e-05 1.06863e-05 0)
(1.30914e-05 1.11623e-05 0)
(1.35331e-05 1.16371e-05 0)
(1.39709e-05 1.21108e-05 0)
(1.44057e-05 1.25835e-05 0)
(1.48393e-05 1.30549e-05 0)
(1.52739e-05 1.35252e-05 0)
(5.73929e-06 4.01222e-06 0)
(6.27609e-06 4.52041e-06 0)
(6.81262e-06 5.02633e-06 0)
(7.34053e-06 5.53268e-06 0)
(7.86234e-06 6.03729e-06 0)
(8.37543e-06 6.53965e-06 0)
(8.88035e-06 7.03935e-06 0)
(9.37643e-06 7.53619e-06 0)
(9.864e-06 8.03015e-06 0)
(1.03432e-05 8.52128e-06 0)
(1.08143e-05 9.00971e-06 0)
(1.1278e-05 9.49556e-06 0)
(1.17349e-05 9.97898e-06 0)
(1.21855e-05 1.04601e-05 0)
(1.26306e-05 1.09389e-05 0)
(1.30712e-05 1.14155e-05 0)
(1.3508e-05 1.18898e-05 0)
(1.39424e-05 1.23615e-05 0)
(1.43751e-05 1.28301e-05 0)
(1.48088e-05 1.32957e-05 0)
(5.42135e-06 3.77272e-06 0)
(5.93811e-06 4.27276e-06 0)
(6.45675e-06 4.77403e-06 0)
(6.96881e-06 5.27812e-06 0)
(7.47673e-06 5.78247e-06 0)
(7.97772e-06 6.2862e-06 0)
(8.4722e-06 6.78846e-06 0)
(8.95932e-06 7.28872e-06 0)
(9.43926e-06 7.78665e-06 0)
(9.91197e-06 8.28203e-06 0)
(1.03778e-05 8.77473e-06 0)
(1.0837e-05 9.26468e-06 0)
(1.12901e-05 9.75183e-06 0)
(1.17378e-05 1.02361e-05 0)
(1.21805e-05 1.07174e-05 0)
(1.26192e-05 1.11956e-05 0)
(1.30546e-05 1.16702e-05 0)
(1.34878e-05 1.2141e-05 0)
(1.39196e-05 1.26071e-05 0)
(1.43522e-05 1.3068e-05 0)
(5.12903e-06 3.54636e-06 0)
(5.62522e-06 4.03768e-06 0)
(6.12499e-06 4.53354e-06 0)
(6.62004e-06 5.03445e-06 0)
(7.11273e-06 5.5376e-06 0)
(7.60019e-06 6.04172e-06 0)
(8.08275e-06 6.54559e-06 0)
(8.55946e-06 7.04837e-06 0)
(9.03038e-06 7.5494e-06 0)
(9.49533e-06 8.04823e-06 0)
(9.95453e-06 8.54449e-06 0)
(1.04082e-05 9.0379e-06 0)
(1.08567e-05 9.52822e-06 0)
(1.13005e-05 1.00152e-05 0)
(1.17402e-05 1.04986e-05 0)
(1.21764e-05 1.0978e-05 0)
(1.26098e-05 1.1453e-05 0)
(1.30415e-05 1.19228e-05 0)
(1.34719e-05 1.23865e-05 0)
(1.39031e-05 1.28432e-05 0)
(4.85705e-06 3.33246e-06 0)
(5.33247e-06 3.81492e-06 0)
(5.81277e-06 4.30489e-06 0)
(6.29006e-06 4.80198e-06 0)
(6.76654e-06 5.30316e-06 0)
(7.23943e-06 5.80684e-06 0)
(7.70896e-06 6.31146e-06 0)
(8.17414e-06 6.81589e-06 0)
(8.63494e-06 7.31921e-06 0)
(9.0911e-06 7.8207e-06 0)
(9.54272e-06 8.31978e-06 0)
(9.98993e-06 8.81597e-06 0)
(1.0433e-05 9.30887e-06 0)
(1.08723e-05 9.79806e-06 0)
(1.13083e-05 1.02831e-05 0)
(1.17416e-05 1.07635e-05 0)
(1.21726e-05 1.12386e-05 0)
(1.26022e-05 1.17076e-05 0)
(1.30309e-05 1.21691e-05 0)
(1.34604e-05 1.26222e-05 0)
(4.60048e-06 3.13022e-06 0)
(5.05514e-06 3.60391e-06 0)
(5.51568e-06 4.08777e-06 0)
(5.97472e-06 4.58062e-06 0)
(6.43436e-06 5.07927e-06 0)
(6.89193e-06 5.58184e-06 0)
(7.34763e-06 6.08647e-06 0)
(7.80045e-06 6.59179e-06 0)
(8.2503e-06 7.09661e-06 0)
(8.69686e-06 7.60001e-06 0)
(9.14014e-06 8.10119e-06 0)
(9.58021e-06 8.5995e-06 0)
(1.00172e-05 9.09435e-06 0)
(1.04515e-05 9.58522e-06 0)
(1.08833e-05 1.00715e-05 0)
(1.13132e-05 1.05526e-05 0)
(1.17414e-05 1.10278e-05 0)
(1.21688e-05 1.1496e-05 0)
(1.25956e-05 1.19557e-05 0)
(1.3023e-05 1.2406e-05 0)
(4.35484e-06 2.93883e-06 0)
(4.7888e-06 3.40409e-06 0)
(5.22943e-06 3.88182e-06 0)
(5.66996e-06 4.37022e-06 0)
(6.11233e-06 4.86593e-06 0)
(6.5541e-06 5.36684e-06 0)
(6.9954e-06 5.87086e-06 0)
(7.43529e-06 6.37638e-06 0)
(7.87359e-06 6.882e-06 0)
(8.30997e-06 7.38658e-06 0)
(8.74438e-06 7.88916e-06 0)
(9.17678e-06 8.38892e-06 0)
(9.60729e-06 8.88514e-06 0)
(1.00361e-05 9.37714e-06 0)
(1.04634e-05 9.86426e-06 0)
(1.08895e-05 1.03458e-05 0)
(1.13148e-05 1.08208e-05 0)
(1.17396e-05 1.12883e-05 0)
(1.21642e-05 1.17467e-05 0)
(1.25894e-05 1.21949e-05 0)
(4.1159e-06 2.75764e-06 0)
(4.52923e-06 3.21494e-06 0)
(4.94988e-06 3.68669e-06 0)
(5.37172e-06 4.17054e-06 0)
(5.79658e-06 4.66304e-06 0)
(6.22225e-06 5.16187e-06 0)
(6.64882e-06 5.66473e-06 0)
(7.0754e-06 6.16983e-06 0)
(7.5018e-06 6.67559e-06 0)
(7.92765e-06 7.18068e-06 0)
(8.35283e-06 7.68399e-06 0)
(8.77725e-06 8.18456e-06 0)
(9.20094e-06 8.68154e-06 0)
(9.62399e-06 9.17416e-06 0)
(1.00465e-05 9.66166e-06 0)
(1.04687e-05 1.01433e-05 0)
(1.08908e-05 1.06181e-05 0)
(1.1313e-05 1.1085e-05 0)
(1.17353e-05 1.15425e-05 0)
(1.21581e-05 1.19895e-05 0)
(3.87957e-06 2.586e-06 0)
(4.27228e-06 3.03593e-06 0)
(4.67288e-06 3.50194e-06 0)
(5.07596e-06 3.98126e-06 0)
(5.48319e-06 4.47037e-06 0)
(5.8926e-06 4.96678e-06 0)
(6.30429e-06 5.46803e-06 0)
(6.71741e-06 5.97216e-06 0)
(7.13176e-06 6.47744e-06 0)
(7.54693e-06 6.98241e-06 0)
(7.96275e-06 7.48582e-06 0)
(8.37907e-06 7.98658e-06 0)
(8.79583e-06 8.48374e-06 0)
(9.21301e-06 8.97646e-06 0)
(9.63067e-06 9.46391e-06 0)
(1.00489e-05 9.9453e-06 0)
(1.04677e-05 1.04197e-05 0)
(1.08871e-05 1.08862e-05 0)
(1.13071e-05 1.13433e-05 0)
(1.17275e-05 1.17899e-05 0)
(3.64186e-06 2.42367e-06 0)
(4.01383e-06 2.86683e-06 0)
(4.39431e-06 3.32737e-06 0)
(4.77857e-06 3.80222e-06 0)
(5.16814e-06 4.28778e-06 0)
(5.56131e-06 4.78146e-06 0)
(5.95814e-06 5.28065e-06 0)
(6.35785e-06 5.7833e-06 0)
(6.7602e-06 6.28753e-06 0)
(7.16477e-06 6.79176e-06 0)
(7.57131e-06 7.29464e-06 0)
(7.97961e-06 7.795e-06 0)
(8.38951e-06 8.29179e-06 0)
(8.80091e-06 8.7841e-06 0)
(9.21375e-06 9.27108e-06 0)
(9.62798e-06 9.75195e-06 0)
(1.00435e-05 1.02258e-05 0)
(1.04603e-05 1.06919e-05 0)
(1.0878e-05 1.11488e-05 0)
(1.12961e-05 1.15959e-05 0)
(3.39855e-06 2.2702e-06 0)
(3.74958e-06 2.70718e-06 0)
(4.10982e-06 3.16253e-06 0)
(4.47525e-06 3.63296e-06 0)
(4.84725e-06 4.11486e-06 0)
(5.22433e-06 4.60552e-06 0)
(5.60651e-06 5.10226e-06 0)
(5.99307e-06 5.60293e-06 0)
(6.38372e-06 6.10556e-06 0)
(6.77799e-06 6.60849e-06 0)
(7.17558e-06 7.11027e-06 0)
(7.57618e-06 7.60966e-06 0)
(7.97953e-06 8.10555e-06 0)
(8.38542e-06 8.59699e-06 0)
(8.79368e-06 9.08311e-06 0)
(9.20413e-06 9.56314e-06 0)
(9.6166e-06 1.00363e-05 0)
(1.00308e-05 1.05019e-05 0)
(1.04464e-05 1.0959e-05 0)
(1.08624e-05 1.14072e-05 0)
(3.14537e-06 2.12611e-06 0)
(3.47512e-06 2.55732e-06 0)
(3.81497e-06 3.00761e-06 0)
(4.16163e-06 3.47358e-06 0)
(4.51624e-06 3.95157e-06 0)
(4.87754e-06 4.43885e-06 0)
(5.24549e-06 4.93267e-06 0)
(5.61939e-06 5.43082e-06 0)
(5.99887e-06 5.93127e-06 0)
(6.38342e-06 6.4323e-06 0)
(6.77264e-06 6.9324e-06 0)
(7.16611e-06 7.43027e-06 0)
(7.56347e-06 7.92475e-06 0)
(7.96437e-06 8.41487e-06 0)
(8.36851e-06 8.89974e-06 0)
(8.77557e-06 9.37863e-06 0)
(9.18527e-06 9.85089e-06 0)
(9.59717e-06 1.0316e-05 0)
(1.00108e-05 1.07734e-05 0)
(1.04251e-05 1.1223e-05 0)
(2.87728e-06 1.99062e-06 0)
(3.18537e-06 2.41643e-06 0)
(3.50471e-06 2.86174e-06 0)
(3.83275e-06 3.32315e-06 0)
(4.17033e-06 3.797e-06 0)
(4.51639e-06 4.28053e-06 0)
(4.87078e-06 4.77099e-06 0)
(5.23277e-06 5.26612e-06 0)
(5.60193e-06 5.76386e-06 0)
(5.97765e-06 6.26246e-06 0)
(6.3594e-06 6.76036e-06 0)
(6.74665e-06 7.25622e-06 0)
(7.13889e-06 7.74885e-06 0)
(7.53562e-06 8.23726e-06 0)
(7.93639e-06 8.72056e-06 0)
(8.34074e-06 9.19805e-06 0)
(8.74822e-06 9.66919e-06 0)
(9.15827e-06 1.01337e-05 0)
(9.57034e-06 1.05913e-05 0)
(9.98328e-06 1.10425e-05 0)
(2.58934e-06 1.8659e-06 0)
(2.87533e-06 2.28616e-06 0)
(3.17414e-06 2.72615e-06 0)
(3.48384e-06 3.18252e-06 0)
(3.80496e-06 3.65165e-06 0)
(4.13656e-06 4.13079e-06 0)
(4.47831e-06 4.6172e-06 0)
(4.82948e-06 5.10861e-06 0)
(5.18945e-06 5.60295e-06 0)
(5.55753e-06 6.09845e-06 0)
(5.93304e-06 6.59353e-06 0)
(6.31529e-06 7.08683e-06 0)
(6.70361e-06 7.57715e-06 0)
(7.09734e-06 8.06345e-06 0)
(7.49583e-06 8.54488e-06 0)
(7.89843e-06 9.02075e-06 0)
(8.30452e-06 9.49059e-06 0)
(8.71341e-06 9.95424e-06 0)
(9.12442e-06 1.0412e-05 0)
(9.53645e-06 1.08646e-05 0)
(2.27425e-06 1.74893e-06 0)
(2.53785e-06 2.16357e-06 0)
(2.81632e-06 2.59797e-06 0)
(3.1083e-06 3.04896e-06 0)
(3.41391e-06 3.51295e-06 0)
(3.73222e-06 3.98723e-06 0)
(4.06273e-06 4.46909e-06 0)
(4.40456e-06 4.95627e-06 0)
(4.75696e-06 5.44672e-06 0)
(5.11906e-06 5.93865e-06 0)
(5.49002e-06 6.43048e-06 0)
(5.86898e-06 6.92083e-06 0)
(6.25508e-06 7.40851e-06 0)
(6.64746e-06 7.89246e-06 0)
(7.04527e-06 8.37183e-06 0)
(7.44763e-06 8.84594e-06 0)
(7.85369e-06 9.31436e-06 0)
(8.26253e-06 9.77707e-06 0)
(8.67332e-06 1.02346e-05 0)
(9.08496e-06 1.06882e-05 0)
(1.9279e-06 1.64661e-06 0)
(2.16897e-06 2.05428e-06 0)
(2.42758e-06 2.48172e-06 0)
(2.70268e-06 2.92595e-06 0)
(2.99398e-06 3.38349e-06 0)
(3.30046e-06 3.85165e-06 0)
(3.62136e-06 4.32777e-06 0)
(3.95563e-06 4.80963e-06 0)
(4.3023e-06 5.29516e-06 0)
(4.66033e-06 5.78259e-06 0)
(5.02868e-06 6.27036e-06 0)
(5.4063e-06 6.75709e-06 0)
(5.79214e-06 7.24156e-06 0)
(6.18514e-06 7.72275e-06 0)
(6.58421e-06 8.1998e-06 0)
(6.98821e-06 8.67204e-06 0)
(7.39602e-06 9.13908e-06 0)
(7.80638e-06 9.60088e-06 0)
(8.2182e-06 1.0058e-05 0)
(8.63013e-06 1.05119e-05 0)
(2.7672e-07 2.92214e-08 0)
(8.35867e-07 1.82349e-07 0)
(1.43016e-06 4.68968e-07 0)
(2.06726e-06 8.69888e-07 0)
(2.75944e-06 1.37422e-06 0)
(3.51055e-06 1.96395e-06 0)
(4.3236e-06 2.61985e-06 0)
(5.19719e-06 3.32178e-06 0)
(6.12871e-06 4.04937e-06 0)
(7.11324e-06 4.78592e-06 0)
(2.60658e-07 2.60776e-08 0)
(7.87929e-07 1.63618e-07 0)
(1.34693e-06 4.23808e-07 0)
(1.94359e-06 7.91101e-07 0)
(2.58907e-06 1.2573e-06 0)
(3.28697e-06 1.80726e-06 0)
(4.04035e-06 2.42431e-06 0)
(4.84793e-06 3.09068e-06 0)
(5.70673e-06 3.7868e-06 0)
(6.61158e-06 4.49944e-06 0)
(2.46217e-07 2.23471e-08 0)
(7.44913e-07 1.44628e-07 0)
(1.27268e-06 3.80105e-07 0)
(1.83346e-06 7.16012e-07 0)
(2.43723e-06 1.1462e-06 0)
(3.08701e-06 1.65785e-06 0)
(3.78611e-06 2.23644e-06 0)
(4.53399e-06 2.86666e-06 0)
(5.32957e-06 3.53078e-06 0)
(6.16725e-06 4.21935e-06 0)
(2.33004e-07 1.80212e-08 0)
(7.05725e-07 1.25564e-07 0)
(1.20583e-06 3.38725e-07 0)
(1.7355e-06 6.4673e-07 0)
(2.30361e-06 1.04494e-06 0)
(2.9124e-06 1.5223e-06 0)
(3.56493e-06 2.06585e-06 0)
(4.26031e-06 2.66192e-06 0)
(4.99871e-06 3.29371e-06 0)
(5.77337e-06 3.95303e-06 0)
(2.20649e-07 1.30478e-08 0)
(6.69143e-07 1.05746e-07 0)
(1.14386e-06 2.97745e-07 0)
(1.64533e-06 5.79754e-07 0)
(2.18151e-06 9.48241e-07 0)
(2.75387e-06 1.39359e-06 0)
(3.36548e-06 1.9042e-06 0)
(4.01504e-06 2.46796e-06 0)
(4.70404e-06 3.06948e-06 0)
(5.42359e-06 3.70048e-06 0)
(2.09054e-07 7.51584e-09 0)
(6.34862e-07 8.53169e-08 0)
(1.08621e-06 2.57397e-07 0)
(1.56212e-06 5.15549e-07 0)
(2.06976e-06 8.57042e-07 0)
(2.60979e-06 1.27328e-06 0)
(3.18513e-06 1.75369e-06 0)
(3.79393e-06 2.28711e-06 0)
(4.43889e-06 2.85956e-06 0)
(5.10968e-06 3.46218e-06 0)
(1.97984e-07 1.39805e-09 0)
(6.02157e-07 6.39755e-08 0)
(1.03148e-06 2.16817e-07 0)
(1.48364e-06 4.52518e-07 0)
(1.96516e-06 7.68938e-07 0)
(2.47596e-06 1.15828e-06 0)
(3.01891e-06 1.61085e-06 0)
(3.59161e-06 2.11625e-06 0)
(4.19755e-06 2.66182e-06 0)
(4.82543e-06 3.23775e-06 0)
(1.87352e-07 -5.2274e-09 0)
(5.70756e-07 4.18171e-08 0)
(9.79146e-07 1.76038e-07 0)
(1.40903e-06 3.90623e-07 0)
(1.86634e-06 6.83838e-07 0)
(2.35035e-06 1.04844e-06 0)
(2.86383e-06 1.47543e-06 0)
(3.40397e-06 1.95487e-06 0)
(3.97481e-06 2.47536e-06 0)
(4.56472e-06 3.02632e-06 0)
(1.77022e-07 -1.23669e-08 0)
(5.4025e-07 1.87213e-08 0)
(9.2846e-07 1.34676e-07 0)
(1.33708e-06 3.29131e-07 0)
(1.77156e-06 6.00635e-07 0)
(2.23063e-06 9.42341e-07 0)
(2.71697e-06 1.34581e-06 0)
(3.22748e-06 1.80143e-06 0)
(3.76643e-06 2.29886e-06 0)
(4.32237e-06 2.82688e-06 0)
(1.66918e-07 -1.99688e-08 0)
(5.10409e-07 -5.26588e-09 0)
(8.78982e-07 9.26942e-08 0)
(1.26707e-06 2.67894e-07 0)
(1.67969e-06 5.19041e-07 0)
(2.11514e-06 8.39531e-07 0)
(2.57597e-06 1.22135e-06 0)
(3.05902e-06 1.6551e-06 0)
(3.56857e-06 2.1313e-06 0)
(4.0937e-06 2.6384e-06 0)
(1.56957e-07 -2.80292e-08 0)
(4.80995e-07 -3.02018e-08 0)
(8.30269e-07 4.99056e-08 0)
(1.19826e-06 2.06564e-07 0)
(1.58963e-06 4.38524e-07 0)
(2.0023e-06 7.39312e-07 0)
(2.43875e-06 1.10121e-06 0)
(2.89589e-06 1.51495e-06 0)
(3.37784e-06 1.97175e-06 0)
(3.87452e-06 2.4599e-06 0)
(1.47087e-07 -3.65331e-08 0)
(4.51859e-07 -5.60925e-08 0)
(7.82024e-07 6.25827e-09 0)
(1.13013e-06 1.45037e-07 0)
(1.50047e-06 3.58904e-07 0)
(1.89077e-06 6.41399e-07 0)
(2.30343e-06 9.8496e-07 0)
(2.73558e-06 1.38043e-06 0)
(3.19113e-06 1.81953e-06 0)
(3.66099e-06 2.29061e-06 0)
(1.37276e-07 -4.55019e-08 0)
(4.2294e-07 -8.3018e-08 0)
(7.34052e-07 -3.83917e-08 0)
(1.06224e-06 8.31281e-08 0)
(1.41145e-06 2.7994e-07 0)
(1.77934e-06 5.4548e-07 0)
(2.16828e-06 8.72214e-07 0)
(2.57578e-06 1.25106e-06 0)
(3.00549e-06 1.67408e-06 0)
(3.44942e-06 2.12983e-06 0)
(1.27522e-07 -5.50109e-08 0)
(3.94279e-07 -1.1107e-07 0)
(6.86291e-07 -8.40867e-08 0)
(9.94277e-07 2.08922e-08 0)
(1.32187e-06 2.01748e-07 0)
(1.66683e-06 4.51678e-07 0)
(2.03162e-06 7.63047e-07 0)
(2.4142e-06 1.12681e-06 0)
(2.81803e-06 1.5353e-06 0)
(3.23627e-06 1.97735e-06 0)
(1.17915e-07 -6.52e-08 0)
(3.66229e-07 -1.40495e-07 0)
(6.39002e-07 -1.31053e-07 0)
(9.26192e-07 -4.18228e-08 0)
(1.23119e-06 1.24243e-07 0)
(1.55214e-06 3.59915e-07 0)
(1.8917e-06 6.57344e-07 0)
(2.24845e-06 1.0075e-06 0)
(2.6257e-06 1.4029e-06 0)
(3.01778e-06 1.83274e-06 0)
(1.08639e-07 -7.65461e-08 0)
(3.39369e-07 -1.71647e-07 0)
(5.92616e-07 -1.79215e-07 0)
(8.58003e-07 -1.04453e-07 0)
(1.13887e-06 4.82949e-08 0)
(1.4341e-06 2.71214e-07 0)
(1.74672e-06 5.56149e-07 0)
(2.07607e-06 8.94089e-07 0)
(2.42536e-06 1.27774e-06 0)
(2.79014e-06 1.69669e-06 0)
(1.00389e-07 -8.96096e-08 0)
(3.15492e-07 -2.0523e-07 0)
(5.4862e-07 -2.29037e-07 0)
(7.90352e-07 -1.67328e-07 0)
(1.04455e-06 -2.62906e-08 0)
(1.31139e-06 1.8538e-07 0)
(1.59448e-06 4.59211e-07 0)
(1.89404e-06 7.8623e-07 0)
(2.2132e-06 1.15932e-06 0)
(2.54876e-06 1.56855e-06 0)
(9.46335e-08 -1.06828e-07 0)
(2.96672e-07 -2.42345e-07 0)
(5.08452e-07 -2.79529e-07 0)
(7.23555e-07 -2.27953e-07 0)
(9.47591e-07 -9.63205e-08 0)
(1.18244e-06 1.05873e-07 0)
(1.43261e-06 3.69958e-07 0)
(1.69921e-06 6.87162e-07 0)
(1.98539e-06 1.05062e-06 0)
(2.28912e-06 1.45093e-06 0)
(9.85365e-08 -1.29973e-07 0)
(2.90634e-07 -2.84324e-07 0)
(4.77037e-07 -3.31644e-07 0)
(6.59345e-07 -2.87757e-07 0)
(8.47222e-07 -1.63534e-07 0)
(1.04469e-06 3.06049e-08 0)
(1.25719e-06 2.86031e-07 0)
(1.48657e-06 5.94282e-07 0)
(1.73598e-06 9.48833e-07 0)
(2.00434e-06 1.34087e-06 0)
(1.27267e-07 -1.71926e-07 0)
(3.02245e-07 -3.32188e-07 0)
(4.5671e-07 -3.78796e-07 0)
(5.97494e-07 -3.36491e-07 0)
(7.42283e-07 -2.17021e-07 0)
(8.96179e-07 -2.96152e-08 0)
(1.06574e-06 2.17706e-07 0)
(1.25312e-06 5.17223e-07 0)
(1.46155e-06 8.62832e-07 0)
(1.6905e-06 1.24639e-06 0)
)
;

boundaryField
{
    left
    {
        type            fixedDisplacement;
        value           uniform (0 0 0);
    }
    right
    {
        type            solidTraction;
        tractionSeries  
{
        file            "$FOAM_CASE/constant/timeVsTraction";
        outOfBounds     clamp;
}
        pressure        uniform 0;
        secondOrder     false;
        setEffectiveTraction false;
        relaxationFactor 1;
        value           nonuniform List<vector> 
30
(
(2.29068e-05 1.6794e-05 -8.62272e-21)
(2.23729e-05 1.66015e-05 -8.67467e-21)
(2.18344e-05 1.64102e-05 -8.76388e-21)
(2.12896e-05 1.62169e-05 -8.88323e-21)
(2.07387e-05 1.60191e-05 -9.03337e-21)
(2.01828e-05 1.5815e-05 -9.21546e-21)
(1.9624e-05 1.56032e-05 -9.43187e-21)
(1.90646e-05 1.53832e-05 -9.68496e-21)
(1.85071e-05 1.5155e-05 -9.9773e-21)
(1.79537e-05 1.49192e-05 -1.03119e-20)
(1.74304e-05 1.46872e-05 -1.0478e-20)
(1.69342e-05 1.44591e-05 -1.04296e-20)
(1.6445e-05 1.42276e-05 -1.03976e-20)
(1.59638e-05 1.39939e-05 -1.03813e-20)
(1.54912e-05 1.37596e-05 -1.03835e-20)
(1.50259e-05 1.35261e-05 -1.04029e-20)
(1.45688e-05 1.32944e-05 -1.04368e-20)
(1.41189e-05 1.30661e-05 -1.0485e-20)
(1.36753e-05 1.28422e-05 -1.05449e-20)
(1.32368e-05 1.26237e-05 -1.06141e-20)
(1.2802e-05 1.24111e-05 -1.06896e-20)
(1.23695e-05 1.2205e-05 -1.07681e-20)
(1.19378e-05 1.20054e-05 -1.08461e-20)
(1.15052e-05 1.18122e-05 -1.09201e-20)
(1.10704e-05 1.16249e-05 -1.09864e-20)
(1.06322e-05 1.14427e-05 -1.10421e-20)