/*--------------------------------*- C++ -*----------------------------------*\
  =========                 |
  \\      /  F ield         | OpenFOAM: The Open Source CFD Toolbox
   \\    /   O peration     | Website:  https://openfoam.org
    \\  /    A nd           | Version:  9
     \\/     M anipulation  |
\*---------------------------------------------------------------------------*/
FoamFile
{
    format      ascii;
    class       volSymmTensorField;
    location    "15";
    object      epsilon;
}
// * * * * * * * * * * * * * * * * * * * * * * * * * * * * * * * * * * * * * //

dimensions      [0 0 0 0 0 0 0];

internalField   nonuniform List<symmTensor> 
1000
(
(6.27349e-06 -8.23351e-06 5.95157e-19 1.2938e-06 6.57561e-19 1.78922e-33)
(8.70274e-06 -6.33767e-06 -1.30484e-20 -1.57769e-06 7.27917e-21 0)
(9.88007e-06 -4.85885e-06 1.52255e-20 -2.91717e-06 -2.91334e-21 0)
(1.05463e-05 -3.74354e-06 3.91525e-21 -3.87457e-06 -2.78333e-21 0)
(1.08658e-05 -2.842e-06 -1.65361e-20 -4.39997e-06 1.20208e-21 0)
(1.09739e-05 -2.13949e-06 -1.79493e-21 -4.73767e-06 1.95639e-21 0)
(1.09627e-05 -1.56715e-06 -1.50063e-20 -4.92025e-06 -8.05252e-21 0)
(1.08636e-05 -1.11258e-06 1.03032e-20 -5.01319e-06 4.81498e-21 0)
(1.07348e-05 -7.34409e-07 -5.30185e-21 -5.04712e-06 -6.03761e-21 0)
(1.05467e-05 -4.19847e-07 0 -5.05172e-06 0 0)
(8.46509e-06 -9.22e-06 5.5581e-19 4.49587e-07 7.2142e-19 9.78446e-35)
(1.04226e-05 -6.54618e-06 0 -2.20978e-06 0 0)
(1.12073e-05 -4.67077e-06 1.21767e-20 -3.29499e-06 5.80443e-21 0)
(1.1579e-05 -3.33102e-06 -2.08956e-20 -4.09185e-06 -1.11417e-20 0)
(1.16714e-05 -2.30125e-06 -8.88052e-21 -4.49003e-06 -5.35516e-21 0)
(1.15994e-05 -1.53511e-06 6.17427e-21 -4.73738e-06 6.29806e-21 0)
(1.14428e-05 -9.34562e-07 6.92155e-21 -4.84932e-06 4.63848e-21 0)
(1.12301e-05 -4.78769e-07 1.62806e-20 -4.89891e-06 9.5021e-21 0)
(1.09911e-05 -1.08869e-07 0 -4.88237e-06 0 0)
(1.07381e-05 1.86901e-07 0 -4.88999e-06 0 0)
(1.09163e-05 -9.78223e-06 5.39132e-19 -7.2832e-07 8.06866e-19 0)
(1.22003e-05 -6.51537e-06 0 -2.90628e-06 0 0)
(1.24742e-05 -4.3399e-06 1.16076e-20 -3.63294e-06 6.01028e-21 0)
(1.24861e-05 -2.82566e-06 -3.49108e-21 -4.19226e-06 1.22648e-21 0)
(1.23127e-05 -1.7082e-06 -1.71063e-22 -4.4255e-06 7.57045e-23 0)
(1.20369e-05 -9.06273e-07 -5.75701e-21 -4.55598e-06 -5.9607e-21 0)
(1.17225e-05 -3.01298e-07 7.87731e-21 -4.58306e-06 3.64562e-21 0)
(1.13869e-05 1.39978e-07 -5.84331e-21 -4.57772e-06 -4.31584e-21 0)
(1.10469e-05 4.83491e-07 -4.76677e-22 -4.51439e-06 8.09996e-22 0)
(1.07187e-05 7.62502e-07 -1.23659e-21 -4.50812e-06 -5.32962e-22 0)
(1.35919e-05 -9.87767e-06 5.1188e-19 -2.19346e-06 9.26122e-19 -5.92235e-35)
(1.39598e-05 -6.2685e-06 6.62176e-21 -3.60043e-06 -6.80463e-22 0)
(1.36549e-05 -3.887e-06 -5.30181e-21 -3.91096e-06 -2.9991e-21 0)
(1.32593e-05 -2.25977e-06 -3.37131e-21 -4.17658e-06 6.51847e-22 0)
(1.27878e-05 -1.10243e-06 6.01226e-21 -4.21579e-06 5.81727e-21 0)
(1.22934e-05 -2.97115e-07 -7.24651e-21 -4.21331e-06 -4.79345e-21 0)
(1.18144e-05 2.86712e-07 -6.26013e-21 -4.15103e-06 -4.45694e-21 0)
(1.13582e-05 6.97476e-07 -1.39521e-20 -4.0901e-06 -1.02112e-20 0)
(1.09237e-05 1.00055e-06 -1.99523e-21 -3.98892e-06 -2.43964e-21 0)
(1.05307e-05 1.24714e-06 3.41441e-21 -3.96462e-06 3.02183e-21 0)
(1.63863e-05 -9.53738e-06 4.75385e-19 -3.92367e-06 1.03804e-18 -1.21323e-33)
(1.56656e-05 -5.78161e-06 3.47317e-25 -4.34705e-06 1.69388e-26 0)
(1.47472e-05 -3.30787e-06 -1.71774e-20 -4.15415e-06 -8.42731e-21 0)
(1.3894e-05 -1.65177e-06 1.56824e-21 -4.06514e-06 -5.7889e-23 0)
(1.30996e-05 -5.11399e-07 -2.19729e-21 -3.87797e-06 2.22884e-22 0)
(1.23755e-05 2.53414e-07 5.21169e-21 -3.72812e-06 4.81905e-21 0)
(1.17325e-05 7.84689e-07 -5.87865e-22 -3.57429e-06 1.69923e-22 0)
(1.11609e-05 1.14277e-06 5.50856e-21 -3.4601e-06 3.68435e-21 0)
(1.06447e-05 1.38936e-06 -1.1813e-21 -3.33198e-06 -2.54207e-21 0)
(1.01957e-05 1.59014e-06 -2.17705e-21 -3.2934e-06 -1.75977e-21 0)
(1.89929e-05 -8.86411e-06 3.69153e-19 -5.59117e-06 1.03105e-18 -1.34644e-33)
(1.73471e-05 -4.9594e-06 3.17262e-25 -5.09594e-06 6.7188e-26 0)
(1.57387e-05 -2.56962e-06 -1.72935e-25 -4.33267e-06 -2.77641e-26 0)
(1.43909e-05 -9.91255e-07 1.38679e-21 -3.84387e-06 1.70621e-22 0)
(1.3256e-05 4.79548e-08 -7.43994e-21 -3.41858e-06 -4.53239e-21 0)
(1.23012e-05 7.16181e-07 8.51296e-23 -3.11997e-06 -5.70401e-25 0)
(1.15024e-05 1.15735e-06 5.53432e-21 -2.88408e-06 3.75324e-21 0)
(1.08277e-05 1.43914e-06 1.17636e-20 -2.7264e-06 8.61362e-21 0)
(1.02447e-05 1.61539e-06 2.13081e-21 -2.58501e-06 1.56539e-21 0)
(9.75141e-06 1.75932e-06 -3.71879e-21 -2.53849e-06 -2.93214e-21 0)
(2.13758e-05 -7.47055e-06 2.53255e-19 -7.05884e-06 8.34573e-19 -2.64227e-33)
(1.88578e-05 -3.73295e-06 4.97417e-21 -5.69426e-06 1.9681e-21 0)
(1.65072e-05 -1.62412e-06 5.26658e-21 -4.33034e-06 2.4189e-21 0)
(1.46704e-05 -2.81196e-07 -1.13711e-21 -3.45642e-06 -3.34022e-22 0)
(1.32168e-05 5.49939e-07 5.3756e-21 -2.8203e-06 3.60465e-21 0)
(1.20619e-05 1.05483e-06 -4.94514e-21 -2.40418e-06 -3.41821e-21 0)
(1.11383e-05 1.36652e-06 1.40999e-21 -2.11537e-06 9.2929e-23 0)
(1.03869e-05 1.55052e-06 -4.41475e-21 -1.93692e-06 -2.89881e-21 0)
(9.7604e-06 1.64794e-06 -3.06976e-22 -1.80163e-06 3.67529e-23 0)
(9.23829e-06 1.72948e-06 -2.2373e-21 -1.7575e-06 -1.46252e-21 0)
(2.36557e-05 -5.42693e-06 1.19298e-19 -8.21632e-06 4.70746e-19 -7.48106e-35)
(2.00781e-05 -2.19246e-06 -1.32873e-20 -5.92729e-06 -4.81675e-21 0)
(1.69711e-05 -5.25702e-07 1.03366e-22 -3.99453e-06 5.63807e-23 0)
(1.47029e-05 3.99923e-07 1.662e-21 -2.83329e-06 8.09998e-22 0)
(1.29948e-05 9.22777e-07 1.22796e-20 -2.07365e-06 6.14032e-21 0)
(1.17011e-05 1.21081e-06 -7.26589e-22 -1.61222e-06 -2.19356e-22 0)
(1.07018e-05 1.37141e-06 1.80954e-26 -1.32329e-06 3.59156e-27 0)
(9.91081e-06 1.45293e-06 -4.31791e-21 -1.15946e-06 -2.28161e-21 0)
(9.26783e-06 1.47818e-06 1.05198e-22 -1.05339e-06 4.50124e-24 0)
(8.7343e-06 1.50369e-06 3.2353e-22 -1.02348e-06 1.59191e-22 0)
(2.56092e-05 -2.30727e-06 -1.22062e-20 -9.08559e-06 -2.08908e-19 -4.92876e-34)
(2.06503e-05 -3.07002e-07 -1.46363e-20 -5.54056e-06 -5.98644e-21 0)
(1.68861e-05 5.49549e-07 1.52359e-21 -3.1945e-06 1.31824e-21 0)
(1.43189e-05 8.55282e-07 1.44772e-21 -1.91516e-06 1.08054e-21 0)
(1.25247e-05 1.00694e-06 -6.03314e-22 -1.20647e-06 -3.66029e-22 0)
(1.1213e-05 1.0646e-06 4.77925e-21 -8.16554e-07 1.7486e-21 0)
(1.02222e-05 1.0891e-06 2.62784e-22 -6.00424e-07 7.89505e-23 0)
(9.444e-06 1.09099e-06 7.71231e-21 -4.92094e-07 2.95301e-21 0)
(8.81563e-06 1.07171e-06 1.70273e-21 -4.34273e-07 6.58649e-22 0)
(8.2873e-06 1.06271e-06 9.53235e-22 -4.26113e-07 3.84213e-22 0)
(2.74813e-05 2.12009e-06 -1.50373e-20 -8.59973e-06 -5.91313e-19 -2.57631e-33)
(2.01281e-05 2.49021e-06 -1.17755e-21 -3.63583e-06 -1.84767e-21 0)
(1.62026e-05 1.55587e-06 5.07926e-21 -1.68229e-06 2.17042e-21 0)
(1.37366e-05 1.0549e-06 2.62536e-22 -7.54701e-07 3.50995e-22 0)
(1.20752e-05 8.11234e-07 9.05106e-27 -3.78738e-07 8.68865e-27 0)
(1.08582e-05 7.04946e-07 4.85145e-21 -1.93433e-07 8.69694e-22 0)
(9.9306e-06 6.57846e-07 7.61079e-23 -1.13279e-07 2.26939e-23 0)
(9.18843e-06 6.36842e-07 3.71691e-21 -8.0566e-08 7.00341e-22 0)
(8.58073e-06 6.16523e-07 -4.15381e-23 -6.97138e-08 -2.82166e-24 0)
(8.05575e-06 6.04241e-07 -6.25676e-23 -7.43732e-08 -1.28353e-23 0)
(-2.74481e-08 2.00533e-08 3.19433e-20 -7.12436e-09 2.82715e-20 1.79319e-34)
(3.1268e-08 -6.79946e-08 -2.77878e-22 -1.11432e-08 2.33683e-20 1.39075e-36)
(3.1867e-07 -2.15314e-07 -3.54718e-21 -1.50049e-07 1.23401e-20 1.7425e-35)
(7.71281e-07 -3.33241e-07 -1.9433e-24 -3.56929e-07 1.61122e-20 0)
(1.29244e-06 -4.06005e-07 -4.75196e-22 -5.86801e-07 1.03573e-20 -1.40215e-36)
(1.8371e-06 -4.47523e-07 -4.86473e-21 -8.23219e-07 1.53673e-20 2.92729e-35)
(2.36916e-06 -4.63891e-07 1.09589e-21 -1.05147e-06 2.10425e-20 1.39539e-36)
(2.87643e-06 -4.6528e-07 -3.22827e-21 -1.26718e-06 1.75608e-20 2.64457e-35)
(3.34193e-06 -4.53016e-07 2.61376e-21 -1.46587e-06 1.7429e-20 -1.06129e-35)
(3.77336e-06 -4.43457e-07 5.00205e-21 -1.64507e-06 8.37132e-21 -1.54832e-35)
(5.40694e-08 -7.34589e-08 3.26191e-20 -2.66749e-08 8.13877e-21 5.21734e-35)
(3.38945e-07 -3.99552e-07 3.92661e-21 -5.63818e-09 4.30806e-21 0)
(8.57694e-07 -7.59258e-07 -3.6749e-21 -2.21351e-07 -3.69154e-21 0)
(1.43419e-06 -1.03418e-06 3.54746e-23 -5.12309e-07 -3.05633e-21 0)
(2.0125e-06 -1.20325e-06 0 -8.02194e-07 0 0)
(2.56091e-06 -1.2981e-06 -5.57682e-21 -1.07538e-06 -8.27927e-22 0)
(3.06629e-06 -1.33233e-06 9.39666e-22 -1.32134e-06 4.8007e-21 0)
(3.53091e-06 -1.33008e-06 7.01628e-23 -1.54169e-06 2.58291e-22 0)
(3.94041e-06 -1.29336e-06 -3.00456e-21 -1.73551e-06 -8.73072e-21 0)
(4.32064e-06 -1.26408e-06 2.20323e-21 -1.90033e-06 3.42279e-22 0)
(8.57077e-08 -3.63271e-07 3.85506e-20 1.03768e-07 7.55437e-21 -2.34854e-36)
(6.30614e-07 -9.97934e-07 4.01594e-21 3.19696e-08 4.2554e-21 0)
(1.36254e-06 -1.44332e-06 4.20072e-21 -3.03235e-07 8.79989e-22 0)
(2.08061e-06 -1.74188e-06 2.15833e-22 -7.19124e-07 -2.94754e-21 0)
(2.74152e-06 -1.90642e-06 0 -1.10238e-06 0 0)
(3.32315e-06 -1.98387e-06 -6.24091e-21 -1.43904e-06 -1.62917e-21 0)
(3.82861e-06 -1.99335e-06 -8.51294e-21 -1.7222e-06 -2.38415e-21 0)
(4.27312e-06 -1.96163e-06 5.63176e-21 -1.96087e-06 3.44367e-21 0)
(4.64268e-06 -1.89227e-06 3.41661e-23 -2.15564e-06 1.09971e-22 0)
(4.98751e-06 -1.83396e-06 -5.06562e-21 -2.3141e-06 -3.20283e-21 0)
(1.33615e-07 -8.17095e-07 6.84366e-20 4.13061e-07 1.51163e-20 -5.28325e-35)
(1.02985e-06 -1.71472e-06 9.89497e-22 7.11073e-08 -3.57328e-21 0)
(1.95924e-06 -2.18293e-06 4.61604e-21 -4.13345e-07 9.02558e-22 0)
(2.80601e-06 -2.44578e-06 0 -9.52215e-07 0 0)
(3.53981e-06 -2.55465e-06 -7.86795e-21 -1.42157e-06 2.92999e-21 0)
(4.15371e-06 -2.57502e-06 9.35265e-23 -1.81933e-06 7.25374e-21 0)
(4.66166e-06 -2.53129e-06 -3.90556e-22 -2.14058e-06 -3.897e-21 0)
(5.09079e-06 -2.45025e-06 -1.12555e-21 -2.40116e-06 -6.01551e-21 0)
(5.42548e-06 -2.33746e-06 2.57017e-21 -2.60255e-06 8.34069e-22 0)
(5.74086e-06 -2.24213e-06 4.79775e-21 -2.76103e-06 1.79966e-21 0)
(2.56926e-07 -1.45801e-06 7.91399e-20 8.42998e-07 3.82799e-20 1.80356e-34)
(1.59148e-06 -2.49474e-06 -8.10165e-21 6.1833e-08 5.42758e-21 0)
(2.71872e-06 -2.91558e-06 -4.91454e-21 -6.24953e-07 -1.4459e-21 0)
(3.6753e-06 -3.09091e-06 -1.32626e-21 -1.29787e-06 5.31655e-21 0)
(4.45749e-06 -3.10266e-06 -5.20602e-23 -1.84548e-06 3.27974e-22 0)
(5.08324e-06 -3.03447e-06 7.57933e-21 -2.29208e-06 -2.03341e-21 0)
(5.57848e-06 -2.91486e-06 3.30162e-21 -2.63945e-06 8.66615e-22 0)
(5.98117e-06 -2.76825e-06 0 -2.91183e-06 0 0)
(6.27437e-06 -2.6034e-06 -3.52441e-21 -3.11194e-06 -4.63828e-21 0)
(6.55513e-06 -2.46322e-06 1.40638e-21 -3.26436e-06 3.41307e-22 0)
(5.24727e-07 -2.29963e-06 1.48098e-19 1.32583e-06 6.27703e-20 -3.33662e-34)
(2.33444e-06 -3.28516e-06 3.30441e-21 2.03032e-09 -6.4407e-21 0)
(3.64846e-06 -3.57444e-06 -4.05864e-21 -9.1523e-07 -4.37754e-21 0)
(4.68739e-06 -3.61757e-06 8.92238e-22 -1.71953e-06 -2.47547e-21 0)
(5.48758e-06 -3.50629e-06 8.58608e-21 -2.32919e-06 2.87286e-21 0)
(6.09871e-06 -3.33392e-06 -8.28479e-21 -2.80722e-06 9.22253e-22 0)
(6.56063e-06 -3.12884e-06 -9.50686e-24 -3.16562e-06 2.1986e-22 0)
(6.92026e-06 -2.91098e-06 -6.4529e-21 -3.4371e-06 -4.44438e-21 0)
(7.16149e-06 -2.69254e-06 1.35162e-23 -3.62784e-06 8.62961e-23 0)
(7.39766e-06 -2.50524e-06 -7.04782e-21 -3.76694e-06 -3.22106e-21 0)
(1.01369e-06 -3.33376e-06 2.68878e-19 1.7604e-06 1.4381e-19 -4.0187e-34)
(3.26428e-06 -4.05471e-06 1.82913e-22 -1.27906e-07 -2.7701e-22 0)
(4.73107e-06 -4.12045e-06 -1.3409e-25 -1.2761e-06 2.28843e-25 0)
(5.81533e-06 -3.98702e-06 -8.76986e-21 -2.19982e-06 -6.14563e-21 0)
(6.59997e-06 -3.73227e-06 -1.49045e-21 -2.85343e-06 3.98152e-21 0)
(7.16768e-06 -3.44726e-06 -8.03857e-21 -3.34495e-06 -3.27081e-21 0)
(7.57366e-06 -3.15436e-06 1.44517e-20 -3.69802e-06 6.44111e-21 0)
(7.87143e-06 -2.86636e-06 -1.93008e-24 -3.95515e-06 1.72662e-22 0)
(8.04934e-06 -2.59793e-06 2.84626e-21 -4.12673e-06 -1.22167e-23 0)
(8.22829e-06 -2.36502e-06 -3.85556e-21 -4.24473e-06 -1.83531e-21 0)
(1.79502e-06 -4.51932e-06 4.1797e-19 2.04723e-06 2.61561e-19 -8.71093e-34)
(4.37816e-06 -4.77305e-06 4.71078e-21 -3.38989e-07 -5.62632e-21 0)
(5.9318e-06 -4.52847e-06 -1.82001e-21 -1.67668e-06 2.42352e-21 0)
(7.01205e-06 -4.17902e-06 1.11333e-21 -2.69019e-06 -1.73289e-21 0)
(7.74413e-06 -3.76667e-06 9.93672e-26 -3.36353e-06 -1.94671e-25 0)
(8.23954e-06 -3.36744e-06 9.33302e-21 -3.84914e-06 7.8937e-22 0)
(8.56864e-06 -2.99104e-06 7.04035e-22 -4.18238e-06 -3.03707e-21 0)
(8.78734e-06 -2.64064e-06 -2.37339e-22 -4.41264e-06 2.49929e-21 0)
(8.89393e-06 -2.3308e-06 3.0678e-23 -4.5606e-06 1.24816e-21 0)
(9.00277e-06 -2.05822e-06 2.94521e-21 -4.64911e-06 2.75245e-21 0)
(2.92243e-06 -5.79296e-06 5.39779e-19 2.10351e-06 4.26209e-19 1.23593e-33)
(5.66481e-06 -5.41242e-06 -1.52056e-21 -6.4197e-07 1.03155e-20 0)
(7.21298e-06 -4.78739e-06 -1.76033e-25 -2.09444e-06 1.84351e-25 0)
(8.22868e-06 -4.19206e-06 1.20711e-20 -3.15367e-06 2.83281e-21 0)
(8.86789e-06 -3.61402e-06 9.21943e-21 -3.81628e-06 4.60077e-21 0)
(9.26211e-06 -3.10451e-06 8.31956e-21 -4.27572e-06 4.15275e-21 0)
(9.4944e-06 -2.6527e-06 -9.14286e-22 -4.57326e-06 2.60978e-21 0)
(9.6182e-06 -2.25276e-06 -1.00205e-20 -4.76821e-06 -5.59702e-21 0)
(9.64765e-06 -1.91191e-06 6.15802e-21 -4.88513e-06 1.45789e-21 0)
(9.67796e-06 -1.60712e-06 2.76003e-21 -4.95197e-06 1.63962e-21 0)
(4.42427e-06 -7.05439e-06 6.42073e-19 1.8478e-06 5.94872e-19 1.85142e-34)
(7.11209e-06 -5.94585e-06 -3.05689e-21 -1.0545e-06 2.25124e-21 0)
(8.53852e-06 -4.8983e-06 -5.92539e-21 -2.5115e-06 -2.76017e-21 0)
(9.41732e-06 -4.04084e-06 2.56902e-20 -3.5549e-06 6.01548e-21 0)
(9.91881e-06 -3.29624e-06 1.57669e-22 -4.16945e-06 -1.78542e-22 0)
(1.01821e-05 -2.68364e-06 -8.18354e-21 -4.57881e-06 -4.64366e-21 0)
(1.02984e-05 -2.16746e-06 -8.77797e-21 -4.82682e-06 -1.38343e-21 0)
(1.03132e-05 -1.73225e-06 -3.30482e-21 -4.97186e-06 -1.97565e-21 0)
(1.02687e-05 -1.37911e-06 3.75425e-22 -5.06563e-06 -2.73196e-21 0)
(1.01946e-05 -1.07275e-06 1.6464e-21 -5.0739e-06 3.4556e-21 0)
(4.16183e-06 -4.11428e-07 3.89039e-21 -1.81175e-06 4.9285e-21 -1.60015e-37)
(4.50033e-06 -3.67129e-07 2.82393e-21 -1.95066e-06 -4.89376e-21 8.19617e-36)
(4.81124e-06 -3.28639e-07 -2.95642e-21 -2.07956e-06 -1.70444e-20 9.37085e-36)
(5.09081e-06 -2.93701e-07 -2.01718e-21 -2.19619e-06 -1.83469e-20 5.92829e-37)
(5.34299e-06 -2.61312e-07 -5.15685e-21 -2.3011e-06 -2.2291e-20 -4.49623e-35)
(5.56896e-06 -2.32318e-07 -8.19674e-22 -2.39566e-06 -2.48242e-20 0)
(5.77152e-06 -2.05732e-07 -8.86027e-22 -2.48027e-06 -2.84344e-20 0)
(5.95206e-06 -1.81756e-07 7.30937e-22 -2.55597e-06 -2.96164e-20 -8.91613e-37)
(6.11271e-06 -1.59777e-07 5.27803e-22 -2.62334e-06 -3.39701e-20 2.54376e-35)
(6.2547e-06 -1.39645e-07 2.5402e-21 -2.68305e-06 -3.29301e-20 -1.77285e-36)
(6.37944e-06 -1.20919e-07 3.53883e-21 -2.73558e-06 -3.75822e-20 8.78025e-35)
(6.4878e-06 -1.03331e-07 -2.38476e-21 -2.78135e-06 -4.17835e-20 -3.08793e-35)
(6.58056e-06 -8.65338e-08 3.68873e-21 -2.82066e-06 -4.11403e-20 9.68977e-35)
(6.65819e-06 -7.02791e-08 -6.33626e-21 -2.85373e-06 -5.06755e-20 2.00981e-36)
(6.72091e-06 -5.43597e-08 -3.6598e-22 -2.88065e-06 -4.38064e-20 -3.51546e-35)
(6.76907e-06 -3.87562e-08 -6.20777e-22 -2.90152e-06 -4.62503e-20 8.48415e-45)
(6.80249e-06 -2.36906e-08 -2.42491e-21 -2.9163e-06 -4.90616e-20 3.8792e-37)
(6.82245e-06 -1.0019e-08 1.46354e-21 -2.9252e-06 -4.49903e-20 -2.80575e-37)
(6.82884e-06 4.57576e-10 5.9998e-22 -2.92791e-06 -5.00853e-20 1.10895e-34)
(6.82663e-06 2.92154e-09 -1.09464e-19 -2.92397e-06 -5.54682e-20 2.59777e-34)
(4.63343e-06 -1.17706e-06 5.38933e-21 -2.04892e-06 6.62611e-21 0)
(4.88434e-06 -1.05942e-06 3.49469e-21 -2.15503e-06 9.5754e-22 0)
(5.12428e-06 -9.55841e-07 2.62825e-22 -2.25277e-06 -1.51424e-21 0)
(5.33948e-06 -8.59206e-07 7.93727e-21 -2.34248e-06 7.15602e-21 0)
(5.53764e-06 -7.68666e-07 -1.52575e-21 -2.42252e-06 -3.60302e-22 0)
(5.71652e-06 -6.86864e-07 -6.47214e-21 -2.49601e-06 -6.56061e-21 0)
(5.87941e-06 -6.1115e-07 3.30159e-21 -2.56195e-06 1.22119e-21 0)
(6.02605e-06 -5.42399e-07 0 -2.62188e-06 0 0)
(6.15839e-06 -4.78971e-07 1.5734e-21 -2.67579e-06 5.56975e-22 0)
(6.27679e-06 -4.20619e-07 3.23495e-21 -2.72438e-06 1.24613e-21 0)
(6.38245e-06 -3.66224e-07 9.7015e-21 -2.76786e-06 5.01053e-21 0)
(6.47584e-06 -3.15157e-07 4.37584e-23 -2.8066e-06 5.00548e-23 0)
(6.55768e-06 -2.66573e-07 1.26077e-21 -2.84074e-06 -9.78594e-22 0)
(6.62839e-06 -2.19891e-07 1.85065e-21 -2.87041e-06 2.11826e-21 0)
(6.68827e-06 -1.74651e-07 1.89857e-21 -2.89551e-06 2.17874e-21 0)
(6.73766e-06 -1.30835e-07 -1.88076e-21 -2.9158e-06 -2.16926e-21 0)
(6.77627e-06 -8.89686e-08 -1.89141e-21 -2.93058e-06 -2.19381e-21 0)
(6.80455e-06 -5.08729e-08 -3.79841e-21 -2.93866e-06 -4.43148e-21 0)
(6.82028e-06 -1.93072e-08 -2.87431e-23 -2.93724e-06 -3.1475e-23 0)
(6.82417e-06 -2.54893e-09 -1.01422e-19 -2.92184e-06 1.86375e-21 -2.22723e-34)
(5.22833e-06 -1.70354e-06 1.47449e-21 -2.43646e-06 2.0173e-21 0)
(5.38619e-06 -1.54322e-06 2.01169e-21 -2.49953e-06 7.17749e-22 0)
(5.54974e-06 -1.39943e-06 -4.67397e-21 -2.55251e-06 -5.8882e-21 0)
(5.69305e-06 -1.26594e-06 -4.1934e-22 -2.60279e-06 1.07515e-21 0)
(5.83042e-06 -1.13879e-06 8.52766e-21 -2.64568e-06 7.10117e-21 0)
(5.95489e-06 -1.02339e-06 -6.77389e-21 -2.68677e-06 -6.46919e-21 0)
(6.07154e-06 -9.15431e-07 -1.80318e-21 -2.72377e-06 -2.08937e-21 0)
(6.17792e-06 -8.16808e-07 3.44636e-21 -2.75869e-06 3.92187e-21 0)
(6.27623e-06 -7.25255e-07 1.68467e-23 -2.79104e-06 -2.5461e-21 0)
(6.36579e-06 -6.4074e-07 -3.64674e-21 -2.82144e-06 -4.10281e-21 0)
(6.44763e-06 -5.6187e-07 3.49443e-21 -2.84985e-06 3.91734e-21 0)
(6.52173e-06 -4.87963e-07 5.3997e-21 -2.87646e-06 6.05659e-21 0)
(6.58859e-06 -4.18002e-07 4.13166e-23 -2.90122e-06 4.55613e-23 0)
(6.6484e-06 -3.51281e-07 -1.84886e-21 -2.92398e-06 -2.08575e-21 0)
(6.70121e-06 -2.87176e-07 1.83025e-21 -2.94431e-06 2.07723e-21 0)
(6.74707e-06 -2.25451e-07 2.69808e-28 -2.96139e-06 3.00632e-28 0)
(6.785e-06 -1.66254e-07 -1.88567e-21 -2.97359e-06 -2.16708e-21 0)
(6.81454e-06 -1.10518e-07 2.54322e-22 -2.97824e-06 1.56525e-21 0)
(6.83088e-06 -5.99627e-08 -6.20588e-21 -2.96979e-06 -7.98335e-22 0)
(6.83364e-06 -1.6875e-08 -1.00315e-19 -2.94204e-06 -1.42512e-21 -1.65618e-37)
(5.91093e-06 -2.07517e-06 0 -2.85961e-06 0 0)
(5.97233e-06 -1.89149e-06 2.15069e-21 -2.88309e-06 7.83405e-22 0)
(6.05843e-06 -1.72214e-06 1.6833e-21 -2.89366e-06 1.92469e-21 0)
(6.12663e-06 -1.56767e-06 1.84743e-21 -2.90702e-06 2.14005e-21 0)
(6.20005e-06 -1.41734e-06 0 -2.91354e-06 0 0)
(6.26592e-06 -1.2809e-06 2.50289e-22 -2.92231e-06 -1.0804e-21 0)
(6.33223e-06 -1.15167e-06 -5.53043e-21 -2.92973e-06 -3.39642e-21 0)
(6.39394e-06 -1.03305e-06 -3.52874e-21 -2.93849e-06 -3.83686e-21 0)
(6.45397e-06 -9.22186e-07 -1.98449e-21 -2.94777e-06 -9.15855e-22 0)
(6.51044e-06 -8.19456e-07 -1.28846e-23 -2.95817e-06 2.45387e-21 0)
(6.56434e-06 -7.23347e-07 -1.7466e-21 -2.96949e-06 5.39269e-22 0)
(6.61504e-06 -6.33247e-07 3.65207e-21 -2.98176e-06 1.56606e-21 0)
(6.66279e-06 -5.48075e-07 3.46808e-21 -2.99471e-06 1.71846e-22 0)
(6.70736e-06 -4.67041e-07 8.3414e-23 -3.00797e-06 1.312e-21 0)
(6.74844e-06 -3.89356e-07 1.48547e-22 -3.02078e-06 1.39086e-21 0)
(6.78568e-06 -3.14425e-07 -1.86436e-21 -3.03193e-06 -2.09903e-21 0)
(6.81742e-06 -2.41861e-07 -3.98184e-28 -3.03924e-06 -4.48544e-28 0)
(6.8428e-06 -1.71192e-07 3.97457e-21 -3.03955e-06 5.83536e-21 0)
(6.85572e-06 -1.03025e-07 -2.00987e-22 -3.02664e-06 -1.53464e-21 0)
(6.85636e-06 -3.24366e-08 -1.08895e-19 -2.99416e-06 -9.7477e-21 3.189e-34)
(6.65145e-06 -2.26778e-06 1.6358e-22 -3.33259e-06 2.6874e-21 0)
(6.6128e-06 -2.08331e-06 -2.33695e-21 -3.31553e-06 -1.02107e-21 0)
(6.62104e-06 -1.90345e-06 -5.87636e-21 -3.28013e-06 -4.79006e-21 0)
(6.61212e-06 -1.74507e-06 3.86908e-21 -3.25501e-06 2.6341e-21 0)
(6.62051e-06 -1.58597e-06 1.0069e-20 -3.22289e-06 6.6148e-21 0)
(6.62552e-06 -1.4422e-06 -1.84933e-21 -3.19684e-06 -1.93429e-21 0)
(6.63929e-06 -1.30393e-06 0 -3.17203e-06 0 0)
(6.65363e-06 -1.17634e-06 1.80104e-21 -3.1517e-06 1.87557e-21 0)
(6.67253e-06 -1.05611e-06 -5.79878e-21 -3.13501e-06 -2.47714e-21 0)
(6.69289e-06 -9.4409e-07 -3.76107e-21 -3.12249e-06 -2.77271e-21 0)
(6.71568e-06 -8.38867e-07 2.12243e-22 -3.11393e-06 -2.14067e-21 0)
(6.7397e-06 -7.39963e-07 -1.89403e-21 -3.10918e-06 -3.20649e-21 0)
(6.76495e-06 -6.46355e-07 -1.95697e-22 -3.10787e-06 3.36804e-21 0)
(6.79078e-06 -5.57179e-07 3.7031e-21 -3.10943e-06 5.22503e-21 0)
(6.81657e-06 -4.71478e-07 1.80461e-21 -3.11292e-06 7.69042e-22 0)
(6.84161e-06 -3.88185e-07 -6.68745e-23 -3.11692e-06 -1.30294e-21 0)
(6.86391e-06 -3.06342e-07 3.49829e-21 -3.11907e-06 1.43826e-21 0)
(6.8824e-06 -2.23913e-07 1.72064e-21 -3.11621e-06 6.90287e-22 0)
(6.89087e-06 -1.40826e-07 7.0596e-21 -3.10249e-06 5.57602e-21 0)
(6.8899e-06 -4.61273e-08 -9.55157e-20 -3.07208e-06 3.72203e-21 -3.12687e-34)
(7.41775e-06 -2.29133e-06 1.37721e-21 -3.80218e-06 1.89323e-21 0)
(7.27813e-06 -2.12983e-06 3.31393e-23 -3.75057e-06 7.27083e-23 0)
(7.21091e-06 -1.95387e-06 -4.24871e-21 -3.6719e-06 -2.94507e-21 0)
(7.12497e-06 -1.80718e-06 -1.0203e-20 -3.61132e-06 -7.63766e-21 0)
(7.06952e-06 -1.65226e-06 3.98626e-21 -3.54347e-06 2.71625e-21 0)
(7.01374e-06 -1.51282e-06 3.75118e-21 -3.48431e-06 3.72641e-21 0)
(6.97482e-06 -1.37623e-06 -1.83792e-21 -3.42887e-06 -1.82859e-21 0)
(6.94113e-06 -1.24915e-06 -2.95984e-22 -3.38017e-06 8.19969e-22 0)
(6.91773e-06 -1.12828e-06 8.06634e-21 -3.33776e-06 4.80485e-21 0)
(6.90041e-06 -1.01477e-06 -5.38982e-21 -3.30195e-06 -5.50288e-21 0)
(6.89014e-06 -9.07526e-07 -1.91721e-21 -3.27269e-06 -1.98192e-21 0)
(6.88525e-06 -8.06183e-07 5.20966e-21 -3.24976e-06 7.72666e-21 0)
(6.88548e-06 -7.09883e-07 -7.61965e-21 -3.23284e-06 -2.26758e-21 0)
(6.88993e-06 -6.17737e-07 -5.42662e-21 -3.22132e-06 -5.80138e-21 0)
(6.89775e-06 -5.28697e-07 1.45293e-23 -3.21431e-06 -1.17187e-21 0)
(6.90802e-06 -4.41294e-07 -7.31471e-21 -3.21048e-06 -5.59744e-21 0)
(6.91879e-06 -3.54122e-07 -5.32389e-23 -3.20771e-06 -5.00701e-23 0)
(6.9289e-06 -2.63807e-07 7.18818e-21 -3.20332e-06 6.87311e-21 0)
(6.9332e-06 -1.69894e-07 1.1186e-22 -3.19261e-06 1.4186e-21 0)
(6.93191e-06 -5.67961e-08 -9.54067e-20 -3.17063e-06 -1.18481e-21 2.23543e-36)
(8.17263e-06 -2.14575e-06 -1.44311e-21 -4.24415e-06 -1.85234e-21 0)
(7.93648e-06 -2.03295e-06 1.99484e-21 -4.16745e-06 1.82168e-21 0)
(7.80109e-06 -1.87592e-06 2.4635e-21 -4.05285e-06 1.28662e-21 0)
(7.6418e-06 -1.75572e-06 -1.94625e-21 -3.96106e-06 -1.82581e-21 0)
(7.52627e-06 -1.61884e-06 -4.61278e-21 -3.86247e-06 -2.30343e-21 0)
(7.41218e-06 -1.49485e-06 2.25193e-21 -3.77227e-06 1.11954e-21 0)
(7.32178e-06 -1.37042e-06 6.37265e-21 -3.68785e-06 4.10019e-21 0)
(7.24097e-06 -1.25244e-06 -1.02527e-20 -3.6114e-06 -6.88386e-21 0)
(7.17531e-06 -1.1387e-06 -6.3243e-21 -3.54352e-06 -4.16577e-21 0)
(7.12016e-06 -1.03047e-06 9.9262e-21 -3.4844e-06 6.72176e-21 0)
(7.07616e-06 -9.2732e-07 -4.04921e-21 -3.43423e-06 -1.93572e-21 0)
(7.04143e-06 -8.29081e-07 5.36202e-21 -3.39281e-06 5.49536e-21 0)
(7.01545e-06 -7.35186e-07 5.77607e-21 -3.35988e-06 3.76291e-21 0)
(6.99712e-06 -6.44792e-07 -3.36858e-21 -3.33494e-06 -4.69417e-21 0)
(6.98551e-06 -5.56842e-07 -2.2031e-21 -3.31726e-06 1.14147e-21 0)
(6.97958e-06 -4.69577e-07 1.04221e-22 -3.30576e-06 9.61699e-23 0)
(6.97776e-06 -3.81291e-07 -8.91233e-21 -3.29886e-06 -7.41723e-21 0)
(6.97878e-06 -2.87625e-07 1.76918e-21 -3.2946e-06 1.98845e-21 0)
(6.97942e-06 -1.87953e-07 3.50858e-21 -3.28991e-06 2.74501e-21 0)
(6.97878e-06 -6.36554e-08 -9.62977e-20 -3.28103e-06 -1.88782e-21 9.02811e-37)
(8.87674e-06 -1.84178e-06 1.7232e-23 -4.61986e-06 5.90083e-23 0)
(8.55527e-06 -1.80278e-06 -2.06245e-21 -4.53036e-06 -1.81472e-21 0)
(8.36321e-06 -1.68094e-06 4.43825e-22 -4.39495e-06 -4.80861e-22 0)
(8.13857e-06 -1.59718e-06 0 -4.27744e-06 0 0)
(7.96901e-06 -1.49068e-06 0 -4.15763e-06 0 0)
(7.80334e-06 -1.39083e-06 -6.17717e-21 -4.04344e-06 -4.83714e-21 0)
(7.66547e-06 -1.28817e-06 5.4949e-21 -3.93635e-06 5.12598e-21 0)
(7.54118e-06 -1.18767e-06 1.15859e-20 -3.83689e-06 1.01069e-20 0)
(7.4352e-06 -1.08893e-06 -8.76298e-21 -3.74665e-06 -8.41972e-21 0)
(7.34343e-06 -9.92933e-07 -7.67736e-21 -3.66603e-06 -6.53911e-21 0)
(7.26605e-06 -9.00011e-07 3.53997e-21 -3.59567e-06 3.52214e-21 0)
(7.20136e-06 -8.10259e-07 -3.47491e-22 -3.53576e-06 6.98141e-22 0)
(7.14864e-06 -7.23502e-07 6.06158e-21 -3.48637e-06 2.9944e-21 0)
(7.10677e-06 -6.39114e-07 9.43979e-21 -3.44735e-06 6.52914e-21 0)
(7.07489e-06 -5.56182e-07 1.28817e-22 -3.41836e-06 1.17737e-22 0)
(7.05194e-06 -4.72883e-07 4.3002e-21 -3.39883e-06 -1.17522e-21 0)
(7.03697e-06 -3.87416e-07 0 -3.38798e-06 0 0)
(7.02863e-06 -2.94882e-07 -3.61724e-21 -3.38474e-06 -1.59651e-21 0)
(7.02617e-06 -1.94635e-07 1.74036e-21 -3.38795e-06 7.35962e-22 0)
(7.02708e-06 -6.65255e-08 -9.2107e-20 -3.39532e-06 -4.34469e-22 2.36174e-36)
(9.50015e-06 -1.4088e-06 -1.34652e-23 -4.90205e-06 -5.16001e-23 0)
(9.10549e-06 -1.45714e-06 2.56155e-21 -4.80853e-06 1.53038e-21 0)
(8.87376e-06 -1.39561e-06 -2.54767e-21 -4.68353e-06 -1.5512e-21 0)
(8.59862e-06 -1.35545e-06 -2.50747e-21 -4.55017e-06 -1.51078e-21 0)
(8.38027e-06 -1.29207e-06 6.88325e-21 -4.41675e-06 4.69491e-21 0)
(8.17058e-06 -1.22233e-06 4.90432e-21 -4.28287e-06 2.92717e-21 0)
(7.98932e-06 -1.1464e-06 -6.51319e-21 -4.15584e-06 -4.35889e-21 0)
(7.82613e-06 -1.06714e-06 8.67971e-22 -4.03644e-06 -9.16509e-22 0)
(7.6834e-06 -9.8675e-07 1.47814e-21 -3.9268e-06 1.37137e-21 0)
(7.55812e-06 -9.06426e-07 -8.05262e-22 -3.82776e-06 1.0808e-21 0)
(7.44977e-06 -8.272e-07 -6.61426e-21 -3.74007e-06 -3.62567e-21 0)
(7.35688e-06 -7.49514e-07 5.91605e-23 -3.6642e-06 5.70938e-23 0)
(7.2786e-06 -6.735e-07 -3.02255e-21 -3.60047e-06 -4.11731e-21 0)
(7.21389e-06 -5.9876e-07 -1.02169e-22 -3.54906e-06 -9.34858e-23 0)
(7.16207e-06 -5.24542e-07 3.86387e-21 -3.51011e-06 1.88051e-21 0)
(7.12215e-06 -4.49106e-07 -7.7038e-23 -3.48361e-06 -6.73401e-23 0)
(7.09406e-06 -3.7068e-07 4.70667e-21 -3.46973e-06 6.31694e-21 0)
(7.07631e-06 -2.84258e-07 -1.77902e-21 -3.46842e-06 -7.955e-22 0)
(7.07102e-06 -1.89173e-07 -8.33049e-21 -3.48062e-06 -8.24717e-21 0)
(7.07371e-06 -6.51683e-08 -1.014e-19 -3.5057e-06 -6.89728e-21 1.75807e-34)
(9.99715e-06 -8.5282e-07 -3.26808e-22 -5.08647e-06 -1.64701e-22 0)
(9.5879e-06 -9.59467e-07 -2.7471e-21 -4.97188e-06 -1.61872e-21 0)
(9.32286e-06 -9.8415e-07 2.22914e-21 -4.8853e-06 1.75024e-21 0)
(9.02818e-06 -9.93856e-07 -5.83249e-21 -4.76366e-06 -5.31296e-21 0)
(8.77023e-06 -9.8853e-07 -6.00191e-21 -4.63722e-06 -4.99053e-21 0)
(8.52645e-06 -9.65758e-07 3.54956e-21 -4.50195e-06 3.66803e-21 0)
(8.3061e-06 -9.30838e-07 3.0845e-21 -4.36581e-06 3.68134e-21 0)
(8.10617e-06 -8.85785e-07 5.37943e-21 -4.23296e-06 4.8503e-21 0)
(7.92768e-06 -8.3373e-07 -6.31365e-21 -4.10683e-06 -4.71408e-21 0)
(7.76915e-06 -7.77002e-07 1.53173e-23 -3.99005e-06 1.29383e-22 0)
(7.62996e-06 -7.17482e-07 -7.60081e-23 -3.88437e-06 -3.85768e-22 0)
(7.50886e-06 -6.56507e-07 -4.9359e-21 -3.79113e-06 -4.82728e-21 0)
(7.40499e-06 -5.94879e-07 0 -3.71129e-06 0 0)
(7.31731e-06 -5.32789e-07 -4.47691e-21 -3.64564e-06 -1.45351e-21 0)
(7.24533e-06 -4.6993e-07 -2.08074e-23 -3.59491e-06 -8.91224e-23 0)
(7.18814e-06 -4.04955e-07 -5.77847e-21 -3.55981e-06 -2.81186e-21 0)
(7.14651e-06 -3.36358e-07 1.58156e-21 -3.54153e-06 1.66943e-21 0)
(7.11894e-06 -2.59508e-07 3.64451e-21 -3.54118e-06 1.66659e-21 0)
(7.1106e-06 -1.73811e-07 4.53431e-23 -3.56192e-06 -3.7045e-24 0)
(7.11527e-06 -6.02229e-08 -9.90019e-20 -3.60498e-06 -3.06405e-21 7.34923e-37)
(1.02414e-05 -3.93878e-07 2.82435e-21 -5.10342e-06 2.48499e-21 0)
(9.86818e-06 -4.50645e-07 -2.61461e-21 -5.00688e-06 -1.64316e-21 0)
(9.58136e-06 -5.56013e-07 -1.51385e-21 -4.94586e-06 -1.2566e-21 0)
(9.28866e-06 -6.05714e-07 2.51217e-21 -4.84697e-06 1.53519e-21 0)
(9.01764e-06 -6.40645e-07 -4.96732e-21 -4.73126e-06 -2.25646e-21 0)
(8.7605e-06 -6.56203e-07 -3.34958e-21 -4.60448e-06 -1.5815e-21 0)
(8.5234e-06 -6.56495e-07 -4.1732e-21 -4.47187e-06 -3.02809e-21 0)
(8.30481e-06 -6.442e-07 5.04441e-22 -4.33904e-06 -3.49387e-22 0)
(8.10655e-06 -6.21733e-07 8.43719e-21 -4.20998e-06 5.37698e-21 0)
(7.92778e-06 -5.91629e-07 -2.89936e-22 -4.08803e-06 -3.11956e-22 0)
(7.76854e-06 -5.55854e-07 4.51009e-21 -3.97571e-06 2.55357e-21 0)
(7.62801e-06 -5.16062e-07 -2.22292e-22 -3.87499e-06 -2.52026e-22 0)
(7.50574e-06 -4.73386e-07 1.64677e-35 -3.78748e-06 1.67329e-35 0)
(7.40097e-06 -4.28415e-07 -1.98296e-21 -3.71454e-06 -9.8753e-22 0)
(7.31364e-06 -3.81239e-07 1.93847e-21 -3.6576e-06 9.43424e-22 0)
(7.24303e-06 -3.31044e-07 -8.69069e-23 -3.61805e-06 -1.25672e-22 0)
(7.1908e-06 -2.76764e-07 3.0981e-22 -3.59811e-06 -8.17424e-22 0)
(7.15537e-06 -2.14802e-07 1.74847e-23 -3.59983e-06 5.83298e-23 0)
(7.14434e-06 -1.44742e-07 -1.79708e-23 -3.6283e-06 2.32446e-23 0)
(7.14997e-06 -5.04019e-08 -9.52108e-20 -3.68648e-06 -5.16252e-22 -8.47399e-37)
(1.00397e-05 5.71005e-08 2.62404e-21 -4.91867e-06 2.07473e-21 0)
(9.79047e-06 -8.43931e-09 0 -4.945e-06 0 0)
(9.53075e-06 -1.37313e-07 -2.04604e-21 -4.89785e-06 -1.80297e-21 0)
(9.27115e-06 -2.21708e-07 2.67514e-35 -4.82263e-06 2.16566e-35 0)
(9.02365e-06 -2.88132e-07 6.13247e-36 -4.72349e-06 4.44751e-36 0)
(8.7847e-06 -3.35161e-07 2.9081e-35 -4.61048e-06 2.16224e-35 0)
(8.5605e-06 -3.65504e-07 4.45985e-35 -4.48887e-06 3.60369e-35 0)
(8.35019e-06 -3.81897e-07 -1.7926e-21 -4.36438e-06 -1.68058e-21 0)
(8.15633e-06 -3.86507e-07 0 -4.24128e-06 0 0)
(7.97881e-06 -3.8174e-07 1.71287e-21 -4.12323e-06 1.6606e-21 0)
(7.81839e-06 -3.69498e-07 -2.44841e-36 -4.01312e-06 -4.12132e-36 0)
(7.67489e-06 -3.5147e-07 -1.64763e-21 -3.91333e-06 -1.65404e-21 0)
(7.54847e-06 -3.28884e-07 1.62049e-21 -3.82587e-06 1.65499e-21 0)
(7.43885e-06 -3.02563e-07 2.32885e-35 -3.75257e-06 1.69609e-35 0)
(7.34651e-06 -2.72824e-07 -1.57713e-21 -3.69531e-06 -1.6644e-21 0)
(7.27117e-06 -2.39413e-07 -1.39858e-35 -3.65605e-06 -1.29343e-35 0)
(7.21519e-06 -2.01585e-07 1.54894e-21 -3.63763e-06 1.68413e-21 0)
(7.17725e-06 -1.5709e-07 1.5408e-21 -3.64281e-06 1.69884e-21 0)
(7.16675e-06 -1.05979e-07 -1.66404e-35 -3.67815e-06 -1.4514e-35 0)