/*--------------------------------*- C++ -*----------------------------------*\
  =========                 |
  \\      /  F ield         | OpenFOAM: The Open Source CFD Toolbox
   \\    /   O peration     | Website:  https://openfoam.org
    \\  /    A nd           | Version:  9
     \\/     M anipulation  |
\*---------------------------------------------------------------------------*/
FoamFile
{
    format      ascii;
    class       volScalarField;
    location    "15";
    object      epsilonEq;
}
// * * * * * * * * * * * * * * * * * * * * * * * * * * * * * * * * * * * * * //

dimensions      [0 0 0 0 0 0 0];

internalField   nonuniform List<scalar> 
1000
(
1.02477e-05
9.71722e-06
9.56319e-06
9.64114e-06
9.64863e-06
9.62857e-06
9.56141e-06
9.45924e-06
9.3454e-06
9.20291e-06
1.19829e-05
1.08547e-05
1.03029e-05
1.0143e-05
9.99277e-06
9.866e-06
9.71971e-06
9.5642e-06
9.38887e-06
9.23358e-06
1.35765e-05
1.19276e-05
1.09672e-05
1.05362e-05
1.02074e-05
9.95429e-06
9.71638e-06
9.49391e-06
9.26127e-06
9.07448e-06
1.5086e-05
1.29269e-05
1.15563e-05
1.08311e-05
1.03034e-05
9.90935e-06
9.5708e-06
9.27729e-06
8.9893e-06
8.76937e-06
1.66144e-05
1.38674e-05
1.2089e-05
1.104e-05
1.02896e-05
9.73842e-06
9.29059e-06
8.92123e-06
8.5809e-06
8.32566e-06
1.80604e-05
1.47434e-05
1.25517e-05
1.11582e-05
1.01704e-05
9.45094e-06
8.88981e-06
8.44342e-06
8.05392e-06
7.7624e-06
1.91493e-05
1.54521e-05
1.28346e-05
1.11178e-05
9.90669e-06
9.0334e-06
8.37191e-06
7.85906e-06
7.43096e-06
7.10694e-06
2.01088e-05
1.594e-05
1.28685e-05
1.08799e-05
9.49069e-06
8.50565e-06
7.77698e-06
7.2232e-06
6.77643e-06
6.43111e-06
2.09446e-05
1.5942e-05
1.24757e-05
1.02917e-05
8.85632e-06
7.85859e-06
7.13522e-06
6.58785e-06
6.15279e-06
5.80346e-06
2.18987e-05
1.50576e-05
1.15446e-05
9.49782e-06
8.23276e-06
7.34935e-06
6.70167e-06
6.19644e-06
5.78782e-06
5.44039e-06
2.84019e-08
8.25162e-08
3.71759e-07
7.69044e-07
1.20511e-06
1.6554e-06
2.09286e-06
2.5099e-06
2.89304e-06
3.24838e-06
9.72191e-08
5.14566e-07
1.09624e-06
1.66836e-06
2.17578e-06
2.62668e-06
3.0203e-06
3.37277e-06
3.67549e-06
3.96e-06
4.24325e-07
1.22314e-06
1.95632e-06
2.61999e-06
3.17327e-06
3.6334e-06
4.00767e-06
4.32191e-06
4.56806e-06
4.80103e-06
9.74386e-07
2.0884e-06
2.9147e-06
3.61465e-06
4.17197e-06
4.6194e-06
4.96719e-06
5.24581e-06
5.4455e-06
5.63768e-06
1.75593e-06
3.063e-06
3.94309e-06
4.64871e-06
5.18034e-06
5.59239e-06
5.89913e-06
6.13402e-06
6.28615e-06
6.43693e-06
2.76505e-06
4.09996e-06
4.98076e-06
5.66662e-06
6.15368e-06
6.51631e-06
6.7725e-06
6.95735e-06
7.06094e-06
7.16815e-06
3.98241e-06
5.18166e-06
5.99938e-06
6.6379e-06
7.06553e-06
7.36933e-06
7.56874e-06
7.69945e-06
7.7542e-06
7.81535e-06
5.3753e-06
6.29333e-06
6.97501e-06
7.53251e-06
7.88518e-06
8.1224e-06
8.2621e-06
8.33688e-06
8.34694e-06
8.35937e-06
6.91192e-06
7.42434e-06
7.89594e-06
8.3354e-06
8.59532e-06
8.7581e-06
8.834e-06
8.85267e-06
8.82012e-06
8.79036e-06
8.54027e-06
8.57005e-06
8.75947e-06
9.03785e-06
9.18256e-06
9.25844e-06
9.26541e-06
9.22217e-06
9.16101e-06
9.06404e-06
3.56846e-06
3.84367e-06
4.09889e-06
4.32968e-06
4.53834e-06
4.72609e-06
4.89463e-06
5.04523e-06
5.17943e-06
5.29822e-06
5.40271e-06
5.49361e-06
5.57151e-06
5.63682e-06
5.68969e-06
5.7304e-06
5.7588e-06
5.77581e-06
5.7812e-06
5.77786e-06
4.1802e-06
4.34071e-06
4.50274e-06
4.65329e-06
4.79452e-06
4.92578e-06
5.04708e-06
5.15837e-06
5.26001e-06
5.35211e-06
5.43506e-06
5.50905e-06
5.57434e-06
5.63111e-06
5.67937e-06
5.71917e-06
5.74991e-06
5.77125e-06
5.78033e-06
5.77526e-06
4.93138e-06
4.98291e-06
5.04891e-06
5.11255e-06
5.17727e-06
5.24175e-06
5.30551e-06
5.36746e-06
5.42735e-06
5.48437e-06
5.53837e-06
5.58891e-06
5.63583e-06
5.67884e-06
5.71754e-06
5.75137e-06
5.77878e-06
5.79808e-06
5.80336e-06
5.79118e-06
5.6936e-06
5.65421e-06
5.63742e-06
5.62413e-06
5.61823e-06
5.61881e-06
5.62578e-06
5.63746e-06
5.65368e-06
5.67294e-06
5.69487e-06
5.71847e-06
5.74322e-06
5.76836e-06
5.79298e-06
5.81601e-06
5.83512e-06
5.84807e-06
5.84781e-06
5.83121e-06
6.42713e-06
6.31286e-06
6.22485e-06
6.1454e-06
6.07733e-06
6.01989e-06
5.97412e-06
5.93766e-06
5.91103e-06
5.89226e-06
5.88105e-06
5.87606e-06
5.87655e-06
5.88142e-06
5.88943e-06
5.89914e-06
5.9079e-06
5.91329e-06
5.90848e-06
5.8909e-06
7.10035e-06
6.9264e-06
6.7794e-06
6.64446e-06
6.52431e-06
6.41654e-06
6.32466e-06
6.24493e-06
6.17897e-06
6.12437e-06
6.0811e-06
6.04769e-06
6.02338e-06
6.00694e-06
5.99706e-06
5.99222e-06
5.98994e-06
5.98795e-06
5.98084e-06
5.96629e-06
7.69714e-06
7.47823e-06
7.28641e-06
7.10569e-06
6.94407e-06
6.79329e-06
6.66148e-06
6.54318e-06
6.44144e-06
6.35375e-06
6.28037e-06
6.21987e-06
6.17155e-06
6.1342e-06
6.10663e-06
6.0874e-06
6.07459e-06
6.06624e-06
6.05909e-06
6.05083e-06
8.20096e-06
7.95055e-06
7.73136e-06
7.5129e-06
7.32089e-06
7.13667e-06
6.97317e-06
6.82341e-06
6.69109e-06
6.57418e-06
6.47322e-06
6.38724e-06
6.3158e-06
6.25799e-06
6.21296e-06
6.17957e-06
6.15679e-06
6.14307e-06
6.13779e-06
6.13842e-06
8.61026e-06
8.33162e-06
8.11262e-06
7.86772e-06
7.65241e-06
7.44095e-06
7.24937e-06
7.07255e-06
6.91365e-06
6.77159e-06
6.64673e-06
6.53852e-06
6.44666e-06
6.37056e-06
6.30982e-06
6.26371e-06
6.23222e-06
6.21432e-06
6.21228e-06
6.2232e-06
8.91559e-06
8.61727e-06
8.41249e-06
8.16962e-06
7.94486e-06
7.72159e-06
7.5104e-06
7.31194e-06
7.12919e-06
6.9631e-06
6.81458e-06
6.68383e-06
6.57102e-06
6.47599e-06
6.39886e-06
6.33936e-06
6.29864e-06
6.27626e-06
6.27751e-06
6.29936e-06
9.03484e-06
8.75513e-06
8.55257e-06
8.32386e-06
8.09935e-06
7.87618e-06
7.66099e-06
7.45586e-06
7.26416e-06
7.08741e-06
6.9272e-06
6.78428e-06
6.65937e-06
6.55283e-06
6.46542e-06
6.39744e-06
6.3511e-06
6.32647e-06
6.33125e-06
6.36232e-06
8.80357e-06
8.6595e-06
8.47378e-06
8.27502e-06
8.07217e-06
7.86741e-06
7.66695e-06
7.47305e-06
7.28943e-06
7.11799e-06
6.96078e-06
6.81903e-06
6.69397e-06
6.58644e-06
6.49778e-06
6.42883e-06
6.38259e-06
6.35968e-06
6.36955e-06
6.40868e-06
8.61721e-06
8.5077e-06
8.36536e-06
8.19502e-06
8.01834e-06
7.83326e-06
7.64902e-06
7.46746e-06
7.29324e-06
7.12847e-06
6.97577e-06
6.83673e-06
6.71306e-06
6.60605e-06
6.51746e-06
6.4487e-06
6.40337e-06
6.38222e-06
6.3958e-06
6.4404e-06
8.39499e-06
8.32898e-06
8.2221e-06
8.07945e-06
7.92775e-06
7.76274e-06
7.59579e-06
7.42834e-06
7.26573e-06
7.11022e-06
6.9648e-06
6.83135e-06
6.71187e-06
6.60801e-06
6.52178e-06
6.45509e-06
6.41141e-06
6.39264e-06
6.41002e-06
6.45761e-06
8.14162e-06
8.10996e-06
8.03659e-06
7.92305e-06
7.79803e-06
7.65561e-06
7.50843e-06
7.35768e-06
7.20929e-06
7.06565e-06
6.93008e-06
6.80471e-06
6.69178e-06
6.59322e-06
6.51101e-06
6.44793e-06
6.40577e-06
6.39184e-06
6.4005e-06
6.4592e-06
7.87184e-06
7.87083e-06
7.82761e-06
7.74143e-06
7.64159e-06
7.5215e-06
7.39437e-06
7.26126e-06
7.12841e-06
6.99831e-06
6.87449e-06
6.7592e-06
6.6549e-06
6.56351e-06
6.48748e-06
6.42875e-06
6.39141e-06
6.37748e-06
6.39564e-06
6.44164e-06
7.59043e-06
7.61469e-06
7.59783e-06
7.53723e-06
7.46131e-06
7.36342e-06
7.25662e-06
7.14198e-06
7.02579e-06
6.91062e-06
6.80009e-06
6.69653e-06
6.60247e-06
6.51987e-06
6.45114e-06
6.39808e-06
6.36463e-06
6.35156e-06
6.36837e-06
6.4116e-06
7.30315e-06
7.34837e-06
7.35449e-06
7.31702e-06
7.26311e-06
7.18644e-06
7.09952e-06
7.00349e-06
6.90452e-06
6.80517e-06
6.70906e-06
6.61853e-06
6.53606e-06
6.46353e-06
6.40324e-06
6.35673e-06
6.32742e-06
6.31618e-06
6.33092e-06
6.36832e-06
7.01255e-06
7.07441e-06
7.10003e-06
7.08323e-06
7.04952e-06
6.99303e-06
6.92551e-06
6.84811e-06
6.76674e-06
6.68392e-06
6.60316e-06
6.52671e-06
6.45697e-06
6.39567e-06
6.34486e-06
6.30577e-06
6.28122e-06
6.27159e-06
6.28354e-06
6.31395e-06
6.71994e-06
6.79484e-06
6.83694e-06
6.83846e-06
6.82323e-06
6.78582e-06
6.73709e-06
6.67818e-06
6.61464e-06
6.54886e-06
6.48416e-06
6.42268e-06
6.36661e-06
6.31753e-06
6.27712e-06
6.24633e-06
6.22716e-06
6.21965e-06
6.22845e-06
6.25072e-06
6.42485e-06
6.50975e-06
6.56573e-06
6.58361e-06
6.58545e-06
6.56625e-06
6.5359e-06
6.49545e-06
6.45e-06
6.40175e-06
6.35378e-06
6.30802e-06
6.26648e-06
6.23048e-06
6.20137e-06
6.17972e-06
6.16669e-06
6.16179e-06
6.16756e-06
6.18142e-06
6.12589e-06
6.21856e-06
6.28645e-06
6.31926e-06
6.33723e-06
6.33574e-06
6.3236e-06
6.30177e-06
6.27477e-06
6.2446e-06
6.21398e-06
6.18466e-06
6.15836e-06
6.13621e-06
6.11916e-06
6.10747e-06
6.1014e-06
6.09996e-06
6.10332e-06
6.10904e-06
5.82018e-06
5.91927e-06
5.99792e-06
6.04502e-06
6.07887e-06
6.09515e-06
6.10158e-06
6.09888e-06
6.09099e-06
6.0796e-06
6.06707e-06
6.05489e-06
6.04451e-06
6.03685e-06
6.03252e-06
6.03148e-06
6.03322e-06
6.03618e-06
6.03822e-06
6.03679e-06
5.5049e-06
5.61014e-06
5.69936e-06
5.761e-06
5.81124e-06
5.84603e-06
5.87189e-06
5.88927e-06
5.90144e-06
5.90974e-06
5.9161e-06
5.92174e-06
5.92784e-06
5.93513e-06
5.94396e-06
5.95406e-06
5.96432e-06
5.97269e-06
5.97488e-06
5.96792e-06
5.17509e-06
5.28766e-06
5.38865e-06
5.46637e-06
5.53465e-06
5.58966e-06
5.63663e-06
5.67569e-06
5.70936e-06
5.73858e-06
5.76484e-06
5.78906e-06
5.81216e-06
5.83468e-06
5.85682e-06
5.87822e-06
5.89739e-06
5.91199e-06
5.91601e-06
5.90576e-06
4.82893e-06
4.95158e-06
5.06683e-06
5.16335e-06
5.25228e-06
5.32999e-06
5.40034e-06
5.46305e-06
5.5199e-06
5.57138e-06
5.61853e-06
5.66195e-06
5.70232e-06
5.74004e-06
5.77524e-06
5.80758e-06
5.83554e-06
5.8567e-06
5.86417e-06
5.85324e-06
4.45956e-06
4.59765e-06
4.73204e-06
4.85215e-06
4.96606e-06
5.07031e-06
5.16733e-06
5.25648e-06
5.33874e-06
5.4142e-06
5.48345e-06
5.54681e-06
5.60468e-06
5.65737e-06
5.70495e-06
5.74723e-06
5.78299e-06
5.81012e-06
5.82212e-06
5.81337e-06
4.07433e-06
4.23502e-06
4.39465e-06
4.54383e-06
4.68736e-06
4.82194e-06
4.94865e-06
5.06648e-06
5.17574e-06
5.27622e-06
5.3681e-06
5.45146e-06
5.52649e-06
5.59335e-06
5.6521e-06
5.7027e-06
5.74441e-06
5.77581e-06
5.79201e-06
5.78739e-06
3.66552e-06
3.86086e-06
4.05574e-06
4.24234e-06
4.42221e-06
4.5923e-06
4.75264e-06
4.90201e-06
5.04031e-06
5.1671e-06
5.28238e-06
5.38605e-06
5.47811e-06
5.55853e-06
5.6272e-06
5.68404e-06
5.72854e-06
5.76038e-06
5.77731e-06
5.777e-06
3.28096e-06
3.52077e-06
3.75766e-06
3.98549e-06
4.20404e-06
4.41028e-06
4.60392e-06
4.78361e-06
4.94924e-06
5.10038e-06
5.23701e-06
5.35902e-06
5.46629e-06
5.55863e-06
5.63559e-06
5.69679e-06
5.74136e-06
5.76965e-06
5.78088e-06
5.77912e-06
5.147e-06
5.49595e-06
6.09232e-06
6.74889e-06
7.40108e-06
7.97399e-06
8.43704e-06
8.76844e-06
8.9732e-06
9.01449e-06
4.87492e-06
5.20026e-06
5.75023e-06
6.37039e-06
7.0083e-06
7.59292e-06
8.09278e-06
8.47595e-06
8.74148e-06
8.84484e-06
4.63119e-06
4.94151e-06
5.45296e-06
6.03353e-06
6.64112e-06
7.21038e-06
7.71478e-06
8.12746e-06
8.44929e-06
8.64709e-06
4.40824e-06
4.70842e-06
5.188e-06
5.7335e-06
6.31284e-06
6.86547e-06
7.36538e-06
7.78699e-06
8.12449e-06
8.37985e-06
4.19905e-06
4.49231e-06
4.94485e-06
5.45738e-06
6.00664e-06
6.5385e-06
7.02924e-06
7.45851e-06
7.80689e-06
8.09525e-06
4.00266e-06
4.2915e-06
4.72179e-06
5.20513e-06
5.72532e-06
6.23374e-06
6.70756e-06
7.13323e-06
7.48184e-06
7.79165e-06
3.81545e-06
4.10125e-06
4.51271e-06
4.97004e-06
5.46296e-06
5.94834e-06
6.40417e-06
6.82267e-06
7.16627e-06
7.48306e-06
3.63679e-06
3.92015e-06
4.31535e-06
4.74926e-06
5.21628e-06
5.67803e-06
6.11359e-06
6.52044e-06
6.85644e-06
7.17358e-06
3.46549e-06
3.74634e-06
4.12696e-06
4.53958e-06
4.98241e-06
5.42116e-06
5.83624e-06
6.22869e-06
6.55475e-06
6.86642e-06
3.30159e-06
3.57906e-06
3.94576e-06
4.33821e-06
4.75772e-06
5.17347e-06
5.56769e-06
5.94378e-06
6.25885e-06
6.56205e-06
3.14545e-06
3.418e-06
3.77046e-06
4.14291e-06
4.53948e-06
4.93216e-06
5.30534e-06
5.66361e-06
5.96661e-06
6.25931e-06
2.99833e-06
3.26356e-06
3.60016e-06
3.95157e-06
4.32451e-06
4.69339e-06
5.04505e-06
5.38445e-06
5.67471e-06
5.95588e-06
2.8627e-06
3.11688e-06
3.43408e-06
3.76164e-06
4.10903e-06
4.45273e-06
4.78207e-06
5.10172e-06
5.37869e-06
5.64793e-06
2.7423e-06
2.97973e-06
3.27188e-06
3.57109e-06
3.88962e-06
4.20597e-06
4.51175e-06
4.81086e-06
5.07421e-06
5.33158e-06
2.64428e-06
2.85495e-06
3.11138e-06
3.37424e-06
3.65863e-06
3.94475e-06
4.22571e-06
4.50396e-06
4.75406e-06
5.00048e-06
2.57704e-06
2.74386e-06
2.95034e-06
3.16763e-06
3.41169e-06
3.66434e-06
3.91918e-06
4.17664e-06
4.41442e-06
4.65144e-06
2.55928e-06
2.64918e-06
2.77664e-06
2.93225e-06
3.12842e-06
3.3455e-06
3.57511e-06
3.81425e-06
4.04315e-06
4.27477e-06
2.59427e-06
2.55287e-06
2.57675e-06
2.6621e-06
2.80664e-06
2.98813e-06
3.19512e-06
3.41996e-06
3.645e-06
3.87637e-06
2.72858e-06
2.4313e-06
2.28973e-06
2.28922e-06
2.38822e-06
2.54525e-06
2.74238e-06
2.96582e-06
3.19952e-06
3.44237e-06
2.78331e-06
2.12989e-06
1.89575e-06
1.82845e-06
1.90513e-06
2.05512e-06
2.25958e-06
2.49792e-06
2.75466e-06
3.02205e-06
)
;

boundaryField
{
    left
    {
        type            calculated;
        value           nonuniform List<scalar> 
30
(
5.08835e-06
4.81937e-06
4.57858e-06
4.35823e-06
4.15191e-06
3.95867e-06
3.77522e-06
3.6011e-06
3.43538e-06
3.27833e-06
3.13063e-06
2.99379e-06
2.87056e-06
2.76505e-06
2.68479e-06
2.64078e-06
2.65538e-06
2.75553e-06
3.03426e-06
3.46673e-06
2.34069e-05
1.48001e-05
1.11699e-05
9.26237e-06
8.08884e-06
7.2547e-06
6.63043e-06
6.13515e-06
5.73075e-06
5.38181e-06
)
;
    }
    right
    {
        type            calculated;
        value           nonuniform List<scalar> 
30
(
5.77689e-06
5.77526e-06
5.79064e-06
5.83035e-06
5.88984e-06
5.96527e-06
6.05002e-06
6.13802e-06
6.22326e-06
6.30013e-06
6.36336e-06
6.41048e-06
6.44243e-06
6.45979e-06
6.45976e-06
6.44352e-06
6.41361e-06
6.37001e-06
6.31527e-06
6.2516e-06
6.18187e-06
6.10909e-06
6.03652e-06
5.96742e-06
5.90518e-06
5.85273e-06
5.81308e-06
5.78737e-06
5.77723e-06
5.778e-06
)
;
    }
    down
    {
        type            calculated;
        value           nonuniform List<scalar> 
30
(
2.26871e-08
2.70737e-08
2.70251e-07
6.53262e-07
1.09428e-06
1.55519e-06
2.00543e-06
2.4347e-06
2.82866e-06
3.19396e-06
3.52289e-06
3.80951e-06
4.07277e-06
4.30949e-06
4.52302e-06
4.71436e-06
4.88587e-06
5.03874e-06
5.17477e-06
5.29499e-06
5.40061e-06
5.49237e-06
5.57091e-06
5.63664e-06
5.68975e-06
5.73052e-06
5.75883e-06
5.77573e-06
5.78114e-06
5.77926e-06
)
;
    }
    up
    {
        type            calculated;
        value           nonuniform List<scalar> 
30
(
2.7417e-06
2.10472e-06
1.88285e-06
1.81426e-06
1.88881e-06
2.03653e-06
2.23959e-06
2.47752e-06
2.73402e-06
3.00252e-06
3.26225e-06
3.50398e-06
3.74318e-06
3.97292e-06
4.19345e-06
4.40141e-06
4.59666e-06
4.77778e-06
4.9447e-06
5.09695e-06
5.23455e-06
5.35738e-06
5.46534e-06
5.55822e-06
5.63556e-06
5.69697e-06
5.74156e-06
5.76974e-06
5.78077e-06
5.77999e-06
)
;
    }
    hole
    {
        type            calculated;
        value           nonuniform List<scalar> 
20
(
1.03284e-05
1.21731e-05
1.3857e-05
1.54348e-05
1.70733e-05
1.87294e-05
1.99275e-05
2.09431e-05
2.19777e-05
2.34819e-05
7.89259e-09
7.61999e-09
2.04365e-07
6.92768e-07
1.45439e-06
2.48176e-06
3.74286e-06
5.19828e-06
6.81088e-06
8.51824e-06
)
;
    }
    frontAndBack
    {
        type            empty;
    }
}


// ************************************************************************* //
