/*--------------------------------*- C++ -*----------------------------------*\
  =========                 |
  \\      /  F ield         | OpenFOAM: The Open Source CFD Toolbox
   \\    /   O peration     | Website:  https://openfoam.org
    \\  /    A nd           | Version:  9
     \\/     M anipulation  |
\*---------------------------------------------------------------------------*/
FoamFile
{
    format      ascii;
    class       pointVectorField;
    location    "15";
    object      pointD;
}
// * * * * * * * * * * * * * * * * * * * * * * * * * * * * * * * * * * * * * //

dimensions      [0 1 0 0 0 0 0];

internalField   nonuniform List<vector> 
2142
(
(1.11308e-05 3.26955e-06 -8.9703e-20)
(1.03169e-05 3.78261e-06 0)
(9.74813e-06 4.14837e-06 0)
(9.3337e-06 4.44611e-06 0)
(9.03533e-06 4.68986e-06 0)
(8.82354e-06 4.89989e-06 0)
(8.67723e-06 5.08458e-06 0)
(8.58159e-06 5.25155e-06 0)
(8.52511e-06 5.40531e-06 0)
(8.49941e-06 5.54895e-06 0)
(8.504e-06 5.70488e-06 0)
(1.01792e-05 2.99711e-06 -9.22384e-20)
(9.31038e-06 3.40521e-06 0)
(8.71312e-06 3.68917e-06 0)
(8.28036e-06 3.92307e-06 0)
(7.96964e-06 4.11386e-06 0)
(7.74878e-06 4.27907e-06 0)
(7.59481e-06 4.42444e-06 0)
(7.49205e-06 4.55642e-06 0)
(7.428e-06 4.67799e-06 0)
(7.394e-06 4.79287e-06 0)
(7.24599e-06 4.79825e-06 0)
(9.18653e-06 2.72704e-06 -9.63677e-20)
(8.28656e-06 3.01936e-06 0)
(7.67828e-06 3.21519e-06 0)
(7.23897e-06 3.38235e-06 0)
(6.92478e-06 3.51952e-06 0)
(6.7016e-06 3.6403e-06 0)
(6.54524e-06 3.74748e-06 0)
(6.43936e-06 3.84576e-06 0)
(6.37104e-06 3.93649e-06 0)
(6.33098e-06 4.02321e-06 0)
(6.19831e-06 4.01389e-06 0)
(8.15094e-06 2.46533e-06 -1.03444e-19)
(7.25428e-06 2.63125e-06 0)
(6.65191e-06 2.73741e-06 0)
(6.21852e-06 2.83711e-06 0)
(5.91035e-06 2.92183e-06 0)
(5.69217e-06 3.00013e-06 0)
(5.53926e-06 3.07173e-06 0)
(5.43494e-06 3.13916e-06 0)
(5.36632e-06 3.20217e-06 0)
(5.32397e-06 3.26337e-06 0)
(5.20933e-06 3.24413e-06 0)
(7.0796e-06 2.22038e-06 -1.12353e-19)
(6.21999e-06 2.25098e-06 0)
(5.63955e-06 2.26816e-06 0)
(5.22528e-06 2.30164e-06 0)
(4.93315e-06 2.33665e-06 0)
(4.72777e-06 2.37587e-06 0)
(4.58446e-06 2.41567e-06 0)
(4.48655e-06 2.45612e-06 0)
(4.42161e-06 2.49528e-06 0)
(4.38031e-06 2.53455e-06 0)
(4.2846e-06 2.50979e-06 0)
(5.99722e-06 1.98513e-06 -1.14323e-19)
(5.18499e-06 1.88544e-06 0)
(4.64406e-06 1.81733e-06 0)
(4.26257e-06 1.78901e-06 0)
(3.99736e-06 1.77957e-06 0)
(3.81311e-06 1.78516e-06 0)
(3.68564e-06 1.79859e-06 0)
(3.59889e-06 1.81719e-06 0)
(3.54124e-06 1.8374e-06 0)
(3.50386e-06 1.85922e-06 0)
(3.42702e-06 1.83325e-06 0)
(4.90021e-06 1.74407e-06 -9.98188e-20)
(4.14622e-06 1.53228e-06 0)
(3.66438e-06 1.38942e-06 0)
(3.33108e-06 1.30948e-06 0)
(3.10472e-06 1.26501e-06 0)
(2.95015e-06 1.24528e-06 0)
(2.84463e-06 1.23967e-06 0)
(2.77334e-06 1.24285e-06 0)
(2.72603e-06 1.2499e-06 0)
(2.69487e-06 1.25948e-06 0)
(2.63618e-06 1.23633e-06 0)
(3.77501e-06 1.49101e-06 -6.77106e-20)
(3.1075e-06 1.18697e-06 0)
(2.7029e-06 9.87607e-07 0)
(2.43437e-06 8.73454e-07 0)
(2.25804e-06 8.08193e-07 0)
(2.14056e-06 7.7456e-07 0)
(2.06171e-06 7.59014e-07 0)
(2.00894e-06 7.54135e-07 0)
(1.97397e-06 7.54229e-07 0)
(1.95051e-06 7.57035e-07 0)
(1.90868e-06 7.39975e-07 0)
(2.61093e-06 1.2241e-06 -1.32216e-20)
(2.06654e-06 8.45958e-07 0)
(1.76185e-06 6.17774e-07 0)
(1.57494e-06 4.93896e-07 0)
(1.45767e-06 4.26849e-07 0)
(1.3823e-06 3.92866e-07 0)
(1.33264e-06 3.76975e-07 0)
(1.29967e-06 3.71042e-07 0)
(1.2777e-06 3.69627e-07 0)
(1.26252e-06 3.70293e-07 0)
(1.23588e-06 3.61003e-07 0)
(1.51225e-06 9.10393e-07 4.09194e-20)
(1.03046e-06 4.96718e-07 0)
(8.54502e-07 2.95533e-07 0)
(7.62707e-07 1.97849e-07 0)
(7.08307e-07 1.51791e-07 0)
(6.74376e-07 1.30449e-07 0)
(6.52144e-07 1.21747e-07 0)
(6.37288e-07 1.19192e-07 0)
(6.27172e-07 1.19191e-07 0)
(6.19832e-07 1.20093e-07 0)
(6.06711e-07 1.17432e-07 0)
(5.05528e-07 3.67037e-07 3.01925e-20)
(0 0 0)
(0 0 0)
(0 0 0)
(0 0 0)
(0 0 0)
(0 0 0)
(0 0 0)
(0 0 0)
(0 0 0)
(0 0 0)
(1.11308e-05 3.26955e-06 -8.9703e-20)
(1.03169e-05 3.78261e-06 0)
(9.74813e-06 4.14837e-06 0)
(9.3337e-06 4.44611e-06 0)
(9.03533e-06 4.68986e-06 0)
(8.82354e-06 4.89989e-06 0)
(8.67723e-06 5.08458e-06 0)
(8.58159e-06 5.25155e-06 0)
(8.52511e-06 5.40531e-06 0)
(8.49941e-06 5.54895e-06 0)
(8.504e-06 5.70488e-06 0)
(1.01792e-05 2.99711e-06 -9.22384e-20)
(9.31038e-06 3.40521e-06 0)
(8.71312e-06 3.68917e-06 0)
(8.28036e-06 3.92307e-06 0)
(7.96964e-06 4.11386e-06 0)
(7.74878e-06 4.27907e-06 0)
(7.59481e-06 4.42444e-06 0)
(7.49205e-06 4.55642e-06 0)
(7.428e-06 4.67799e-06 0)
(7.394e-06 4.79287e-06 0)
(7.24599e-06 4.79825e-06 0)
(9.18653e-06 2.72704e-06 -9.63677e-20)
(8.28656e-06 3.01936e-06 0)
(7.67828e-06 3.21519e-06 0)
(7.23897e-06 3.38235e-06 0)
(6.92478e-06 3.51952e-06 0)
(6.7016e-06 3.6403e-06 0)
(6.54524e-06 3.74748e-06 0)
(6.43936e-06 3.84576e-06 0)
(6.37104e-06 3.93649e-06 0)
(6.33098e-06 4.02321e-06 0)
(6.19831e-06 4.01389e-06 0)
(8.15094e-06 2.46533e-06 -1.03444e-19)
(7.25428e-06 2.63125e-06 0)
(6.65191e-06 2.73741e-06 0)
(6.21852e-06 2.83711e-06 0)
(5.91035e-06 2.92183e-06 0)
(5.69217e-06 3.00013e-06 0)
(5.53926e-06 3.07173e-06 0)
(5.43494e-06 3.13916e-06 0)
(5.36632e-06 3.20217e-06 0)
(5.32397e-06 3.26337e-06 0)
(5.20933e-06 3.24413e-06 0)
(7.0796e-06 2.22038e-06 -1.12353e-19)
(6.21999e-06 2.25098e-06 0)
(5.63955e-06 2.26816e-06 0)
(5.22528e-06 2.30164e-06 0)
(4.93315e-06 2.33665e-06 0)
(4.72777e-06 2.37587e-06 0)
(4.58446e-06 2.41567e-06 0)
(4.48655e-06 2.45612e-06 0)
(4.42161e-06 2.49528e-06 0)
(4.38031e-06 2.53455e-06 0)
(4.2846e-06 2.50979e-06 0)
(5.99722e-06 1.98513e-06 -1.14323e-19)
(5.18499e-06 1.88544e-06 0)
(4.64406e-06 1.81733e-06 0)
(4.26257e-06 1.78901e-06 0)
(3.99736e-06 1.77957e-06 0)
(3.81311e-06 1.78516e-06 0)
(3.68564e-06 1.79859e-06 0)
(3.59889e-06 1.81719e-06 0)
(3.54124e-06 1.8374e-06 0)
(3.50386e-06 1.85922e-06 0)
(3.42702e-06 1.83325e-06 0)
(4.90021e-06 1.74407e-06 -9.98188e-20)
(4.14622e-06 1.53228e-06 0)
(3.66438e-06 1.38942e-06 0)
(3.33108e-06 1.30948e-06 0)
(3.10472e-06 1.26501e-06 0)
(2.95015e-06 1.24528e-06 0)
(2.84463e-06 1.23967e-06 0)
(2.77334e-06 1.24285e-06 0)
(2.72603e-06 1.2499e-06 0)
(2.69487e-06 1.25948e-06 0)
(2.63618e-06 1.23633e-06 0)
(3.77501e-06 1.49101e-06 -6.77106e-20)
(3.1075e-06 1.18697e-06 0)
(2.7029e-06 9.87607e-07 0)
(2.43437e-06 8.73454e-07 0)
(2.25804e-06 8.08193e-07 0)
(2.14056e-06 7.7456e-07 0)
(2.06171e-06 7.59014e-07 0)
(2.00894e-06 7.54135e-07 0)
(1.97397e-06 7.54229e-07 0)
(1.95051e-06 7.57035e-07 0)
(1.90868e-06 7.39975e-07 0)
(2.61093e-06 1.2241e-06 -1.32216e-20)
(2.06654e-06 8.45958e-07 0)
(1.76185e-06 6.17774e-07 0)
(1.57494e-06 4.93896e-07 0)
(1.45767e-06 4.26849e-07 0)
(1.3823e-06 3.92866e-07 0)
(1.33264e-06 3.76975e-07 0)
(1.29967e-06 3.71042e-07 0)
(1.2777e-06 3.69627e-07 0)
(1.26252e-06 3.70293e-07 0)
(1.23588e-06 3.61003e-07 0)
(1.51225e-06 9.10393e-07 4.09194e-20)
(1.03046e-06 4.96718e-07 0)
(8.54502e-07 2.95533e-07 0)
(7.62707e-07 1.97849e-07 0)
(7.08307e-07 1.51791e-07 0)
(6.74376e-07 1.30449e-07 0)
(6.52144e-07 1.21747e-07 0)
(6.37288e-07 1.19192e-07 0)
(6.27172e-07 1.19191e-07 0)
(6.19832e-07 1.20093e-07 0)
(6.06711e-07 1.17432e-07 0)
(5.05528e-07 3.67037e-07 3.01925e-20)
(0 0 0)
(0 0 0)
(0 0 0)
(0 0 0)
(0 0 0)
(0 0 0)
(0 0 0)
(0 0 0)
(0 0 0)
(0 0 0)
(1.80482e-05 5.35768e-06 -2.77341e-21)
(1.81768e-05 5.87525e-06 -1.37549e-21)
(1.8161e-05 6.54073e-06 -1.50734e-21)
(1.81504e-05 7.15813e-06 -1.63952e-21)
(1.81612e-05 7.72643e-06 -1.76803e-21)
(1.81995e-05 8.25142e-06 -1.8927e-21)
(1.82674e-05 8.73987e-06 -2.01394e-21)
(1.83647e-05 9.19871e-06 -2.13232e-21)
(1.84903e-05 9.63366e-06 -2.16552e-21)
(1.86413e-05 1.00502e-05 -1.61529e-21)
(1.88163e-05 1.04504e-05 -5.64571e-22)
(1.76472e-05 5.15707e-06 -4.2949e-21)
(1.75921e-05 5.85192e-06 0)
(1.75461e-05 6.51315e-06 0)
(1.75216e-05 7.12142e-06 0)
(1.75246e-05 7.67696e-06 0)
(1.75573e-05 8.18661e-06 0)
(1.76194e-05 8.65785e-06 0)
(1.77094e-05 9.09821e-06 0)
(1.78255e-05 9.51384e-06 0)
(1.79651e-05 9.91058e-06 0)
(1.81366e-05 1.02932e-05 0)
(1.71013e-05 5.07205e-06 -4.43633e-21)
(1.69866e-05 5.78218e-06 0)
(1.68934e-05 6.43728e-06 0)
(1.68337e-05 7.03278e-06 0)
(1.68098e-05 7.57205e-06 0)
(1.6821e-05 8.06355e-06 0)
(1.68646e-05 8.51548e-06 0)
(1.69375e-05 8.9358e-06 0)
(1.70368e-05 9.33089e-06 0)
(1.71591e-05 9.70697e-06 0)
(1.73261e-05 1.00728e-05 0)
(1.65228e-05 4.93457e-06 -5.24094e-21)
(1.63359e-05 5.66788e-06 0)
(1.61865e-05 6.31453e-06 0)
(1.60822e-05 6.89257e-06 0)
(1.60225e-05 7.41033e-06 0)
(1.60042e-05 7.87907e-06 0)
(1.60224e-05 8.30785e-06 0)
(1.60725e-05 8.70505e-06 0)
(1.61506e-05 9.0772e-06 0)
(1.62519e-05 9.43068e-06 0)
(1.64141e-05 9.78025e-06 0)
(1.59013e-05 4.75729e-06 -8.06622e-21)
(1.56303e-05 5.5107e-06 0)
(1.54184e-05 6.14518e-06 0)
(1.52643e-05 6.70145e-06 0)
(1.51645e-05 7.19315e-06 0)
(1.51127e-05 7.6348e-06 0)
(1.51021e-05 8.03657e-06 0)
(1.51264e-05 8.4073e-06 0)
(1.51808e-05 8.75367e-06 0)
(1.52594e-05 9.08204e-06 0)
(1.54172e-05 9.41531e-06 0)
(1.52311e-05 4.54876e-06 -1.42337e-20)
(1.48661e-05 5.31138e-06 0)
(1.4588e-05 5.92726e-06 0)
(1.43823e-05 6.45651e-06 0)
(1.42413e-05 6.91743e-06 0)
(1.41553e-05 7.32785e-06 0)
(1.41153e-05 7.69896e-06 0)
(1.41135e-05 8.04004e-06 0)
(1.41439e-05 8.35788e-06 0)
(1.41996e-05 8.65872e-06 0)
(1.43544e-05 8.97589e-06 0)
(1.45098e-05 4.31668e-06 -2.46196e-20)
(1.40453e-05 5.07177e-06 0)
(1.36996e-05 5.66021e-06 0)
(1.3443e-05 6.15651e-06 0)
(1.3262e-05 6.5822e-06 0)
(1.31431e-05 6.95779e-06 0)
(1.3075e-05 7.29519e-06 0)
(1.30482e-05 7.60398e-06 0)
(1.30557e-05 7.89098e-06 0)
(1.30898e-05 8.16218e-06 0)
(1.3243e-05 8.46361e-06 0)
(1.37373e-05 4.06742e-06 -3.93579e-20)
(1.31727e-05 4.79453e-06 0)
(1.2761e-05 5.34475e-06 0)
(1.24561e-05 5.80145e-06 0)
(1.22381e-05 6.18748e-06 0)
(1.20891e-05 6.52507e-06 0)
(1.19954e-05 6.82629e-06 0)
(1.1946e-05 7.10075e-06 0)
(1.19329e-05 7.35516e-06 0)
(1.19474e-05 7.59508e-06 0)
(1.21009e-05 7.88134e-06 0)
(1.29146e-05 3.80674e-06 -5.77824e-20)
(1.22552e-05 4.48357e-06 0)
(1.17823e-05 4.98385e-06 0)
(1.14337e-05 5.39407e-06 0)
(1.11829e-05 5.73627e-06 0)
(1.10078e-05 6.03319e-06 0)
(1.08921e-05 6.29641e-06 0)
(1.08233e-05 6.53522e-06 0)
(1.07924e-05 6.75594e-06 0)
(1.07902e-05 6.96352e-06 0)
(1.09456e-05 7.23495e-06 0)
(1.2044e-05 3.53994e-06 -7.83974e-20)
(1.13006e-05 4.14426e-06 0)
(1.07744e-05 4.58268e-06 0)
(1.03887e-05 4.93965e-06 0)
(1.01106e-05 5.2342e-06 0)
(9.91432e-06 5.48836e-06 0)
(9.78084e-06 5.71247e-06 0)
(9.69644e-06 5.9151e-06 0)
(9.65088e-06 6.10184e-06 0)
(9.63526e-06 6.27636e-06 0)
(9.79333e-06 6.53286e-06 0)
(1.80482e-05 5.35768e-06 -2.77341e-21)
(1.81768e-05 5.87525e-06 -1.37549e-21)
(1.8161e-05 6.54073e-06 -1.50734e-21)
(1.81504e-05 7.15813e-06 -1.63952e-21)
(1.81612e-05 7.72643e-06 -1.76803e-21)
(1.81995e-05 8.25142e-06 -1.8927e-21)
(1.82674e-05 8.73987e-06 -2.01394e-21)
(1.83647e-05 9.19871e-06 -2.13232e-21)
(1.84903e-05 9.63366e-06 -2.16552e-21)
(1.86413e-05 1.00502e-05 -1.61529e-21)
(1.88163e-05 1.04504e-05 -5.64571e-22)
(1.76472e-05 5.15707e-06 -4.2949e-21)
(1.75921e-05 5.85192e-06 0)
(1.75461e-05 6.51315e-06 0)
(1.75216e-05 7.12142e-06 0)
(1.75246e-05 7.67696e-06 0)
(1.75573e-05 8.18661e-06 0)
(1.76194e-05 8.65785e-06 0)
(1.77094e-05 9.09821e-06 0)
(1.78255e-05 9.51384e-06 0)
(1.79651e-05 9.91058e-06 0)
(1.81366e-05 1.02932e-05 0)
(1.71013e-05 5.07205e-06 -4.43633e-21)
(1.69866e-05 5.78218e-06 0)
(1.68934e-05 6.43728e-06 0)
(1.68337e-05 7.03278e-06 0)
(1.68098e-05 7.57205e-06 0)
(1.6821e-05 8.06355e-06 0)
(1.68646e-05 8.51548e-06 0)
(1.69375e-05 8.9358e-06 0)
(1.70368e-05 9.33089e-06 0)
(1.71591e-05 9.70697e-06 0)
(1.73261e-05 1.00728e-05 0)
(1.65228e-05 4.93457e-06 -5.24094e-21)
(1.63359e-05 5.66788e-06 0)
(1.61865e-05 6.31453e-06 0)
(1.60822e-05 6.89257e-06 0)
(1.60225e-05 7.41033e-06 0)
(1.60042e-05 7.87907e-06 0)
(1.60224e-05 8.30785e-06 0)
(1.60725e-05 8.70505e-06 0)
(1.61506e-05 9.0772e-06 0)
(1.62519e-05 9.43068e-06 0)
(1.64141e-05 9.78025e-06 0)
(1.59013e-05 4.75729e-06 -8.06622e-21)
(1.56303e-05 5.5107e-06 0)
(1.54184e-05 6.14518e-06 0)
(1.52643e-05 6.70145e-06 0)
(1.51645e-05 7.19315e-06 0)
(1.51127e-05 7.6348e-06 0)
(1.51021e-05 8.03657e-06 0)
(1.51264e-05 8.4073e-06 0)
(1.51808e-05 8.75367e-06 0)
(1.52594e-05 9.08204e-06 0)
(1.54172e-05 9.41531e-06 0)
(1.52311e-05 4.54876e-06 -1.42337e-20)
(1.48661e-05 5.31138e-06 0)
(1.4588e-05 5.92726e-06 0)
(1.43823e-05 6.45651e-06 0)
(1.42413e-05 6.91743e-06 0)
(1.41553e-05 7.32785e-06 0)
(1.41153e-05 7.69896e-06 0)
(1.41135e-05 8.04004e-06 0)
(1.41439e-05 8.35788e-06 0)
(1.41996e-05 8.65872e-06 0)
(1.43544e-05 8.97589e-06 0)
(1.45098e-05 4.31668e-06 -2.46196e-20)
(1.40453e-05 5.07177e-06 0)
(1.36996e-05 5.66021e-06 0)
(1.3443e-05 6.15651e-06 0)
(1.3262e-05 6.5822e-06 0)
(1.31431e-05 6.95779e-06 0)
(1.3075e-05 7.29519e-06 0)
(1.30482e-05 7.60398e-06 0)
(1.30557e-05 7.89098e-06 0)
(1.30898e-05 8.16218e-06 0)
(1.3243e-05 8.46361e-06 0)
(1.37373e-05 4.06742e-06 -3.93579e-20)
(1.31727e-05 4.79453e-06 0)
(1.2761e-05 5.34475e-06 0)
(1.24561e-05 5.80145e-06 0)
(1.22381e-05 6.18748e-06 0)
(1.20891e-05 6.52507e-06 0)
(1.19954e-05 6.82629e-06 0)
(1.1946e-05 7.10075e-06 0)
(1.19329e-05 7.35516e-06 0)
(1.19474e-05 7.59508e-06 0)
(1.21009e-05 7.88134e-06 0)
(1.29146e-05 3.80674e-06 -5.77824e-20)
(1.22552e-05 4.48357e-06 0)
(1.17823e-05 4.98385e-06 0)
(1.14337e-05 5.39407e-06 0)
(1.11829e-05 5.73627e-06 0)
(1.10078e-05 6.03319e-06 0)
(1.08921e-05 6.29641e-06 0)
(1.08233e-05 6.53522e-06 0)
(1.07924e-05 6.75594e-06 0)
(1.07902e-05 6.96352e-06 0)
(1.09456e-05 7.23495e-06 0)
(1.2044e-05 3.53994e-06 -7.83974e-20)
(1.13006e-05 4.14426e-06 0)
(1.07744e-05 4.58268e-06 0)
(1.03887e-05 4.93965e-06 0)
(1.01106e-05 5.2342e-06 0)
(9.91432e-06 5.48836e-06 0)
(9.78084e-06 5.71247e-06 0)
(9.69644e-06 5.9151e-06 0)
(9.65088e-06 6.10184e-06 0)
(9.63526e-06 6.27636e-06 0)
(9.79333e-06 6.53286e-06 0)
(1.90153e-05 1.08393e-05 4.29319e-22)
(1.92348e-05 1.12221e-05 1.32305e-21)
(1.94714e-05 1.15992e-05 2.12761e-21)
(1.97234e-05 1.19724e-05 2.84446e-21)
(1.99892e-05 1.23432e-05 3.48162e-21)
(2.02673e-05 1.27129e-05 4.04547e-21)
(2.05564e-05 1.30824e-05 4.54258e-21)
(2.08551e-05 1.34527e-05 4.97859e-21)
(2.11625e-05 1.38245e-05 5.35868e-21)
(2.14775e-05 1.41984e-05 5.6871e-21)
(2.17991e-05 1.4575e-05 5.96755e-21)
(2.21265e-05 1.49548e-05 6.20288e-21)
(2.24588e-05 1.5338e-05 6.39537e-21)
(2.27951e-05 1.5725e-05 6.54647e-21)
(2.31347e-05 1.61159e-05 6.65745e-21)
(2.34766e-05 1.65108e-05 6.72915e-21)
(2.38199e-05 1.69094e-05 6.76335e-21)
(2.41638e-05 1.73113e-05 6.76254e-21)
(2.45069e-05 1.77156e-05 6.73115e-21)
(2.46203e-05 1.79674e-05 -1.65989e-21)
(1.83489e-05 1.06704e-05 0)
(1.8587e-05 1.10451e-05 0)
(1.88389e-05 1.14149e-05 0)
(1.91034e-05 1.17816e-05 0)
(1.93792e-05 1.21469e-05 0)
(1.96653e-05 1.25117e-05 0)
(1.99606e-05 1.28772e-05 0)
(2.02641e-05 1.32441e-05 0)
(2.05751e-05 1.36132e-05 0)
(2.08927e-05 1.3985e-05 0)
(2.1216e-05 1.43601e-05 0)
(2.15445e-05 1.47388e-05 0)
(2.18774e-05 1.51215e-05 0)
(2.22141e-05 1.55085e-05 0)
(2.25539e-05 1.58999e-05 0)
(2.28961e-05 1.62957e-05 0)
(2.32402e-05 1.66958e-05 0)
(2.35856e-05 1.70996e-05 0)
(2.39314e-05 1.75063e-05 0)
(2.42759e-05 1.79136e-05 -1.01001e-20)
(1.75587e-05 1.04424e-05 0)
(1.78256e-05 1.08143e-05 0)
(1.81026e-05 1.11817e-05 0)
(1.83886e-05 1.15464e-05 0)
(1.86829e-05 1.191e-05 0)
(1.89849e-05 1.22737e-05 0)
(1.92939e-05 1.26385e-05 0)
(1.96093e-05 1.30052e-05 0)
(1.99305e-05 1.33745e-05 0)
(2.0257e-05 1.37469e-05 0)
(2.05882e-05 1.4123e-05 0)
(2.09236e-05 1.45032e-05 0)
(2.12628e-05 1.48878e-05 0)
(2.16053e-05 1.52771e-05 0)
(2.19507e-05 1.56712e-05 0)
(2.22985e-05 1.60702e-05 0)
(2.26483e-05 1.6474e-05 0)
(2.29995e-05 1.68822e-05 0)
(2.33515e-05 1.72943e-05 0)
(2.37008e-05 1.77079e-05 -1.01833e-20)
(1.66721e-05 1.01467e-05 0)
(1.6975e-05 1.05221e-05 0)
(1.72839e-05 1.08928e-05 0)
(1.7598e-05 1.12607e-05 0)
(1.79172e-05 1.16276e-05 0)
(1.82412e-05 1.19945e-05 0)
(1.85697e-05 1.23626e-05 0)
(1.89023e-05 1.27327e-05 0)
(1.9239e-05 1.31055e-05 0)
(1.95792e-05 1.34816e-05 0)
(1.99229e-05 1.38617e-05 0)
(2.02698e-05 1.4246e-05 0)
(2.06195e-05 1.4635e-05 0)
(2.09719e-05 1.50289e-05 0)
(2.13267e-05 1.54281e-05 0)
(2.16836e-05 1.58326e-05 0)
(2.20423e-05 1.62425e-05 0)
(2.24023e-05 1.66577e-05 0)
(2.27632e-05 1.7078e-05 0)
(2.31198e-05 1.75018e-05 -1.03078e-20)
(1.57049e-05 9.78289e-06 0)
(1.60494e-05 1.01676e-05 0)
(1.63959e-05 1.05471e-05 0)
(1.67435e-05 1.09233e-05 0)
(1.70929e-05 1.1298e-05 0)
(1.74438e-05 1.16724e-05 0)
(1.77965e-05 1.20478e-05 0)
(1.8151e-05 1.24249e-05 0)
(1.85074e-05 1.28046e-05 0)
(1.88655e-05 1.31876e-05 0)
(1.92256e-05 1.35745e-05 0)
(1.95875e-05 1.39657e-05 0)
(1.99512e-05 1.43616e-05 0)
(2.03167e-05 1.47627e-05 0)
(2.06839e-05 1.51693e-05 0)
(2.10526e-05 1.55816e-05 0)
(2.14227e-05 1.6e-05 0)
(2.1794e-05 1.64246e-05 0)
(2.21658e-05 1.68557e-05 0)
(2.25321e-05 1.72922e-05 -1.047e-20)
(1.46751e-05 9.34909e-06 0)
(1.50655e-05 9.74904e-06 0)
(1.54538e-05 1.01432e-05 0)
(1.5839e-05 1.05328e-05 0)
(1.62224e-05 1.09202e-05 0)
(1.66041e-05 1.13065e-05 0)
(1.69847e-05 1.16932e-05 0)
(1.73645e-05 1.20811e-05 0)
(1.77439e-05 1.24712e-05 0)
(1.81231e-05 1.28643e-05 0)
(1.85025e-05 1.3261e-05 0)
(1.88823e-05 1.36619e-05 0)
(1.92625e-05 1.40674e-05 0)
(1.96435e-05 1.44781e-05 0)
(2.00253e-05 1.48945e-05 0)
(2.0408e-05 1.53169e-05 0)
(2.07915e-05 1.57459e-05 0)
(2.11757e-05 1.6182e-05 0)
(2.15602e-05 1.66258e-05 0)
(2.19386e-05 1.70768e-05 -1.06707e-20)
(1.3599e-05 8.84679e-06 0)
(1.40383e-05 9.26774e-06 0)
(1.44712e-05 9.68191e-06 0)
(1.48969e-05 1.009e-05 0)
(1.53172e-05 1.04948e-05 0)
(1.57325e-05 1.08973e-05 0)
(1.61437e-05 1.12993e-05 0)
(1.65514e-05 1.17017e-05 0)
(1.69564e-05 1.21057e-05 0)
(1.73591e-05 1.25121e-05 0)
(1.77601e-05 1.29216e-05 0)
(1.81598e-05 1.33349e-05 0)
(1.85586e-05 1.37527e-05 0)
(1.89569e-05 1.41755e-05 0)
(1.9355e-05 1.46038e-05 0)
(1.97531e-05 1.50384e-05 0)
(2.01514e-05 1.54799e-05 0)
(2.05499e-05 1.59292e-05 0)
(2.09485e-05 1.63872e-05 0)
(2.13408e-05 1.68539e-05 -1.09117e-20)
(1.24933e-05 8.2788e-06 0)
(1.29825e-05 8.72609e-06 0)
(1.34618e-05 9.16543e-06 0)
(1.39295e-05 9.59679e-06 0)
(1.43886e-05 1.00234e-05 0)
(1.48392e-05 1.04464e-05 0)
(1.5283e-05 1.08675e-05 0)
(1.57205e-05 1.12881e-05 0)
(1.61529e-05 1.17093e-05 0)
(1.65808e-05 1.2132e-05 0)
(1.7005e-05 1.25573e-05 0)
(1.74261e-05 1.29858e-05 0)
(1.78449e-05 1.34183e-05 0)
(1.82617e-05 1.38555e-05 0)
(1.86773e-05 1.4298e-05 0)
(1.90919e-05 1.47467e-05 0)
(1.95059e-05 1.52024e-05 0)
(1.99197e-05 1.56663e-05 0)
(2.03334e-05 1.61395e-05 0)
(2.07411e-05 1.66226e-05 -1.11954e-20)
(1.13741e-05 7.65043e-06 0)
(1.19129e-05 8.12884e-06 0)
(1.24385e-05 8.59774e-06 0)
(1.29489e-05 9.05669e-06 0)
(1.34474e-05 9.50895e-06 0)
(1.39344e-05 9.95607e-06 0)
(1.44116e-05 1.03999e-05 0)
(1.488e-05 1.0842e-05 0)
(1.53408e-05 1.12835e-05 0)
(1.57949e-05 1.17257e-05 0)
(1.62434e-05 1.21695e-05 0)
(1.6687e-05 1.26159e-05 0)
(1.71265e-05 1.30656e-05 0)
(1.75628e-05 1.35194e-05 0)
(1.79965e-05 1.39782e-05 0)
(1.84282e-05 1.44427e-05 0)
(1.88586e-05 1.49141e-05 0)
(1.92882e-05 1.53936e-05 0)
(1.97175e-05 1.58827e-05 0)
(2.0142e-05 1.63824e-05 -1.15242e-20)
(1.0256e-05 6.96923e-06 0)
(1.08417e-05 7.48223e-06 0)
(1.1412e-05 7.98379e-06 0)
(1.19646e-05 8.47413e-06 0)
(1.25025e-05 8.95567e-06 0)
(1.30262e-05 9.43039e-06 0)
(1.35375e-05 9.90016e-06 0)
(1.40374e-05 1.03667e-05 0)
(1.45273e-05 1.08314e-05 0)
(1.50083e-05 1.12957e-05 0)
(1.54815e-05 1.17606e-05 0)
(1.59481e-05 1.22272e-05 0)
(1.64089e-05 1.26963e-05 0)
(1.6865e-05 1.31689e-05 0)
(1.73172e-05 1.36457e-05 0)
(1.77663e-05 1.41278e-05 0)
(1.82133e-05 1.46161e-05 0)
(1.86588e-05 1.51122e-05 0)
(1.91039e-05 1.56174e-05 0)
(1.95462e-05 1.61338e-05 -1.19006e-20)
(9.2632e-06 6.34934e-06 0)
(9.88393e-06 6.89212e-06 0)
(1.04876e-05 7.42034e-06 0)
(1.1073e-05 7.93726e-06 0)
(1.16419e-05 8.44427e-06 0)
(1.21951e-05 8.94343e-06 0)
(1.2734e-05 9.4365e-06 0)
(1.32597e-05 9.92518e-06 0)
(1.37735e-05 1.0411e-05 0)
(1.42766e-05 1.08953e-05 0)
(1.47703e-05 1.13793e-05 0)
(1.52557e-05 1.18639e-05 0)
(1.5734e-05 1.23503e-05 0)
(1.62061e-05 1.28391e-05 0)
(1.66731e-05 1.33314e-05 0)
(1.71361e-05 1.3828e-05 0)
(1.75962e-05 1.43299e-05 0)
(1.80542e-05 1.48386e-05 0)
(1.85116e-05 1.53554e-05 0)
(1.89685e-05 1.5883e-05 -1.22021e-20)
(1.90153e-05 1.08393e-05 4.29319e-22)
(1.92348e-05 1.12221e-05 1.32305e-21)
(1.94714e-05 1.15992e-05 2.12761e-21)
(1.97234e-05 1.19724e-05 2.84446e-21)
(1.99892e-05 1.23432e-05 3.48162e-21)
(2.02673e-05 1.27129e-05 4.04547e-21)
(2.05564e-05 1.30824e-05 4.54258e-21)
(2.08551e-05 1.34527e-05 4.97859e-21)
(2.11625e-05 1.38245e-05 5.35868e-21)
(2.14775e-05 1.41984e-05 5.6871e-21)
(2.17991e-05 1.4575e-05 5.96755e-21)
(2.21265e-05 1.49548e-05 6.20288e-21)
(2.24588e-05 1.5338e-05 6.39537e-21)
(2.27951e-05 1.5725e-05 6.54647e-21)
(2.31347e-05 1.61159e-05 6.65745e-21)
(2.34766e-05 1.65108e-05 6.72915e-21)
(2.38199e-05 1.69094e-05 6.76335e-21)
(2.41638e-05 1.73113e-05 6.76254e-21)
(2.45069e-05 1.77156e-05 6.73115e-21)
(2.46203e-05 1.79674e-05 -1.65989e-21)
(1.83489e-05 1.06704e-05 0)
(1.8587e-05 1.10451e-05 0)
(1.88389e-05 1.14149e-05 0)
(1.91034e-05 1.17816e-05 0)
(1.93792e-05 1.21469e-05 0)
(1.96653e-05 1.25117e-05 0)
(1.99606e-05 1.28772e-05 0)
(2.02641e-05 1.32441e-05 0)
(2.05751e-05 1.36132e-05 0)
(2.08927e-05 1.3985e-05 0)
(2.1216e-05 1.43601e-05 0)
(2.15445e-05 1.47388e-05 0)
(2.18774e-05 1.51215e-05 0)
(2.22141e-05 1.55085e-05 0)
(2.25539e-05 1.58999e-05 0)
(2.28961e-05 1.62957e-05 0)
(2.32402e-05 1.66958e-05 0)
(2.35856e-05 1.70996e-05 0)
(2.39314e-05 1.75063e-05 0)
(2.42759e-05 1.79136e-05 -1.01001e-20)
(1.75587e-05 1.04424e-05 0)
(1.78256e-05 1.08143e-05 0)
(1.81026e-05 1.11817e-05 0)
(1.83886e-05 1.15464e-05 0)
(1.86829e-05 1.191e-05 0)
(1.89849e-05 1.22737e-05 0)
(1.92939e-05 1.26385e-05 0)
(1.96093e-05 1.30052e-05 0)
(1.99305e-05 1.33745e-05 0)
(2.0257e-05 1.37469e-05 0)
(2.05882e-05 1.4123e-05 0)
(2.09236e-05 1.45032e-05 0)
(2.12628e-05 1.48878e-05 0)
(2.16053e-05 1.52771e-05 0)
(2.19507e-05 1.56712e-05 0)
(2.22985e-05 1.60702e-05 0)
(2.26483e-05 1.6474e-05 0)
(2.29995e-05 1.68822e-05 0)
(2.33515e-05 1.72943e-05 0)
(2.37008e-05 1.77079e-05 -1.01833e-20)
(1.66721e-05 1.01467e-05 0)
(1.6975e-05 1.05221e-05 0)
(1.72839e-05 1.08928e-05 0)
(1.7598e-05 1.12607e-05 0)
(1.79172e-05 1.16276e-05 0)
(1.82412e-05 1.19945e-05 0)
(1.85697e-05 1.23626e-05 0)
(1.89023e-05 1.27327e-05 0)
(1.9239e-05 1.31055e-05 0)
(1.95792e-05 1.34816e-05 0)
(1.99229e-05 1.38617e-05 0)
(2.02698e-05 1.4246e-05 0)
(2.06195e-05 1.4635e-05 0)
(2.09719e-05 1.50289e-05 0)
(2.13267e-05 1.54281e-05 0)
(2.16836e-05 1.58326e-05 0)
(2.20423e-05 1.62425e-05 0)
(2.24023e-05 1.66577e-05 0)
(2.27632e-05 1.7078e-05 0)
(2.31198e-05 1.75018e-05 -1.03078e-20)
(1.57049e-05 9.78289e-06 0)
(1.60494e-05 1.01676e-05 0)
(1.63959e-05 1.05471e-05 0)
(1.67435e-05 1.09233e-05 0)
(1.70929e-05 1.1298e-05 0)
(1.74438e-05 1.16724e-05 0)
(1.77965e-05 1.20478e-05 0)
(1.8151e-05 1.24249e-05 0)
(1.85074e-05 1.28046e-05 0)
(1.88655e-05 1.31876e-05 0)
(1.92256e-05 1.35745e-05 0)
(1.95875e-05 1.39657e-05 0)
(1.99512e-05 1.43616e-05 0)
(2.03167e-05 1.47627e-05 0)
(2.06839e-05 1.51693e-05 0)
(2.10526e-05 1.55816e-05 0)
(2.14227e-05 1.6e-05 0)
(2.1794e-05 1.64246e-05 0)
(2.21658e-05 1.68557e-05 0)
(2.25321e-05 1.72922e-05 -1.047e-20)
(1.46751e-05 9.34909e-06 0)
(1.50655e-05 9.74904e-06 0)
(1.54538e-05 1.01432e-05 0)
(1.5839e-05 1.05328e-05 0)
(1.62224e-05 1.09202e-05 0)
(1.66041e-05 1.13065e-05 0)
(1.69847e-05 1.16932e-05 0)
(1.73645e-05 1.20811e-05 0)
(1.77439e-05 1.24712e-05 0)
(1.81231e-05 1.28643e-05 0)
(1.85025e-05 1.3261e-05 0)
(1.88823e-05 1.36619e-05 0)
(1.92625e-05 1.40674e-05 0)
(1.96435e-05 1.44781e-05 0)
(2.00253e-05 1.48945e-05 0)
(2.0408e-05 1.53169e-05 0)
(2.07915e-05 1.57459e-05 0)
(2.11757e-05 1.6182e-05 0)
(2.15602e-05 1.66258e-05 0)
(2.19386e-05 1.70768e-05 -1.06707e-20)
(1.3599e-05 8.84679e-06 0)
(1.40383e-05 9.26774e-06 0)
(1.44712e-05 9.68191e-06 0)
(1.48969e-05 1.009e-05 0)
(1.53172e-05 1.04948e-05 0)
(1.57325e-05 1.08973e-05 0)
(1.61437e-05 1.12993e-05 0)
(1.65514e-05 1.17017e-05 0)
(1.69564e-05 1.21057e-05 0)
(1.73591e-05 1.25121e-05 0)
(1.77601e-05 1.29216e-05 0)
(1.81598e-05 1.33349e-05 0)
(1.85586e-05 1.37527e-05 0)
(1.89569e-05 1.41755e-05 0)
(1.9355e-05 1.46038e-05 0)
(1.97531e-05 1.50384e-05 0)
(2.01514e-05 1.54799e-05 0)
(2.05499e-05 1.59292e-05 0)
(2.09485e-05 1.63872e-05 0)
(2.13408e-05 1.68539e-05 -1.09117e-20)
(1.24933e-05 8.2788e-06 0)
(1.29825e-05 8.72609e-06 0)
(1.34618e-05 9.16543e-06 0)
(1.39295e-05 9.59679e-06 0)
(1.43886e-05 1.00234e-05 0)
(1.48392e-05 1.04464e-05 0)
(1.5283e-05 1.08675e-05 0)
(1.57205e-05 1.12881e-05 0)
(1.61529e-05 1.17093e-05 0)
(1.65808e-05 1.2132e-05 0)
(1.7005e-05 1.25573e-05 0)
(1.74261e-05 1.29858e-05 0)
(1.78449e-05 1.34183e-05 0)
(1.82617e-05 1.38555e-05 0)
(1.86773e-05 1.4298e-05 0)
(1.90919e-05 1.47467e-05 0)
(1.95059e-05 1.52024e-05 0)
(1.99197e-05 1.56663e-05 0)
(2.03334e-05 1.61395e-05 0)
(2.07411e-05 1.66226e-05 -1.11954e-20)
(1.13741e-05 7.65043e-06 0)
(1.19129e-05 8.12884e-06 0)
(1.24385e-05 8.59774e-06 0)
(1.29489e-05 9.05669e-06 0)
(1.34474e-05 9.50895e-06 0)
(1.39344e-05 9.95607e-06 0)
(1.44116e-05 1.03999e-05 0)
(1.488e-05 1.0842e-05 0)
(1.53408e-05 1.12835e-05 0)
(1.57949e-05 1.17257e-05 0)
(1.62434e-05 1.21695e-05 0)
(1.6687e-05 1.26159e-05 0)
(1.71265e-05 1.30656e-05 0)
(1.75628e-05 1.35194e-05 0)
(1.79965e-05 1.39782e-05 0)
(1.84282e-05 1.44427e-05 0)
(1.88586e-05 1.49141e-05 0)
(1.92882e-05 1.53936e-05 0)
(1.97175e-05 1.58827e-05 0)
(2.0142e-05 1.63824e-05 -1.15242e-20)
(1.0256e-05 6.96923e-06 0)
(1.08417e-05 7.48223e-06 0)
(1.1412e-05 7.98379e-06 0)
(1.19646e-05 8.47413e-06 0)
(1.25025e-05 8.95567e-06 0)
(1.30262e-05 9.43039e-06 0)
(1.35375e-05 9.90016e-06 0)
(1.40374e-05 1.03667e-05 0)
(1.45273e-05 1.08314e-05 0)
(1.50083e-05 1.12957e-05 0)
(1.54815e-05 1.17606e-05 0)
(1.59481e-05 1.22272e-05 0)
(1.64089e-05 1.26963e-05 0)
(1.6865e-05 1.31689e-05 0)
(1.73172e-05 1.36457e-05 0)
(1.77663e-05 1.41278e-05 0)
(1.82133e-05 1.46161e-05 0)
(1.86588e-05 1.51122e-05 0)
(1.91039e-05 1.56174e-05 0)
(1.95462e-05 1.61338e-05 -1.19006e-20)
(9.2632e-06 6.34934e-06 0)
(9.88393e-06 6.89212e-06 0)
(1.04876e-05 7.42034e-06 0)
(1.1073e-05 7.93726e-06 0)
(1.16419e-05 8.44427e-06 0)
(1.21951e-05 8.94343e-06 0)
(1.2734e-05 9.4365e-06 0)
(1.32597e-05 9.92518e-06 0)
(1.37735e-05 1.0411e-05 0)
(1.42766e-05 1.08953e-05 0)
(1.47703e-05 1.13793e-05 0)
(1.52557e-05 1.18639e-05 0)
(1.5734e-05 1.23503e-05 0)
(1.62061e-05 1.28391e-05 0)
(1.66731e-05 1.33314e-05 0)
(1.71361e-05 1.3828e-05 0)
(1.75962e-05 1.43299e-05 0)
(1.80542e-05 1.48386e-05 0)
(1.85116e-05 1.53554e-05 0)
(1.89685e-05 1.5883e-05 -1.22021e-20)
(7.79235e-06 5.31399e-06 0)
(8.54004e-06 5.92395e-06 0)
(9.17286e-06 6.47934e-06 0)
(9.7884e-06 7.01963e-06 0)
(1.03865e-05 7.54957e-06 0)
(1.09681e-05 8.07007e-06 0)
(1.1534e-05 8.58286e-06 0)
(1.20852e-05 9.08945e-06 0)
(1.26227e-05 9.59129e-06 0)
(1.31477e-05 1.00897e-05 0)
(1.36613e-05 1.0586e-05 0)
(1.41647e-05 1.10811e-05 0)
(1.4659e-05 1.15762e-05 0)
(1.51453e-05 1.20719e-05 0)
(1.56248e-05 1.25692e-05 0)
(1.60985e-05 1.30688e-05 0)
(1.65675e-05 1.35716e-05 0)
(1.7033e-05 1.40785e-05 0)
(1.74963e-05 1.45906e-05 0)
(1.79588e-05 1.51091e-05 0)
(1.84218e-05 1.56366e-05 -1.22773e-20)
(7.2622e-06 5.00248e-06 0)
(7.98528e-06 5.60469e-06 0)
(8.61372e-06 6.1612e-06 0)
(9.22708e-06 6.70544e-06 0)
(9.82466e-06 7.24101e-06 0)
(1.04071e-05 7.76838e-06 0)
(1.09748e-05 8.28875e-06 0)
(1.15284e-05 8.80329e-06 0)
(1.20687e-05 9.31314e-06 0)
(1.25967e-05 9.81938e-06 0)
(1.31134e-05 1.0323e-05 0)
(1.36197e-05 1.08249e-05 0)
(1.41168e-05 1.1326e-05 0)
(1.46056e-05 1.1827e-05 0)
(1.50873e-05 1.23285e-05 0)
(1.55629e-05 1.28312e-05 0)
(1.60335e-05 1.33359e-05 0)
(1.65005e-05 1.38432e-05 0)
(1.6965e-05 1.4354e-05 0)
(1.74288e-05 1.48691e-05 0)
(1.78932e-05 1.53904e-05 -1.22345e-20)
(6.79158e-06 4.70246e-06 0)
(7.4879e-06 5.29652e-06 0)
(8.10533e-06 5.85178e-06 0)
(8.71093e-06 6.39777e-06 0)
(9.30285e-06 6.93717e-06 0)
(9.88155e-06 7.46987e-06 0)
(1.04468e-05 7.99661e-06 0)
(1.09991e-05 8.51813e-06 0)
(1.1539e-05 9.03522e-06 0)
(1.20672e-05 9.54869e-06 0)
(1.25844e-05 1.00593e-05 0)
(1.30915e-05 1.05677e-05 0)
(1.35895e-05 1.10747e-05 0)
(1.40792e-05 1.15807e-05 0)
(1.45619e-05 1.20863e-05 0)
(1.50384e-05 1.25921e-05 0)
(1.55098e-05 1.30986e-05 0)
(1.59776e-05 1.36061e-05 0)
(1.64428e-05 1.41154e-05 0)
(1.69074e-05 1.46267e-05 0)
(1.73726e-05 1.51412e-05 -1.22087e-20)
(6.37187e-06 4.41637e-06 0)
(7.03978e-06 5.00028e-06 0)
(7.64233e-06 5.55218e-06 0)
(8.23603e-06 6.09812e-06 0)
(8.81835e-06 6.63977e-06 0)
(9.38953e-06 7.17645e-06 0)
(9.9489e-06 7.70839e-06 0)
(1.04968e-05 8.23591e-06 0)
(1.10333e-05 8.75943e-06 0)
(1.1559e-05 9.27946e-06 0)
(1.20744e-05 9.79648e-06 0)
(1.25803e-05 1.0311e-05 0)
(1.30775e-05 1.08235e-05 0)
(1.35668e-05 1.13343e-05 0)
(1.40492e-05 1.18439e-05 0)
(1.45255e-05 1.23526e-05 0)
(1.4997e-05 1.28606e-05 0)
(1.54648e-05 1.33683e-05 0)
(1.59302e-05 1.38757e-05 0)
(1.63952e-05 1.4383e-05 0)
(1.68609e-05 1.48904e-05 -1.22012e-20)
(5.99583e-06 4.14509e-06 0)
(6.63469e-06 4.71783e-06 0)
(7.21946e-06 5.26471e-06 0)
(7.79813e-06 5.80893e-06 0)
(8.36776e-06 6.35124e-06 0)
(8.92838e-06 6.89044e-06 0)
(9.479e-06 7.4263e-06 0)
(1.00197e-05 7.95868e-06 0)
(1.05503e-05 8.48766e-06 0)
(1.10713e-05 9.01342e-06 0)
(1.1583e-05 9.53619e-06 0)
(1.20859e-05 1.00562e-05 0)
(1.25807e-05 1.05738e-05 0)
(1.30682e-05 1.10891e-05 0)
(1.35492e-05 1.16023e-05 0)
(1.40245e-05 1.21136e-05 0)
(1.44952e-05 1.2623e-05 0)
(1.49625e-05 1.31306e-05 0)
(1.54275e-05 1.36361e-05 0)
(1.58923e-05 1.41393e-05 0)
(1.63576e-05 1.46397e-05 -1.22126e-20)
(5.65595e-06 3.88869e-06 0)
(6.26595e-06 4.44939e-06 0)
(6.83112e-06 4.98994e-06 0)
(7.39261e-06 5.53109e-06 0)
(7.94727e-06 6.0727e-06 0)
(8.49498e-06 6.61315e-06 0)
(9.03453e-06 7.15172e-06 0)
(9.5658e-06 7.68788e-06 0)
(1.00885e-05 8.22135e-06 0)
(1.06028e-05 8.75198e-06 0)
(1.11089e-05 9.27972e-06 0)
(1.16073e-05 9.80461e-06 0)
(1.20984e-05 1.03267e-05 0)
(1.25829e-05 1.08459e-05 0)