/*--------------------------------*- C++ -*----------------------------------*\
  =========                 |
  \\      /  F ield         | OpenFOAM: The Open Source CFD Toolbox
   \\    /   O peration     | Website:  https://openfoam.org
    \\  /    A nd           | Version:  9
     \\/     M anipulation  |
\*---------------------------------------------------------------------------*/
FoamFile
{
    format      ascii;
    class       volScalarField;
    location    "15";
    object      sigmaEq;
}
// * * * * * * * * * * * * * * * * * * * * * * * * * * * * * * * * * * * * * //

dimensions      [1 -1 -2 0 0 0 0];

internalField   nonuniform List<scalar> 
1000
(
2.59009e+06
2.46519e+06
2.42893e+06
2.43232e+06
2.42416e+06
2.40826e+06
2.38385e+06
2.35182e+06
2.31871e+06
2.27784e+06
3.01761e+06
2.77307e+06
2.6438e+06
2.58741e+06
2.53881e+06
2.49398e+06
2.44768e+06
2.39974e+06
2.34968e+06
2.30209e+06
3.44825e+06
3.06781e+06
2.84251e+06
2.7201e+06
2.62654e+06
2.54854e+06
2.47756e+06
2.41064e+06
2.34469e+06
2.28627e+06
3.85577e+06
3.34667e+06
3.02466e+06
2.83228e+06
2.68944e+06
2.57533e+06
2.47758e+06
2.39081e+06
2.30914e+06
2.24006e+06
4.24949e+06
3.60704e+06
3.19232e+06
2.9251e+06
2.72899e+06
2.57587e+06
2.44981e+06
2.34235e+06
2.24566e+06
2.16557e+06
4.61774e+06
3.85246e+06
3.34358e+06
2.99864e+06
2.74661e+06
2.55286e+06
2.39798e+06
2.26991e+06
2.15897e+06
2.06794e+06
4.90854e+06
4.06156e+06
3.45539e+06
3.03776e+06
2.73345e+06
2.50292e+06
2.32261e+06
2.17675e+06
2.05413e+06
1.95341e+06
5.18372e+06
4.22941e+06
3.51937e+06
3.03862e+06
2.6909e+06
2.43232e+06
2.2336e+06
2.0756e+06
1.94572e+06
1.83818e+06
5.41309e+06
4.29542e+06
3.49373e+06
2.96528e+06
2.60102e+06
2.33467e+06
2.13274e+06
1.97279e+06
1.84242e+06
1.73237e+06
5.7738e+06
4.2154e+06
3.37794e+06
2.86362e+06
2.51806e+06
2.26501e+06
2.07131e+06
1.91582e+06
1.78798e+06
1.67729e+06
10277.4
19133.1
87849.8
184949
292766
404597
513522
617495
713568
804047
22420.2
126361
266590
403993
527325
637725
734940
824108
901213
974299
101103
296200
473552
631704
764599
876608
969752
1.04884e+06
1.11147e+06
1.17167e+06
237526
505141
704767
871007
1.00567e+06
1.1151e+06
1.20099e+06
1.27063e+06
1.32115e+06
1.37096e+06
434095
742772
953755
1.12172e+06
1.25107e+06
1.35127e+06
1.42651e+06
1.48487e+06
1.52312e+06
1.56247e+06
689936
999659
1.2091e+06
1.3734e+06
1.4912e+06
1.57859e+06
1.64078e+06
1.68627e+06
1.71192e+06
1.74025e+06
999413
1.27168e+06
1.46709e+06
1.61779e+06
1.71992e+06
1.79179e+06
1.83919e+06
1.87059e+06
1.88346e+06
1.89999e+06
1.35376e+06
1.55622e+06
1.72025e+06
1.84861e+06
1.93081e+06
1.98481e+06
2.01633e+06
2.03292e+06
2.03368e+06
2.03758e+06
1.74443e+06
1.85326e+06
1.96575e+06
2.06239e+06
2.11994e+06
2.15368e+06
2.16801e+06
2.16927e+06
2.15832e+06
2.15024e+06
2.15727e+06
2.15754e+06
2.20239e+06
2.25695e+06
2.28426e+06
2.29439e+06
2.28993e+06
2.27438e+06
2.25445e+06
2.22923e+06
885321
955663
1.02075e+06
1.07953e+06
1.13268e+06
1.18044e+06
1.22332e+06
1.26161e+06
1.29572e+06
1.3259e+06
1.35243e+06
1.3755e+06
1.39527e+06
1.41182e+06
1.4252e+06
1.43549e+06
1.44265e+06
1.44693e+06
1.44829e+06
1.44765e+06
1.03085e+06
1.07335e+06
1.11605e+06
1.15541e+06
1.19235e+06
1.22646e+06
1.25796e+06
1.28674e+06
1.31298e+06
1.33669e+06
1.35801e+06
1.37697e+06
1.39368e+06
1.40819e+06
1.4205e+06
1.43068e+06
1.43861e+06
1.4443e+06
1.44716e+06
1.44707e+06
1.20616e+06
1.22214e+06
1.24207e+06
1.26067e+06
1.27961e+06
1.29795e+06
1.31596e+06
1.33316e+06
1.34964e+06
1.36514e+06
1.37969e+06
1.39317e+06
1.40558e+06
1.41687e+06
1.42698e+06
1.43584e+06
1.44314e+06
1.44862e+06
1.45104e+06
1.44997e+06
1.38679e+06
1.37994e+06
1.37981e+06
1.37955e+06
1.38151e+06
1.38445e+06
1.38891e+06
1.39413e+06
1.40025e+06
1.4068e+06
1.41376e+06
1.42088e+06
1.42807e+06
1.43516e+06
1.44198e+06
1.44833e+06
1.45374e+06
1.45784e+06
1.45909e+06
1.45716e+06
1.56175e+06
1.53556e+06
1.51806e+06
1.50128e+06
1.48815e+06
1.47697e+06
1.46875e+06
1.46242e+06
1.45832e+06
1.45583e+06
1.45494e+06
1.45528e+06
1.45672e+06
1.45901e+06
1.46188e+06
1.46506e+06
1.46798e+06
1.47022e+06
1.47026e+06
1.46789e+06
1.72473e+06
1.68232e+06
1.6502e+06
1.61918e+06
1.59313e+06
1.56946e+06
1.54993e+06
1.53305e+06
1.51943e+06
1.5083e+06
1.49971e+06
1.49325e+06
1.48875e+06
1.48593e+06
1.48449e+06
1.48412e+06
1.48428e+06
1.48455e+06
1.48371e+06
1.48152e+06
1.87147e+06
1.81591e+06
1.77236e+06
1.72925e+06
1.69262e+06
1.65811e+06
1.62864e+06
1.60227e+06
1.57989e+06
1.56072e+06
1.54483e+06
1.53182e+06
1.52152e+06
1.51362e+06
1.50785e+06
1.50388e+06
1.5013e+06
1.49971e+06
1.49837e+06
1.49692e+06
1.99824e+06
1.93242e+06
1.8812e+06
1.82793e+06
1.78306e+06
1.73985e+06
1.70219e+06
1.66786e+06
1.63783e+06
1.61144e+06
1.5888e+06
1.56959e+06
1.55366e+06
1.54078e+06
1.53071e+06
1.52319e+06
1.51796e+06
1.51468e+06
1.51322e+06
1.51301e+06
2.1046e+06
2.0293e+06
1.97592e+06
1.91523e+06
1.86361e+06
1.81325e+06
1.76828e+06
1.72706e+06
1.69032e+06
1.65764e+06
1.62904e+06
1.60431e+06
1.58333e+06
1.56589e+06
1.55187e+06
1.54106e+06
1.53343e+06
1.52869e+06
1.52739e+06
1.52872e+06
2.18664e+06
2.10709e+06
2.05363e+06
1.99198e+06
1.93621e+06
1.88178e+06
1.83111e+06
1.78402e+06
1.74109e+06
1.70235e+06
1.6679e+06
1.63766e+06
1.61157e+06
1.58953e+06
1.57148e+06
1.55729e+06
1.54719e+06
1.54096e+06
1.53987e+06
1.54292e+06
2.22359e+06
2.14884e+06
2.09363e+06
2.03415e+06
1.97736e+06
1.92199e+06
1.86953e+06
1.82014e+06
1.77447e+06
1.73269e+06
1.69503e+06
1.66153e+06
1.63226e+06
1.60721e+06
1.58646e+06
1.56997e+06
1.55821e+06
1.55104e+06
1.55028e+06
1.55477e+06
2.17164e+06
2.12683e+06
2.07597e+06
2.02356e+06
1.9719e+06
1.92082e+06
1.87173e+06
1.82484e+06
1.7809e+06
1.74017e+06
1.70302e+06
1.66961e+06
1.64011e+06
1.61463e+06
1.59338e+06
1.57645e+06
1.56447e+06
1.55742e+06
1.55752e+06
1.56349e+06
2.13115e+06
2.09381e+06
2.0532e+06
2.00712e+06
1.96133e+06
1.91455e+06
1.86897e+06
1.82468e+06
1.78268e+06
1.74328e+06
1.70696e+06
1.67399e+06
1.64463e+06
1.61909e+06
1.59769e+06
1.58063e+06
1.56867e+06
1.56182e+06
1.56257e+06
1.5695e+06
2.07977e+06
2.05243e+06
2.02045e+06
1.98089e+06
1.941e+06
1.89889e+06
1.8573e+06
1.81622e+06
1.77684e+06
1.73949e+06
1.70476e+06
1.67297e+06
1.64448e+06
1.61956e+06
1.59859e+06
1.5819e+06
1.57022e+06
1.56381e+06
1.56529e+06
1.57277e+06
2.02009e+06
2.00109e+06
1.97741e+06
1.94478e+06
1.91126e+06
1.87444e+06
1.83747e+06
1.80026e+06
1.76415e+06
1.7295e+06
1.69701e+06
1.66704e+06
1.64002e+06
1.61628e+06
1.59619e+06
1.5803e+06
1.56889e+06
1.56361e+06
1.56294e+06
1.57323e+06
1.95537e+06
1.94404e+06
1.9279e+06
1.90197e+06
1.87458e+06
1.84314e+06
1.81098e+06
1.77796e+06
1.74553e+06
1.71407e+06
1.68433e+06
1.65672e+06
1.63171e+06
1.60964e+06
1.59102e+06
1.57615e+06
1.56595e+06
1.56064e+06
1.56244e+06
1.56974e+06
1.88707e+06
1.88239e+06
1.87297e+06
1.85342e+06
1.83194e+06
1.80593e+06
1.7787e+06
1.75014e+06
1.7217e+06
1.69381e+06
1.66725e+06
1.64243e+06
1.61986e+06
1.5999e+06
1.58304e+06
1.56959e+06
1.5604e+06
1.55548e+06
1.55713e+06
1.564e+06
1.81663e+06
1.8177e+06
1.81424e+06
1.8006e+06
1.78467e+06
1.76394e+06
1.74162e+06
1.71762e+06
1.69338e+06
1.66933e+06
1.64626e+06
1.62459e+06
1.60483e+06
1.58733e+06
1.57256e+06
1.56077e+06
1.55273e+06
1.54846e+06
1.5499e+06
1.55581e+06
1.74481e+06
1.75072e+06
1.75246e+06
1.74422e+06
1.73347e+06
1.71785e+06
1.70039e+06
1.68101e+06
1.66112e+06
1.64113e+06
1.62181e+06
1.60358e+06
1.58694e+06
1.57222e+06
1.55982e+06
1.54995e+06
1.54325e+06
1.53966e+06
1.5408e+06
1.54557e+06
1.672e+06
1.68199e+06
1.68826e+06
1.68494e+06
1.67902e+06
1.66831e+06
1.65562e+06
1.64089e+06
1.62544e+06
1.60968e+06
1.59432e+06
1.57979e+06
1.56653e+06
1.55484e+06
1.54507e+06
1.53737e+06
1.53219e+06
1.52944e+06
1.53027e+06
1.53373e+06
1.59822e+06
1.61163e+06
1.62185e+06
1.62305e+06
1.62169e+06
1.61574e+06
1.60776e+06
1.59773e+06
1.58682e+06
1.57544e+06
1.56424e+06
1.55361e+06
1.54395e+06
1.53552e+06
1.52861e+06
1.5233e+06
1.51985e+06
1.51809e+06
1.51869e+06
1.52084e+06
1.5232e+06
1.53955e+06
1.55332e+06
1.55875e+06
1.56177e+06
1.5605e+06
1.55726e+06
1.55198e+06
1.54575e+06
1.5389e+06
1.53204e+06
1.52549e+06
1.51963e+06
1.51467e+06
1.51081e+06
1.50808e+06
1.50656e+06
1.506e+06
1.50652e+06
1.50747e+06
1.4464e+06
1.46543e+06
1.4825e+06
1.49205e+06
1.49943e+06
1.5029e+06
1.50449e+06
1.50413e+06
1.50275e+06
1.50062e+06
1.49828e+06
1.496e+06
1.4941e+06
1.49276e+06
1.4921e+06
1.49211e+06
1.49272e+06
1.49356e+06
1.49425e+06
1.49422e+06
1.36716e+06
1.38884e+06
1.40922e+06
1.423e+06
1.43488e+06
1.4433e+06
1.44996e+06
1.45476e+06
1.45847e+06
1.4613e+06
1.46368e+06
1.46585e+06
1.46804e+06
1.47042e+06
1.47306e+06
1.47592e+06
1.47877e+06
1.48122e+06
1.48237e+06
1.48169e+06
1.28458e+06
1.30921e+06
1.33319e+06
1.35156e+06
1.36836e+06
1.38213e+06
1.39426e+06
1.4046e+06
1.41374e+06
1.42182e+06
1.42916e+06
1.43593e+06
1.44234e+06
1.44849e+06
1.45445e+06
1.46015e+06
1.4653e+06
1.46946e+06
1.47139e+06
1.47045e+06
1.198e+06
1.22628e+06
1.25448e+06
1.27813e+06
1.30047e+06
1.32021e+06
1.33836e+06
1.35472e+06
1.36969e+06
1.38333e+06
1.39587e+06
1.4074e+06
1.41808e+06
1.428e+06
1.43719e+06
1.44561e+06
1.45297e+06
1.45883e+06
1.46178e+06
1.46101e+06
1.10647e+06
1.13962e+06
1.17315e+06
1.20316e+06
1.23203e+06
1.25858e+06
1.28349e+06
1.30648e+06
1.32777e+06
1.34735e+06
1.36533e+06
1.38177e+06
1.39675e+06
1.41034e+06
1.42258e+06
1.43344e+06
1.44271e+06
1.45002e+06
1.45406e+06
1.45387e+06
1.01063e+06
1.05041e+06
1.09077e+06
1.12848e+06
1.16502e+06
1.19933e+06
1.23175e+06
1.26193e+06
1.28996e+06
1.31575e+06
1.33934e+06
1.36072e+06
1.37994e+06
1.39703e+06
1.41202e+06
1.42492e+06
1.4356e+06
1.44385e+06
1.44871e+06
1.44922e+06
910742
959787
1.00913e+06
1.05631e+06
1.10192e+06
1.14505e+06
1.18576e+06
1.22369e+06
1.25882e+06
1.29103e+06
1.32032e+06
1.34666e+06
1.37003e+06
1.39044e+06
1.40786e+06
1.42228e+06
1.43359e+06
1.4418e+06
1.44647e+06
1.44735e+06
813666
874514
934675
992505
1.04801e+06
1.10037e+06
1.14954e+06
1.19516e+06
1.23722e+06
1.27559e+06
1.31028e+06
1.34125e+06
1.36848e+06
1.39192e+06
1.41144e+06
1.42695e+06
1.43823e+06
1.44538e+06
1.4482e+06
1.4479e+06
1.58375e+06
1.63731e+06
1.73913e+06
1.8531e+06
1.96972e+06
2.07204e+06
2.1531e+06
2.2072e+06
2.23494e+06
2.22945e+06
1.49777e+06
1.54827e+06
1.64391e+06
1.75408e+06
1.8717e+06
1.98077e+06
2.07411e+06
2.14362e+06
2.18767e+06
2.19557e+06
1.42026e+06
1.46832e+06
1.55767e+06
1.66139e+06
1.77438e+06
1.8819e+06
1.978e+06
2.05616e+06
2.11543e+06
2.14902e+06
1.34925e+06
1.39583e+06
1.48048e+06
1.57911e+06
1.68844e+06
1.79472e+06
1.89203e+06
1.97417e+06
2.03818e+06
2.08634e+06
1.28261e+06
1.32797e+06
1.40824e+06
1.50143e+06
1.60591e+06
1.70932e+06
1.80623e+06
1.89195e+06
1.96016e+06
2.01832e+06
1.21998e+06
1.2646e+06
1.34143e+06
1.42999e+06
1.52988e+06
1.62983e+06
1.7245e+06
1.8109e+06
1.88027e+06
1.94497e+06
1.1601e+06
1.20412e+06
1.27794e+06
1.3622e+06
1.45758e+06
1.55391e+06
1.64595e+06
1.7322e+06
1.80171e+06
1.8696e+06
1.10268e+06
1.14623e+06
1.21752e+06
1.29795e+06
1.38904e+06
1.48151e+06
1.57029e+06
1.65516e+06
1.72404e+06
1.79324e+06
1.04735e+06
1.09019e+06
1.15918e+06
1.2361e+06
1.32312e+06
1.41177e+06
1.4972e+06
1.58002e+06
1.64775e+06
1.71678e+06
994495
1.03573e+06
1.10254e+06
1.17613e+06
1.25922e+06
1.34397e+06
1.42588e+06
1.50611e+06
1.57241e+06
1.64041e+06
943169
982580
1.04711e+06
1.11736e+06
1.19655e+06
1.27734e+06
1.35568e+06
1.43294e+06
1.49758e+06
1.56397e+06
893474
930681
992598
1.05927e+06
1.13439e+06
1.21102e+06
1.28567e+06
1.35969e+06
1.4225e+06
1.48699e+06
845754
880697
938729
1.00124e+06
1.07186e+06
1.14403e+06
1.2148e+06
1.28538e+06
1.34625e+06
1.40871e+06
800682
832493
885278
942659
1.00806e+06
1.0753e+06
1.14193e+06
1.2089e+06
1.26778e+06
1.32822e+06
759632
786438
831804
882393
941448
1.00313e+06
1.06537e+06
1.12867e+06
1.18566e+06
1.24432e+06
724561
742791
777589
819265
870585
926024
983619
1.04332e+06
1.09869e+06
1.15597e+06
699392
702276
721067
749726
791696
840462
893633
950305
1.00485e+06
1.06169e+06
686699
661275
657820
671889
702946
744824
794254
848922
903911
961608
696991
614343
575970
572994
595495
632850
680544
735524
793714
854854
700873
527239
467779
450489
469387
506568
557354
616636
680432
748091
)
;

boundaryField
{
    left
    {
        type            calculated;
        value           nonuniform List<scalar> 
30
(
1.57041e+06
1.48467e+06
1.40735e+06
1.33641e+06
1.26989e+06
1.20743e+06
1.14784e+06
1.09086e+06
1.03631e+06
984366
934260
886146
840425
797865
759942
729248
710847
713479
763471
879664
6.10593e+06
4.11674e+06
3.26713e+06
2.79784e+06
2.47997e+06
2.24167e+06
2.05502e+06
1.90252e+06
1.77584e+06
1.66455e+06
)
;
    }
    right
    {
        type            calculated;
        value           nonuniform List<scalar> 
30
(
1.44736e+06
1.44707e+06
1.44981e+06
1.45689e+06
1.46757e+06
1.48121e+06
1.49669e+06
1.5129e+06
1.52875e+06
1.54315e+06
1.55508e+06
1.56401e+06
1.57009e+06
1.5734e+06
1.57339e+06
1.5703e+06
1.56461e+06
1.55634e+06
1.546e+06
1.53404e+06
1.52103e+06
1.50755e+06
1.49421e+06
1.48161e+06
1.47033e+06
1.4609e+06
1.4538e+06
1.44922e+06
1.44742e+06
1.44756e+06
)
;
    }
    down
    {
        type            calculated;
        value           nonuniform List<scalar> 
30
(
7807.3
5651.64
65449.7
160541
270062
384527
496345
602956
701056
793470
876699
949227
1.01585e+06
1.07577e+06
1.12981e+06
1.17824e+06
1.22165e+06
1.26035e+06
1.29478e+06
1.32521e+06
1.35195e+06
1.37518e+06
1.39506e+06
1.4117e+06
1.42515e+06
1.43547e+06
1.44263e+06
1.44691e+06
1.44828e+06
1.44781e+06
)
;
    }
    up
    {
        type            calculated;
        value           nonuniform List<scalar> 
30
(
679200
521003
465903
448867
467382
504069
554498
613588
677291
745039
810748
871914
932443
990584
1.0464e+06
1.09903e+06
1.14845e+06
1.19429e+06
1.23654e+06
1.27508e+06
1.30992e+06
1.34101e+06
1.36834e+06
1.39185e+06
1.41143e+06
1.42697e+06
1.43826e+06
1.44539e+06
1.44819e+06
1.44799e+06
)
;
    }
    hole
    {
        type            calculated;
        value           nonuniform List<scalar> 
20
(
2.43151e+06
2.77881e+06
3.20833e+06
3.73563e+06
4.22841e+06
4.5072e+06
4.8026e+06
5.15429e+06
5.03748e+06
4.98507e+06
3779.55
3712.83
50772.7
173547
364880
622619
938430
1.30214e+06
1.70421e+06
2.1289e+06
)
;
    }
    frontAndBack
    {
        type            empty;
    }
}


// ************************************************************************* //
