/*--------------------------------*- C++ -*----------------------------------*\
  =========                 |
  \\      /  F ield         | OpenFOAM: The Open Source CFD Toolbox
   \\    /   O peration     | Website:  https://openfoam.org
    \\  /    A nd           | Version:  9
     \\/     M anipulation  |
\*---------------------------------------------------------------------------*/
FoamFile
{
    format      ascii;
    class       volSymmTensorField;
    location    "15";
    object      sigma;
}
// * * * * * * * * * * * * * * * * * * * * * * * * * * * * * * * * * * * * * //

dimensions      [1 -1 -2 0 0 0 0];

internalField   nonuniform List<symmTensor> 
1000
(
(1.83416e+06 -1.2681e+06 -5.99021e-10 1.07414e+06 -8.86155e-10 249525)
(2.15765e+06 -976051 -3.8765e-10 580581 -6.08627e-10 205602)
(2.32074e+06 -748268 -2.30313e-10 355556 -4.18232e-10 187695)
(2.39015e+06 -576475 -1.19637e-10 174423 -2.77849e-10 170021)
(2.41598e+06 -437615 -3.31349e-11 69730.5 -1.71768e-10 159651)
(2.40647e+06 -329410 3.01535e-11 -8809.01 -9.19675e-11 150482)
(2.38265e+06 -241259 7.9864e-11 -59318.9 -2.98746e-11 143962)
(2.34547e+06 -171247 1.16866e-10 -95821.2 1.74774e-11 138341)
(2.30709e+06 -113001 1.46794e-10 -119837 5.5505e-11 134117)
(2.25607e+06 -64553 1.68878e-10 -142822 8.58699e-11 129258)
(2.31513e+06 -1.40611e+06 -5.84284e-10 1.08654e+06 -9.34433e-10 271692)
(2.5476e+06 -1.00816e+06 -3.51228e-10 609125 -6.00162e-10 228376)
(2.63454e+06 -719305 -1.66049e-10 407330 -3.78534e-10 210546)
(2.64329e+06 -512948 -4.22407e-11 235449 -2.2151e-10 191529)
(2.62274e+06 -354340 5.01881e-11 138820 -1.07236e-10 180167)
(2.57521e+06 -236337 1.14269e-10 63824.2 -2.45864e-11 169695)
(2.52042e+06 -143842 1.62346e-10 15548.7 3.74985e-11 161978)
(2.45766e+06 -73640.9 1.9578e-10 -22410.1 8.29792e-11 154889)
(2.39542e+06 -16670.1 2.21553e-10 -45571.4 1.18047e-10 149566)
(2.32658e+06 28884.9 2.39038e-10 -76889.2 1.45956e-10 142689)
(2.84472e+06 -1.50017e+06 -5.85275e-10 1.05958e+06 -9.50646e-10 294195)
(2.94579e+06 -1.00342e+06 -2.91094e-10 627013 -5.65405e-10 250697)
(2.93677e+06 -668351 -8.96557e-11 462897 -3.25719e-10 233622)
(2.87617e+06 -435124 4.17014e-11 313503 -1.59409e-10 214442)
(2.80314e+06 -263014 1.35495e-10 230625 -4.22428e-11 202434)
(2.71424e+06 -139502 1.97371e-10 163572 3.96282e-11 191004)
(2.62678e+06 -46324.7 2.41376e-10 119933 9.88621e-11 182265)
(2.53728e+06 21640.5 2.69641e-10 82575.6 1.40534e-10 173885)
(2.45323e+06 74546.7 2.8982e-10 60338.8 1.70963e-10 167533)
(2.36574e+06 117521 3.0289e-10 24056.8 1.96163e-10 159040)
(3.401e+06 -1.52129e+06 -5.36489e-10 980136 -9.10037e-10 312115)
(3.33948e+06 -965395 -2.1099e-10 643463 -5.0887e-10 273076)
(3.22275e+06 -598605 -3.70481e-12 524674 -2.62579e-10 256959)
(3.08644e+06 -347981 1.28725e-10 407398 -9.48945e-11 238417)
(2.95557e+06 -169732 2.18683e-10 342373 1.93671e-11 225925)
(2.82315e+06 -45699.5 2.75038e-10 285894 9.66763e-11 213702)
(2.7017e+06 44219.8 3.12351e-10 247321 1.50295e-10 203875)
(2.58612e+06 107485 3.34024e-10 210985 1.86535e-10 194257)
(2.481e+06 154164 3.47316e-10 188023 2.11149e-10 186667)
(2.3781e+06 192145 3.55011e-10 149086 2.32053e-10 176987)
(3.95373e+06 -1.46885e+06 -4.29985e-10 836760 -8.12018e-10 321854)
(3.71275e+06 -890404 -1.11492e-10 639558 -4.27273e-10 292307)
(3.48905e+06 -509419 9.14905e-11 585643 -1.88162e-10 279482)
(3.27048e+06 -254354 2.16363e-10 511104 -2.945e-11 262449)
(3.07881e+06 -78721.9 2.96816e-10 469794 7.51917e-11 249964)
(2.90156e+06 39070.9 3.4335e-10 426492 1.43059e-10 237124)
(2.74647e+06 120895 3.71039e-10 393616 1.87821e-10 226241)
(2.60596e+06 176047 3.84163e-10 358292 2.16473e-10 215392)
(2.48192e+06 214025 3.89294e-10 333132 2.33991e-10 206447)
(2.36558e+06 244952 3.90613e-10 291559 2.494e-10 195652)
(4.46332e+06 -1.36514e+06 -2.97932e-10 688611 -6.83204e-10 329537)
(4.07942e+06 -763771 1.9019e-11 632288 -3.11714e-10 311499)
(3.73575e+06 -395725 1.99303e-10 652422 -9.98778e-11 302126)
(3.43013e+06 -152641 3.05994e-10 628504 3.76885e-11 287156)
(3.17422e+06 7407.43 3.68443e-10 612024 1.23722e-10 274468)
(2.95198e+06 110322 3.99776e-10 582144 1.76395e-10 260913)
(2.76439e+06 178269 4.14361e-10 553369 2.08761e-10 248742)
(2.6011e+06 221671 4.16944e-10 517825 2.27745e-10 236558)
(2.46057e+06 248817 4.12872e-10 488497 2.37191e-10 226092)
(2.33321e+06 270988 4.07092e-10 443935 2.46227e-10 214232)
(4.93611e+06 -1.1505e+06 -1.01333e-10 568614 -4.87449e-10 340613)
(4.41768e+06 -574884 1.84814e-10 645938 -1.59837e-10 332872)
(3.94338e+06 -250119 3.22115e-10 742218 3.52652e-12 326262)
(3.55048e+06 -43300.8 3.95409e-10 765607 1.04262e-10 312569)
(3.23299e+06 84699 4.29852e-10 769091 1.61593e-10 298945)
(2.97036e+06 162457 4.40099e-10 747727 1.93236e-10 284122)
(2.75522e+06 210463 4.38382e-10 718767 2.10113e-10 270266)
(2.57363e+06 238803 4.28908e-10 679935 2.17976e-10 256525)
(2.42063e+06 253811 4.1531e-10 643902 2.1912e-10 244391)
(2.28521e+06 266372 4.02289e-10 595348 2.21585e-10 231473)
(5.41734e+06 -835748 1.60935e-10 520544 -2.33145e-10 362887)
(4.72008e+06 -337638 3.77633e-10 724626 1.34373e-11 361601)
(4.1076e+06 -80967.2 4.5514e-10 886793 1.12477e-10 355688)
(3.63149e+06 61577.6 4.77592e-10 937708 1.60507e-10 340506)
(3.2596e+06 142098 4.74946e-10 945014 1.81412e-10 323986)
(2.96475e+06 186458 4.59754e-10 919785 1.88704e-10 306575)
(2.72914e+06 211194 4.40398e-10 882052 1.89486e-10 290224)
(2.53516e+06 223754 4.19088e-10 834671 1.86859e-10 274527)
(2.37431e+06 227646 3.97159e-10 788831 1.8113e-10 260567)
(2.23414e+06 231580 3.7794e-10 735106 1.7809e-10 246616)
(5.79928e+06 -347312 3.7141e-10 455244 1.73485e-10 384893)
(4.91974e+06 -47278.2 5.918e-10 895622 2.02436e-10 397954)
(4.17764e+06 84607.2 5.74549e-10 1.09312e+06 2.03945e-10 388389)
(3.63435e+06 131682 5.28088e-10 1.14119e+06 1.83524e-10 368124)
(3.23321e+06 155037 4.85027e-10 1.12471e+06 1.66927e-10 346237)
(2.92511e+06 163921 4.45234e-10 1.07804e+06 1.52133e-10 324870)
(2.68334e+06 167697 4.11387e-10 1.02162e+06 1.40704e-10 305483)
(2.48634e+06 167995 3.81599e-10 960718 1.31284e-10 287702)
(2.32383e+06 165031 3.54811e-10 903535 1.22196e-10 272085)
(2.18254e+06 163651 3.31963e-10 844536 1.16159e-10 257316)
(6.3232e+06 346603 6.24795e-10 708500 7.00524e-10 460906)
(5.00048e+06 383466 8.85353e-10 1.34983e+06 4.41364e-10 467202)
(4.1687e+06 239550 6.80096e-10 1.42237e+06 2.67472e-10 432987)
(3.61164e+06 162394 5.51861e-10 1.38707e+06 1.73434e-10 399426)
(3.20763e+06 124874 4.68195e-10 1.29608e+06 1.24988e-10 366835)
(2.90134e+06 108513 4.11558e-10 1.20511e+06 9.87904e-11 339437)
(2.66084e+06 101268 3.70099e-10 1.11929e+06 8.35891e-11 316130)
(2.4648e+06 98040.6 3.37736e-10 1.04215e+06 7.38008e-11 296234)
(2.30245e+06 94918.2 3.10538e-10 974679 6.58111e-11 279284)
(2.16057e+06 93033.1 2.87194e-10 912604 5.97476e-11 264078)
(-8424.13 2922.68 -3.91537e-11 -4774.57 -1.69113e-11 1767.83)
(6879.01 -10634.7 -4.62215e-11 914.496 -2.61354e-11 3577.08)
(68173.7 -33299.4 -5.82695e-11 -3407.6 -4.12669e-11 8970.89)
(166130 -51426.3 -6.55371e-11 -6983.89 -5.33007e-11 17964.3)
(279916 -62593 -6.73608e-11 -8835.66 -6.06488e-11 28651.6)
(399290 -68946.8 -6.57138e-11 -9732.64 -6.47591e-11 39979)
(516225 -71428.6 -6.16143e-11 -9875.31 -6.62737e-11 51155.8)
(627942 -71605.6 -5.62286e-11 -9492.12 -6.62499e-11 61887.8)
(730364 -69693.6 -4.6909e-11 -9298.28 -6.20773e-11 70217.6)
(825829 -68220.7 -3.23711e-11 -7700.56 -5.32113e-11 75223.5)
(11224.5 -11474 -4.67658e-11 -646.534 -2.66684e-11 3869.11)
(90197.7 -61686.3 -6.93582e-11 37928.9 -6.11059e-11 14038.2)
(204824 -117044 -9.87549e-11 39570.2 -9.83239e-11 24778.9)
(326363 -159337 -1.21448e-10 27572.6 -1.26481e-10 35230.9)
(448567 -185327 -1.33664e-10 16094.7 -1.4365e-10 45894.2)
(564684 -199890 -1.38755e-10 5686.63 -1.53136e-10 56131.3)
(672385 -205123 -1.37979e-10 -2331.75 -1.56382e-10 65805.8)
(772036 -204770 -1.24802e-10 -8015.51 -1.47973e-10 70560)
(859925 -199113 -1.08953e-10 -12901.2 -1.36232e-10 74402.1)
(943280 -194603 -9.43173e-11 -13349.3 -1.26147e-10 78578.6)
(34644.2 -56117.6 -6.84823e-11 38209.4 -5.74289e-11 8773.54)
(172775 -153833 -1.17708e-10 81716.7 -1.23917e-10 24671.1)
(330979 -222369 -1.54455e-10 75708 -1.69833e-10 38917.8)
(476219 -268284 -1.80778e-10 46319.9 -2.00099e-10 50293.4)
(609900 -293564 -1.9422e-10 19165.9 -2.165e-10 60868.4)
(727619 -305462 -1.93514e-10 -4470.93 -2.1869e-10 67375.1)
(831005 -306919 -1.80299e-10 -22368.5 -2.08833e-10 70198.5)
(923139 -302030 -1.64583e-10 -35310.3 -1.96308e-10 73193.5)
(1.00018e+06 -291346 -1.47313e-10 -45074.9 -1.81598e-10 75928.9)
(1.07475e+06 -282365 -1.31226e-10 -47900.2 -1.69026e-10 79419.8)
(82991.7 -126037 -9.7905e-11 127250 -1.0608e-10 19717.3)
(284436 -264211 -1.74408e-10 138338 -1.99212e-10 38946.3)
(478585 -336241 -2.14122e-10 114833 -2.4713e-10 55282.6)
(644314 -376640 -2.38554e-10 67103.7 -2.73329e-10 67262.5)
(787671 -393371 -2.38594e-10 25253 -2.7515e-10 73006)
(907017 -396502 -2.24741e-10 -11025.2 -2.62921e-10 74212)
(1.0067e+06 -389763 -2.07287e-10 -38911.9 -2.46805e-10 75665.8)
(1.09219e+06 -377278 -1.88047e-10 -59539.4 -2.28932e-10 77435.4)
(1.15911e+06 -359905 -1.68252e-10 -75123.2 -2.09984e-10 79001.2)
(1.22577e+06 -345222 -1.4986e-10 -81361.4 -1.93917e-10 81732.5)
(165465 -224778 -1.3811e-10 257580 -1.74847e-10 36881.4)
(434207 -384318 -2.34628e-10 200648 -2.81116e-10 57241.3)
(658321 -449026 -2.72758e-10 145358 -3.23503e-10 74078.9)
(838152 -475967 -2.81114e-10 74261.2 -3.31141e-10 80743.1)
(985509 -477767 -2.63129e-10 17020.5 -3.13236e-10 80641.1)
(1.10245e+06 -467259 -2.41532e-10 -31057.8 -2.9083e-10 80383.7)
(1.19574e+06 -448831 -2.18003e-10 -67453.5 -2.66544e-10 80575.4)
(1.27278e+06 -426248 -1.93897e-10 -94321.6 -2.41989e-10 81252.8)
(1.3287e+06 -400856 -1.7083e-10 -114358 -2.18157e-10 81802.1)
(1.38676e+06 -379265 -1.49449e-10 -122966 -1.97978e-10 83892.5)
(292847 -354428 -1.91373e-10 418879 -2.64944e-10 60499.7)
(626975 -506016 -2.92721e-10 270276 -3.64164e-10 80202.4)
(874848 -550448 -3.18905e-10 174382 -3.88853e-10 94557.8)
(1.06168e+06 -557075 -2.99583e-10 77575.8 -3.66217e-10 91212.9)
(1.20678e+06 -539927 -2.70628e-10 5688.01 -3.34284e-10 89359.7)
(1.31621e+06 -513371 -2.40463e-10 -52552.1 -3.00731e-10 87630.8)
(1.3993e+06 -481780 -2.10434e-10 -95773.6 -2.67819e-10 86609.6)
(1.46489e+06 -448223 -1.81295e-10 -127377 -2.36432e-10 86252.9)
(1.50793e+06 -414578 -1.55048e-10 -150894 -2.07831e-10 85821.2)
(1.55555e+06 -385730 -1.30697e-10 -161061 -1.83559e-10 87288.7)
(474119 -513715 -2.59078e-10 592684 -3.75177e-10 90036.6)
(861988 -624487 -3.46323e-10 342573 -4.45025e-10 107435)
(1.12437e+06 -634540 -3.34738e-10 202277 -4.26548e-10 109485)
(1.3097e+06 -613972 -2.99614e-10 78507.1 -3.82943e-10 102941)
(1.44562e+06 -574726 -2.58687e-10 -7024.98 -3.35603e-10 99164.7)
(1.54186e+06 -530822 -2.19907e-10 -73921.8 -2.90699e-10 95894.2)
(1.61055e+06 -485705 -1.83689e-10 -122169 -2.49483e-10 93689.6)
(1.66118e+06 -441346 -1.50078e-10 -157051 -2.11843e-10 92310.3)
(1.68941e+06 -400001 -1.21225e-10 -182725 -1.79157e-10 90965.6)
(1.72408e+06 -364128 -9.43832e-11 -193817 -1.5123e-10 91764.2)
(717002 -696297 -3.39476e-10 760350 -5.00936e-10 124855)
(1.1372e+06 -735073 -3.88485e-10 414299 -5.16452e-10 136303)
(1.40117e+06 -697379 -3.33402e-10 233153 -4.48233e-10 126467)
(1.57517e+06 -643540 -2.8003e-10 84712.1 -3.80742e-10 116615)
(1.69474e+06 -580021 -2.26725e-10 -12209.8 -3.17424e-10 110881)
(1.77226e+06 -518525 -1.79903e-10 -85867.7 -2.61694e-10 106043)
(1.82259e+06 -460549 -1.38427e-10 -137656 -2.13123e-10 102640)
(1.85506e+06 -406578 -1.0149e-10 -174431 -1.70448e-10 100242)
(1.86684e+06 -358856 -7.10787e-11 -201982 -1.34722e-10 97919.5)
(1.88606e+06 -316875 -4.26452e-11 -213228 -1.04048e-10 98011.2)
(1.02644e+06 -892412 -4.2842e-10 905728 -6.35345e-10 164265)
(1.44828e+06 -833548 -4.03228e-10 481444 -5.62988e-10 159216)
(1.69772e+06 -737258 -3.14851e-10 268735 -4.53617e-10 145374)
(1.8492e+06 -645549 -2.4181e-10 100513 -3.60713e-10 132355)
(1.94509e+06 -556509 -1.7628e-10 -4245.81 -2.81625e-10 124778)
(1.99845e+06 -478029 -1.22499e-10 -82542 -2.16177e-10 118366)
(2.02687e+06 -408439 -7.6978e-11 -135895 -1.61603e-10 113828)
(2.0379e+06 -346839 -3.83993e-11 -174122 -1.15532e-10 110275)
(2.0325e+06 -294340 -7.48139e-12 -202224 -7.80379e-11 107090)
(2.0331e+06 -247398 2.12795e-11 -216712 -4.52852e-11 105898)
(1.40072e+06 -1.0866e+06 -5.18828e-10 1.01011e+06 -7.67657e-10 206782)
(1.79002e+06 -915706 -4.03837e-10 537634 -5.94878e-10 182469)
(2.00638e+06 -754342 -2.80255e-10 309670 -4.43532e-10 165906)
(2.12296e+06 -622259 -1.87483e-10 129900 -3.25561e-10 150208)
(2.18741e+06 -507568 -1.10594e-10 22192 -2.31838e-10 141036)
(2.21134e+06 -413212 -5.1193e-11 -57738.5 -1.58198e-10 133164)
(2.2143e+06 -333708 -3.13708e-12 -111138 -9.92201e-11 127486)
(2.20175e+06 -266677 3.54878e-11 -148518 -5.16525e-11 122941)
(2.17913e+06 -212286 6.50572e-11 -178932 -1.4098e-11 118619)
(2.15839e+06 -165102 9.1054e-11 -189700 1.65782e-11 116847)
(911188 -63286.9 -1.7173e-11 -7695.14 -4.2729e-11 79565.3)
(986302 -56463.9 -2.20272e-12 -5982.05 -3.20624e-11 83643.5)
(1.05515e+06 -50535.5 1.13039e-11 -4761.35 -2.24606e-11 87331.1)
(1.11696e+06 -45154.3 2.34627e-11 -3857.63 -1.37783e-11 90618.2)
(1.17276e+06 -40165.4 3.45212e-11 -2964.8 -5.86366e-12 93597.1)
(1.2227e+06 -35699.7 4.44142e-11 -2312.64 1.23734e-12 96243.8)
(1.26747e+06 -31604.7 5.3342e-11 -1689.04 7.66007e-12 98623.6)
(1.30735e+06 -27911.9 6.13193e-11 -1208.75 1.34194e-11 100734)
(1.34284e+06 -24526.8 6.84796e-11 -783.783 1.86098e-11 102613)
(1.37418e+06 -21425.8 7.48714e-11 -452.739 2.32728e-11 104268)
(1.40171e+06 -18541.5 8.05838e-11 -182.913 2.74768e-11 105721)
(1.4256e+06 -15832.4 8.56695e-11 14.5451 3.12664e-11 106981)
(1.44605e+06 -13245.5 9.01862e-11 148.555 3.46903e-11 108058)
(1.46314e+06 -10741.8 9.41723e-11 216.623 3.77833e-11 108958)
(1.47692e+06 -8289.78 9.76547e-11 218.162 4.05701e-11 109682)
(1.48749e+06 -5886.58 1.00647e-10 162.254 4.30586e-11 110238)
(1.49479e+06 -3566.36 1.03121e-10 47.092 4.52231e-11 110621)
(1.49914e+06 -1460.76 1.05044e-10 -40.6732 4.69931e-11 110857)
(1.50055e+06 152.643 1.06247e-10 -32.6028 4.81782e-11 110952)
(1.50041e+06 532.041 1.06489e-10 777.035 4.83233e-11 111055)
(1.01038e+06 -181200 -7.65823e-11 -17220.3 -1.11164e-10 81621.9)
(1.06574e+06 -163082 -5.745e-11 -16785.4 -9.4556e-11 84704.8)
(1.1191e+06 -147129 -3.99129e-11 -15362.1 -7.96615e-11 87786.1)
(1.16673e+06 -132246 -2.38788e-11 -14636.7 -6.58792e-11 90474.3)
(1.21089e+06 -118302 -8.90009e-12 -13277.6 -5.30846e-11 93057.9)
(1.2506e+06 -105703 4.59609e-12 -12384.1 -4.15012e-11 95339.7)
(1.28688e+06 -94041.9 1.7028e-11 -11305.7 -3.08496e-11 97460.3)
(1.31948e+06 -83453.5 2.82621e-11 -10490.2 -2.1188e-11 99347.2)
(1.34891e+06 -73684.6 3.8537e-11 -9703.65 -1.23322e-11 101061)
(1.37521e+06 -64697.7 4.7875e-11 -9096.14 -4.23787e-12 102583)
(1.39866e+06 -56319.8 5.64261e-11 -8588.99 3.22447e-12 103941)
(1.41936e+06 -48455 6.42635e-11 -8219.66 1.01311e-11 105136)
(1.43748e+06 -40972.3 7.14927e-11 -7950.95 1.6578e-11 106183)
(1.45311e+06 -33782.9 7.81858e-11 -7761.24 2.26308e-11 107092)
(1.46636e+06 -26815.2 8.43993e-11 -7596.76 2.83371e-11 107875)
(1.47734e+06 -20067.1 9.01577e-11 -7344.72 3.3697e-11 108552)
(1.48605e+06 -13619.1 9.54145e-11 -6857.15 3.86388e-11 109143)
(1.49275e+06 -7752.16 1.00045e-10 -5755.28 4.29556e-11 109704)
(1.49716e+06 -2890.95 1.03762e-10 -3544.75 4.62862e-11 110282)
(1.49999e+06 -310.411 1.05916e-10 1066.93 4.76976e-11 111060)
(1.12553e+06 -262278 -1.11702e-10 -53020.6 -1.50861e-10 81578)
(1.16083e+06 -237586 -9.13129e-11 -51737.4 -1.31704e-10 83860.5)
(1.19881e+06 -215441 -7.20138e-11 -47072.2 -1.14394e-10 86681.7)
(1.23166e+06 -194883 -5.44827e-11 -44023.4 -9.83808e-11 89012.9)
(1.26376e+06 -175301 -3.76234e-11 -39672.3 -8.32274e-11 91462.1)
(1.29258e+06 -157528 -2.23825e-11 -36325.8 -6.94293e-11 93591.5)
(1.31977e+06 -140901 -8.08065e-12 -32786.6 -5.65497e-11 95647.7)
(1.34443e+06 -125713 4.94822e-12 -29878.2 -4.47617e-11 97474.8)
(1.36721e+06 -111613 1.7027e-11 -27207.8 -3.38247e-11 99161.7)
(1.38785e+06 -98596.5 2.81126e-11 -25026.5 -2.37279e-11 100663)
(1.40665e+06 -86449.6 3.83845e-11 -23205.3 -1.43207e-11 102012)
(1.42356e+06 -75067.1 4.79007e-11 -21794.4 -5.53022e-12 103203)
(1.43874e+06 -64292.4 5.6783e-11 -20720.9 2.75106e-12 104255)
(1.45225e+06 -54016.7 6.51081e-11 -19927.6 1.05933e-11 105179)
(1.46415e+06 -44143.8 7.29501e-11 -19289.5 1.80515e-11 105997)
(1.47456e+06 -34637.5 8.03542e-11 -18579.7 2.51327e-11 106745)
(1.48339e+06 -25520.5 8.73059e-11 -17469.2 3.1777e-11 107460)
(1.49083e+06 -16936.9 9.37632e-11 -15294.3 3.78282e-11 108237)
(1.49623e+06 -9151.34 9.94993e-11 -11113.9 4.29467e-11 109162)
(1.5002e+06 -2516.23 1.04435e-10 -3292.97 4.67622e-11 110472)
(1.26026e+06 -319506 -1.29215e-10 -88251.2 -1.73206e-10 82925.2)
(1.27417e+06 -291218 -1.09648e-10 -87448.6 -1.53425e-10 84125.9)
(1.29622e+06 -265137 -9.00923e-11 -80301.8 -1.3515e-10 86528)
(1.31311e+06 -241348 -7.27814e-11 -75983.8 -1.18498e-10 88271.9)
(1.3322e+06 -218197 -5.54755e-11 -69214.8 -1.02365e-10 90435.6)
(1.349e+06 -197184 -3.98732e-11 -63931.8 -8.76688e-11 92260.6)
(1.36606e+06 -177281 -2.49075e-11 -58232.7 -7.37312e-11 94137.4)
(1.38172e+06 -159013 -1.11842e-11 -53430.2 -6.08885e-11 95804.5)
(1.39687e+06 -141939 1.71318e-12 -48963.2 -4.88395e-11 97385.4)
(1.41092e+06 -126118 1.36546e-11 -45212.6 -3.76282e-11 98800.6)
(1.42417e+06 -111316 2.48311e-11 -42012.4 -2.7095e-11 100090)
(1.43645e+06 -97439.9 3.5275e-11 -39435.7 -1.71833e-11 101236)
(1.44786e+06 -84322.7 4.51052e-11 -37388.3 -7.78639e-12 102258)
(1.45837e+06 -71842.8 5.43992e-11 -35792 1.16642e-12 103168)
(1.46799e+06 -59878.6 6.32368e-11 -34479.9 9.73556e-12 103990)
(1.47676e+06 -48338.4 7.16913e-11 -33166.2 1.79529e-11 104763)
(1.4845e+06 -37163.1 7.97852e-11 -31450 2.57952e-11 105532)
(1.49134e+06 -26279.5 8.76059e-11 -28582.3 3.32345e-11 106401)
(1.49634e+06 -15781.9 9.49948e-11 -23591.6 4.00176e-11 107449)
(1.5003e+06 -4911.56 1.02593e-10 -14735.3 4.65118e-11 108953)
(1.40492e+06 -349164 -1.28414e-10 -130198 -1.75711e-10 84285.2)
(1.39658e+06 -320753 -1.11957e-10 -130038 -1.57658e-10 84290.4)
(1.40297e+06 -293054 -9.35109e-11 -119500 -1.4003e-10 86373.6)
(1.40355e+06 -268663 -7.80994e-11 -113725 -1.24529e-10 87499)
(1.4096e+06 -244161 -6.17163e-11 -104057 -1.08943e-10 89406.4)
(1.41403e+06 -222020 -4.70941e-11 -96419.3 -9.48191e-11 90935.4)
(1.42067e+06 -200727 -3.26625e-11 -88104.9 -8.11472e-11 92650.9)
(1.42695e+06 -181077 -1.93402e-11 -80933.6 -6.84602e-11 94176)
(1.43402e+06 -162561 -6.62179e-12 -74218.3 -5.64009e-11 95666)
(1.44101e+06 -145310 5.26628e-12 -68462.5 -4.50752e-11 97008.5)
(1.44818e+06 -129104 1.65083e-11 -63494.5 -3.43328e-11 98243.4)
(1.45525e+06 -113873 2.71005e-11 -59413.5 -2.41404e-11 99343.6)
(1.46225e+06 -99456.5 3.71514e-11 -56122 -1.44019e-11 100326)
(1.46906e+06 -85722.6 4.67301e-11 -53537.7 -5.04751e-12 101198)
(1.47565e+06 -72523.9 5.59267e-11 -51478.5 3.99435e-12 101982)
(1.48197e+06 -59696.2 6.48487e-11 -49645.1 1.27951e-11 102718)
(1.48777e+06 -47091.7 7.35633e-11 -47627.7 2.13826e-11 103449)
(1.49312e+06 -34397 8.22992e-11 -44702.2 2.98866e-11 104277)
(1.49703e+06 -21601.4 9.09505e-11 -40003.2 3.81298e-11 105265)
(1.50032e+06 -7017.82 1.00735e-10 -31889.5 4.71079e-11 106692)
(1.557e+06 -352785 -1.10269e-10 -168214 -1.60835e-10 86895.9)
(1.52545e+06 -327912 -9.93834e-11 -170428 -1.46809e-10 85380.9)
(1.51653e+06 -300815 -8.33941e-11 -156948 -1.31216e-10 87071.9)
(1.50046e+06 -278223 -7.14458e-11 -150523 -1.18388e-10 87423.5)
(1.49344e+06 -254366 -5.72471e-11 -138604 -1.04594e-10 88961.1)
(1.48533e+06 -232891 -4.47618e-11 -129072 -9.21916e-11 90099.2)
(1.48132e+06 -211857 -3.19348e-11 -118592 -7.98425e-11 91559.9)
(1.47793e+06 -192286 -1.99659e-11 -109326 -6.82668e-11 92873.5)
(1.47659e+06 -173672 -8.31863e-12 -100566 -5.70923e-11 94209.7)
(1.47612e+06 -156192 2.71415e-12 -92886.7 -4.64686e-11 95432.9)
(1.47679e+06 -139676 1.32806e-11 -86160.5 -3.6275e-11 96575.2)
(1.47817e+06 -124068 2.33478e-11 -80521.7 -2.64961e-11 97598.9)
(1.48024e+06 -109238 3.2998e-11 -75908.8 -1.70536e-11 98512.4)
(1.48281e+06 -95046.8 4.22912e-11 -72270.2 -7.878e-12 99315.4)
(1.48577e+06 -81334 5.13157e-11 -69457.3 1.10968e-12 100024)
(1.48902e+06 -67873.3 6.02075e-11 -67219.1 1.0022e-11 100668)
(1.49229e+06 -54448.1 6.90713e-11 -65210.3 1.89383e-11 101283)
(1.49556e+06 -40538.8 7.82483e-11 -62839.6 2.81339e-11 101952)
(1.498e+06 -26075.9 8.76847e-11 -59435.5 3.75052e-11 102721)
(1.50025e+06 -8658.22 9.90048e-11 -53633.5 4.85352e-11 103835)
(1.70928e+06 -330359 -7.57248e-11 -200073 -1.2944e-10 90686.5)
(1.65461e+06 -312986 -7.29247e-11 -206703 -1.21816e-10 87333.9)
(1.63148e+06 -288804 -6.07082e-11 -191420 -1.09561e-10 88507.1)
(1.59925e+06 -270293 -5.35923e-11 -185072 -1.00788e-10 87982.5)
(1.5796e+06 -249213 -4.2871e-11 -171815 -9.00538e-11 89022.7)
(1.55936e+06 -230119 -3.35351e-11 -160661 -8.04384e-11 89731.6)
(1.54483e+06 -210958 -2.33062e-11 -148319 -7.04328e-11 90881.9)
(1.53196e+06 -192789 -1.34918e-11 -137022 -6.08216e-11 91965.1)
(1.52218e+06 -175274 -3.66159e-12 -126282 -5.13167e-11 93121.3)
(1.51421e+06 -158607 5.86224e-12 -116692 -4.20856e-11 94206.4)
(1.50821e+06 -142721 1.51445e-11 -108227 -3.30743e-11 95232.3)
(1.50369e+06 -127592 2.41268e-11 -101052 -2.42883e-11 96154.2)
(1.50055e+06 -113132 3.2847e-11 -95156.7 -1.56803e-11 96968.6)
(1.49854e+06 -99211.1 4.13528e-11 -90533.5 -7.18509e-12 97666.5)
(1.4975e+06 -85666.3 4.97251e-11 -87089.1 1.28012e-12 98254.4)
(1.49728e+06 -72226.9 5.81155e-11 -84656.8 9.86182e-12 98749.8)
(1.49763e+06 -58630 6.66597e-11 -82993.1 1.86851e-11 99176.1)
(1.49844e+06 -44204.6 7.57727e-11 -81709.6 2.81395e-11 99587.9)
(1.4992e+06 -28854.2 8.54549e-11 -80353.1 3.81921e-11 100020)
(1.50012e+06 -9711.69 9.75456e-11 -78009.8 5.06502e-11 100641)
(1.85562e+06 -283540 -2.64932e-11 -219895 -8.38202e-11 96091.6)
(1.77943e+06 -277532 -3.40169e-11 -232965 -8.47827e-11 90662.5)
(1.74342e+06 -258770 -2.70261e-11 -218635 -7.70886e-11 90991)
(1.69655e+06 -245872 -2.54973e-11 -212919 -7.31917e-11 89572)
(1.66479e+06 -229471 -1.94208e-11 -200197 -6.65129e-11 89870.4)
(1.63342e+06 -214095 -1.39581e-11 -188542 -6.0354e-11 90035.1)
(1.60871e+06 -198287 -7.23757e-12 -175585 -5.34963e-11 90709)
(1.58679e+06 -182809 -3.43927e-13 -163113 -4.65663e-11 91453.7)
(1.56872e+06 -167604 6.91863e-12 -151010 -3.94468e-11 92340.2)
(1.55337e+06 -152822 1.42735e-11 -139860 -3.22666e-11 93232.2)
(1.54071e+06 -138512 2.16815e-11 -129813 -2.50437e-11 94108.6)
(1.53026e+06 -124690 2.90567e-11 -121117 -1.78e-11 94912.7)
(1.52181e+06 -111330 3.63838e-11 -113877 -1.05229e-11 95621.4)
(1.51509e+06 -98334.2 4.36799e-11 -108179 -3.16268e-12 96210.3)
(1.50989e+06 -85562.4 5.10045e-11 -104032 4.35895e-12 96670.6)
(1.50601e+06 -72733.9 5.85012e-11 -101406 1.22047e-11 96999.6)
(1.50328e+06 -59571.2 6.63236e-11 -100196 2.05327e-11 97206.5)
(1.50145e+06 -45320.1 7.49095e-11 -100272 2.9806e-11 97306.6)
(1.50047e+06 -29880.8 8.43184e-11 -101409 4.00583e-11 97327.9)
(1.49993e+06 -10150.2 9.64303e-11 -103273 5.32689e-11 97337.2)
(1.9911e+06 -216854 3.40417e-11 -223799 -2.78321e-11 103306)
(1.89562e+06 -224298 1.5186e-11 -244275 -3.84592e-11 95757.6)
(1.8477e+06 -214822 1.44784e-11 -237360 -3.70525e-11 94393.4)
(1.78904e+06 -208639 1.01115e-11 -233222 -3.84081e-11 92084.2)
(1.74569e+06 -198880 1.03543e-11 -222485 -3.68688e-11 91450.5)
(1.70473e+06 -188141 1.15815e-11 -210617 -3.46106e-11 91097.3)
(1.67063e+06 -176449 1.44217e-11 -197306 -3.13095e-11 91288.9)
(1.64053e+06 -164244 1.81492e-11 -183961 -2.73359e-11 91691.8)
(1.6148e+06 -151865 2.25988e-11 -170880 -2.28457e-11 92282.1)
(1.59254e+06 -139496 2.75091e-11 -158642 -1.79704e-11 92936.1)
(1.57354e+06 -127296 3.27407e-11 -147505 -1.28049e-11 93607.2)
(1.55733e+06 -115333 3.81772e-11 -137771 -7.39691e-12 94232.2)
(1.54365e+06 -103627 4.3763e-11 -129619 -1.7615e-12 94774.2)
(1.5322e+06 -92117.2 4.94877e-11 -123225 4.13642e-12 95196.3)
(1.52279e+06 -80687.6 5.53908e-11 -118699 1.03696e-11 95475.8)
(1.51514e+06 -69069.9 6.15982e-11 -116157 1.71065e-11 95588.2)
(1.50922e+06 -56991.6 6.82709e-11 -115651 2.45296e-11 95528.5)
(1.50463e+06 -43681.6 7.58281e-11 -117341 3.31343e-11 95267.4)
(1.50185e+06 -29037.2 8.43988e-11 -121230 4.30279e-11 94829)
(1.49974e+06 -9938.34 9.57484e-11 -127671 5.62177e-11 94155.4)
(2.1039e+06 -131228 1.03491e-10 -215929 3.73922e-11 111185)
(2.00689e+06 -147651 7.89716e-11 -232417 2.02391e-11 103953)
(1.94552e+06 -151452 6.76503e-11 -239747 1.33827e-11 99873.8)
(1.88023e+06 -152948 5.73975e-11 -241043 7.01993e-12 96416.5)
(1.82538e+06 -152129 5.02461e-11 -236788 2.42785e-12 94237.5)
(1.77538e+06 -148623 4.55812e-11 -228502 -4.45195e-13 92863.3)
(1.73179e+06 -143247 4.30842e-11 -217266 -1.88102e-12 92220.7)
(1.69332e+06 -136310 4.23334e-11 -204550 -2.02309e-12 92049.1)
(1.65986e+06 -128295 4.29835e-11 -191165 -1.10695e-12 92229.9)
(1.63069e+06 -119560 4.46842e-11 -177991 6.72772e-13 92608.6)
(1.60545e+06 -110396 4.71867e-11 -165573 3.15658e-12 93091.3)
(1.58364e+06 -101006 5.02746e-11 -154419 6.22494e-12 93584.5)
(1.56492e+06 -91516.4 5.38134e-11 -144887 9.80997e-12 94022.7)
(1.54893e+06 -81955 5.77199e-11 -137309 1.38986e-11 94343.9)
(1.53544e+06 -72275 6.19857e-11 -131940 1.85335e-11 94504.6)
(1.52413e+06 -62268.6 6.66816e-11 -129078 2.38583e-11 94452.5)
(1.51507e+06 -51704 7.19562e-11 -128954 3.00594e-11 94164.6)
(1.50772e+06 -39868 7.81608e-11 -132041 3.76182e-11 93562.7)
(1.50313e+06 -26669 8.549e-11 -138594 4.67113e-11 92666.4)
(1.49948e+06 -9173.93 9.54751e-11 -149659 5.92458e-11 91290.7)
(2.16794e+06 -60548.1 1.57243e-10 -192135 8.6769e-11 118486)
(2.07857e+06 -69289.5 1.38556e-10 -209317 7.54192e-11 111654)
(2.00834e+06 -85515.9 1.17957e-10 -226086 6.06944e-11 105728)
(1.94093e+06 -93170.1 1.03389e-10 -233300 5.07676e-11 101307)
(1.88131e+06 -98550.5 9.15673e-11 -233461 4.21852e-11 98226.7)
(1.82671e+06 -100948 8.24602e-11 -229021 3.54672e-11 96038.6)
(1.77819e+06 -100994 7.58022e-11 -220684 3.03659e-11 94695)
(1.73468e+06 -99102.5 7.11312e-11 -210143 2.67143e-11 93916.5)
(1.69621e+06 -95644 6.81934e-11 -198260 2.43698e-11 93587.3)
(1.66218e+06 -91009.5 6.66264e-11 -186041 2.31386e-11 93540.1)
(1.63229e+06 -85501.8 6.61807e-11 -174156 2.2874e-11 93669.5)
(1.60611e+06 -79375 6.66137e-11 -163236 2.34434e-11 93866.9)
(1.58332e+06 -72803.8 6.77586e-11 -153766 2.47614e-11 94052)
(1.56355e+06 -65878.9 6.94923e-11 -146203 2.67904e-11 94145.4)
(1.54664e+06 -58614.5 7.17678e-11 -140938 2.95511e-11 94087)
(1.53222e+06 -50884.1 7.45978e-11 -138433 3.31501e-11 93800.8)
(1.52049e+06 -42524.5 7.80986e-11 -139091 3.77585e-11 93246.2)
(1.51078e+06 -32981.2 8.24968e-11 -143650 4.37726e-11 92302.2)
(1.50456e+06 -22190.2 8.80221e-11 -152603 5.14145e-11 90978.2)
(1.49941e+06 -7659.01 9.58264e-11 -167642 6.2324e-11 88968.6)
(2.1352e+06 8903.64 1.96563e-10 -165549 1.26822e-10 121290)
(2.06502e+06 -1186.27 1.79161e-10 -201544 1.18383e-10 112950)
(2.00048e+06 -21032.7 1.57103e-10 -218920 1.01817e-10 107178)
(1.93923e+06 -34029.7 1.40011e-10 -228697 8.91763e-11 102657)
(1.88401e+06 -44260.2 1.25747e-10 -230612 7.79643e-11 99500)
(1.8327e+06 -51504.1 1.14047e-10 -227788 6.85091e-11 97197.8)
(1.78636e+06 -56178.4 1.04779e-10 -220930 6.07049e-11 95705.7)
(1.7441e+06 -58704.7 9.75017e-11 -211687 5.43898e-11 94758.5)
(1.70612e+06 -59416.3 9.20074e-11 -200908 4.9458e-11 94250.7)
(1.67196e+06 -58684 8.79705e-11 -189600 4.57423e-11 94023.3)
(1.64149e+06 -56800.4 8.51679e-11 -178452 4.31186e-11 93976.4)
(1.61439e+06 -54025.4 8.33709e-11 -168129 4.14644e-11 94002.9)
(1.59046e+06 -50548.3 8.24169e-11 -159160 4.06994e-11 94022)
(1.56942e+06 -46495.6 8.21713e-11 -152064 4.07764e-11 93950.4)
(1.55119e+06 -41916.5 8.25763e-11 -147296 4.17081e-11 93723.1)
(1.53546e+06 -36771 8.35944e-11 -145416 4.35599e-11 93253.4)
(1.52253e+06 -30945.1 8.5325e-11 -146924 4.64913e-11 92492.6)
(1.51174e+06 -24091.9 8.78593e-11 -152709 5.07776e-11 91296.8)
(1.50486e+06 -16218.9 9.14218e-11 -163458 5.66432e-11 89664.7)
(1.49915e+06 -5586.96 9.66403e-11 -181114 6.52305e-11 87231.1)
(2.11046e+06 78568.3 2.37312e-10 -134058 1.67125e-10 125136)
(2.04581e+06 62630.1 2.16877e-10 -175893 1.55965e-10 116230)
(1.99114e+06 39202 1.93864e-10 -197455 1.38352e-10 110357)
(1.93471e+06 21893.9 1.74635e-10 -211749 1.23793e-10 105428)
(1.8839e+06 7572.21 1.58335e-10 -217493 1.10693e-10 101935)
(1.83528e+06 -3820.14 1.4433e-10 -218108 9.91213e-11 99261.1)
(1.79091e+06 -12516.9 1.32751e-10 -214135 8.91594e-11 97434.8)
(1.74978e+06 -18972.6 1.23115e-10 -207324 8.06239e-11 96171.8)
(1.71238e+06 -23450.4 1.15303e-10 -198519 7.34813e-11 95383.4)
(1.67833e+06 -26301.3 1.09006e-10 -188793 6.75901e-11 94905.1)
(1.64764e+06 -27793.5 1.04037e-10 -178886 6.28599e-11 94637.6)
(1.62005e+06 -28183.9 1.00173e-10 -169534 5.91847e-11 94468.7)
(1.59545e+06 -27671.5 9.72583e-11 -161333 5.64923e-11 94312.2)
(1.57362e+06 -26411.7 9.51463e-11 -154878 5.47312e-11 94078.1)
(1.55453e+06 -24495.9 9.37556e-11 -150715 5.38999e-11 93691.6)
(1.53794e+06 -21965.9 9.30081e-11 -149471 5.40245e-11 93059.3)
(1.52421e+06 -18766.3 9.29666e-11 -151791 5.52453e-11 92115.2)
(1.51269e+06 -14809.2 9.35687e-11 -158557 5.767e-11 90714.4)
(1.50539e+06 -10053.7 9.50955e-11 -170552 6.15836e-11 88854.9)
(1.49909e+06 -3471.88 9.76529e-11 -190185 6.76738e-11 86077.5)
(2.06681e+06 132567 2.65483e-10 -107612 1.96058e-10 127157)
(2.0108e+06 116261 2.45896e-10 -154196 1.85936e-10 118061)
(1.96535e+06 91727.8 2.23423e-10 -178383 1.68676e-10 112291)
(1.91523e+06 72374.6 2.03724e-10 -195668 1.53646e-10 107260)
(1.87004e+06 55370.8 1.86473e-10 -204046 1.39554e-10 103668)
(1.82559e+06 41008.8 1.71138e-10 -207110 1.26656e-10 100841)
(1.78458e+06 29146.9 1.58001e-10 -205341 1.15142e-10 98852)
(1.74595e+06 19466.2 1.46655e-10 -200496 1.04914e-10 97412.4)
(1.71042e+06 11770 1.37055e-10 -193409 9.60013e-11 96448.3)
(1.67768e+06 5770.5 1.28941e-10 -185162 8.83109e-11 95798.2)
(1.64785e+06 1236.04 1.22166e-10 -176507 8.17884e-11 95368.3)
(1.62077e+06 -2070.15 1.16531e-10 -168207 7.63513e-11 95046.8)