/*--------------------------------*- C++ -*----------------------------------*\
  =========                 |
  \\      /  F ield         | OpenFOAM: The Open Source CFD Toolbox
   \\    /   O peration     | Website:  https://openfoam.org
    \\  /    A nd           | Version:  9
     \\/     M anipulation  |
\*---------------------------------------------------------------------------*/
FoamFile
{
    format      ascii;
    class       volVectorField;
    location    "5";
    object      D;
}
// * * * * * * * * * * * * * * * * * * * * * * * * * * * * * * * * * * * * * //

dimensions      [0 1 0 0 0 0 0];

internalField   nonuniform List<vector> 
1000
(
(3.32982e-06 1.10885e-06 0)
(3.10683e-06 1.22793e-06 0)
(2.9443e-06 1.32684e-06 0)
(2.8269e-06 1.40368e-06 0)
(2.74316e-06 1.46927e-06 0)
(2.68425e-06 1.52532e-06 0)
(2.64437e-06 1.57541e-06 0)
(2.61912e-06 1.62078e-06 0)
(2.6049e-06 1.66287e-06 0)
(2.60001e-06 1.7026e-06 0)
(3.00161e-06 9.97488e-07 0)
(2.76983e-06 1.08495e-06 0)
(2.60187e-06 1.16056e-06 0)
(2.48116e-06 1.2186e-06 0)
(2.39512e-06 1.26889e-06 0)
(2.33423e-06 1.31181e-06 0)
(2.2925e-06 1.35036e-06 0)
(2.26524e-06 1.38539e-06 0)
(2.24876e-06 1.41768e-06 0)
(2.24072e-06 1.44904e-06 0)
(2.66657e-06 8.86231e-07 0)
(2.43241e-06 9.39708e-07 0)
(2.26372e-06 9.90848e-07 0)
(2.14295e-06 1.02982e-06 0)
(2.05703e-06 1.06511e-06 0)
(1.99618e-06 1.09552e-06 0)
(1.9542e-06 1.12338e-06 0)
(1.9263e-06 1.14899e-06 0)
(1.90874e-06 1.17256e-06 0)
(1.89904e-06 1.19607e-06 0)
(2.32565e-06 7.76235e-07 0)
(2.0964e-06 7.9492e-07 0)
(1.93177e-06 8.21462e-07 0)
(1.81457e-06 8.41853e-07 0)
(1.73162e-06 8.6294e-07 0)
(1.67309e-06 8.81864e-07 0)
(1.63275e-06 9.0018e-07 0)
(1.60574e-06 9.17545e-07 0)
(1.58858e-06 9.33655e-07 0)
(1.57845e-06 9.50285e-07 0)
(1.97961e-06 6.69195e-07 0)
(1.76243e-06 6.53632e-07 0)
(1.60719e-06 6.56552e-07 0)
(1.49765e-06 6.59603e-07 0)
(1.42082e-06 6.67988e-07 0)
(1.36707e-06 6.76991e-07 0)
(1.33031e-06 6.87371e-07 0)
(1.30581e-06 6.97988e-07 0)
(1.29018e-06 7.08151e-07 0)
(1.28043e-06 7.19119e-07 0)
(1.63019e-06 5.66753e-07 0)
(1.43167e-06 5.18666e-07 0)
(1.29121e-06 5.00074e-07 0)
(1.19359e-06 4.87921e-07 0)
(1.12615e-06 4.85815e-07 0)
(1.07968e-06 4.86985e-07 0)
(1.04837e-06 4.91423e-07 0)
(1.02754e-06 4.97066e-07 0)
(1.01441e-06 5.0284e-07 0)
(1.00591e-06 5.09476e-07 0)
(1.27603e-06 4.69041e-07 0)
(1.10308e-06 3.92038e-07 0)
(9.83359e-07 3.55682e-07 0)
(9.0237e-07 3.31846e-07 0)
(8.47791e-07 3.22316e-07 0)
(8.10971e-07 3.18357e-07 0)
(7.86614e-07 3.18998e-07 0)
(7.70502e-07 3.21403e-07 0)
(7.60287e-07 3.24366e-07 0)
(7.53371e-07 3.281e-07 0)
(9.19913e-07 3.73416e-07 0)
(7.78151e-07 2.7367e-07 0)
(6.85433e-07 2.26299e-07 0)
(6.25533e-07 1.96293e-07 0)
(5.86616e-07 1.83612e-07 0)
(5.61152e-07 1.77695e-07 0)
(5.4442e-07 1.76729e-07 0)
(5.33345e-07 1.77701e-07 0)
(5.26308e-07 1.79345e-07 0)
(5.21287e-07 1.81536e-07 0)
(5.53979e-07 2.70691e-07 0)
(4.54401e-07 1.60874e-07 0)
(3.96451e-07 1.14136e-07 0)
(3.61609e-07 8.66244e-08 0)
(3.4064e-07 7.60937e-08 0)
(3.26927e-07 7.12668e-08 0)
(3.18059e-07 7.0563e-08 0)
(3.12057e-07 7.13173e-08 0)
(3.08141e-07 7.25612e-08 0)
(3.0509e-07 7.40413e-08 0)
(1.90338e-07 1.40905e-07 0)
(1.44613e-07 5.87526e-08 0)
(1.26964e-07 3.0049e-08 0)
(1.17406e-07 1.6461e-08 0)
(1.11939e-07 1.23333e-08 0)
(1.08034e-07 1.08139e-08 0)
(1.05469e-07 1.11156e-08 0)
(1.03613e-07 1.18531e-08 0)
(1.02347e-07 1.26827e-08 0)
(1.01248e-07 1.34996e-08 0)
(5.86437e-06 1.81151e-06 0)
(5.85603e-06 2.03485e-06 0)
(5.85036e-06 2.24306e-06 0)
(5.85137e-06 2.43334e-06 0)
(5.86077e-06 2.60747e-06 0)
(5.87928e-06 2.76767e-06 0)
(5.90705e-06 2.9165e-06 0)
(5.94353e-06 3.05624e-06 0)
(5.98844e-06 3.18867e-06 0)
(6.04063e-06 3.31581e-06 0)
(5.68062e-06 1.79587e-06 0)
(5.65586e-06 2.01858e-06 0)
(5.63906e-06 2.22423e-06 0)
(5.63201e-06 2.41066e-06 0)
(5.63562e-06 2.58012e-06 0)
(5.64939e-06 2.73494e-06 0)
(5.67291e-06 2.87794e-06 0)
(5.7051e-06 3.01151e-06 0)
(5.74554e-06 3.13751e-06 0)
(5.79268e-06 3.25822e-06 0)
(5.48601e-06 1.76497e-06 0)
(5.44177e-06 1.98729e-06 0)
(5.40982e-06 2.1888e-06 0)
(5.39085e-06 2.36916e-06 0)
(5.38507e-06 2.53192e-06 0)
(5.39099e-06 2.67981e-06 0)
(5.40764e-06 2.81582e-06 0)
(5.43339e-06 2.94239e-06 0)
(5.46768e-06 3.06144e-06 0)
(5.50837e-06 3.17531e-06 0)
(5.27578e-06 1.72039e-06 0)
(5.20962e-06 1.9419e-06 0)
(5.16007e-06 2.13832e-06 0)
(5.12693e-06 2.31126e-06 0)
(5.10958e-06 2.46598e-06 0)
(5.10566e-06 2.60564e-06 0)
(5.11372e-06 2.73353e-06 0)
(5.13159e-06 2.85209e-06 0)
(5.15858e-06 2.96333e-06 0)
(5.19189e-06 3.06955e-06 0)
(5.0474e-06 1.66256e-06 0)
(4.95722e-06 1.88159e-06 0)
(4.88881e-06 2.0713e-06 0)
(4.84073e-06 2.23513e-06 0)
(4.8111e-06 2.38025e-06 0)
(4.79673e-06 2.51029e-06 0)
(4.79566e-06 2.62885e-06 0)
(4.8052e-06 2.73836e-06 0)
(4.8245e-06 2.84092e-06 0)
(4.85019e-06 2.9387e-06 0)
(4.80049e-06 1.59272e-06 0)
(4.68491e-06 1.80633e-06 0)
(4.59723e-06 1.98737e-06 0)
(4.5342e-06 2.14056e-06 0)
(4.49237e-06 2.27484e-06 0)
(4.46766e-06 2.39415e-06 0)
(4.45755e-06 2.50241e-06 0)
(4.45888e-06 2.60201e-06 0)
(4.47063e-06 2.69515e-06 0)
(4.48891e-06 2.78375e-06 0)
(4.53566e-06 1.51187e-06 0)
(4.39429e-06 1.71606e-06 0)
(4.28774e-06 1.88601e-06 0)
(4.2104e-06 2.02691e-06 0)
(4.15709e-06 2.14915e-06 0)
(4.12275e-06 2.2568e-06 0)
(4.10425e-06 2.35399e-06 0)
(4.09803e-06 2.44299e-06 0)
(4.10277e-06 2.52612e-06 0)
(4.11429e-06 2.60496e-06 0)
(4.2543e-06 1.42142e-06 0)
(4.08799e-06 1.61154e-06 0)
(3.96372e-06 1.76769e-06 0)
(3.87328e-06 1.89472e-06 0)
(3.80969e-06 2.00391e-06 0)
(3.76685e-06 2.09916e-06 0)
(3.74099e-06 2.18479e-06 0)
(3.72817e-06 2.26281e-06 0)
(3.72671e-06 2.33561e-06 0)
(3.73238e-06 2.40431e-06 0)
(3.95821e-06 1.32288e-06 0)
(3.76911e-06 1.49396e-06 0)
(3.62911e-06 1.63357e-06 0)
(3.52732e-06 1.74514e-06 0)
(3.45501e-06 1.8404e-06 0)
(3.40499e-06 1.92281e-06 0)
(3.37292e-06 1.99653e-06 0)
(3.35474e-06 2.0634e-06 0)
(3.3481e-06 2.12564e-06 0)
(3.34915e-06 2.18413e-06 0)
(3.64937e-06 1.21802e-06 0)
(3.44097e-06 1.36526e-06 0)
(3.28795e-06 1.48566e-06 0)
(3.177e-06 1.58044e-06 0)
(3.09772e-06 1.6611e-06 0)
(3.04234e-06 1.73035e-06 0)
(3.0057e-06 1.79211e-06 0)
(2.98328e-06 1.84785e-06 0)
(2.97238e-06 1.89973e-06 0)
(2.96997e-06 1.94738e-06 0)
(6.10294e-06 3.43788e-06 0)
(6.17439e-06 3.55889e-06 0)
(6.25133e-06 3.67786e-06 0)
(6.33311e-06 3.79541e-06 0)
(6.41932e-06 3.91215e-06 0)
(6.50948e-06 4.02846e-06 0)
(6.60321e-06 4.14476e-06 0)
(6.7001e-06 4.26133e-06 0)
(6.79983e-06 4.37844e-06 0)
(6.90206e-06 4.4963e-06 0)
(7.0065e-06 4.61509e-06 0)
(7.11287e-06 4.73497e-06 0)
(7.22091e-06 4.85606e-06 0)
(7.33036e-06 4.97845e-06 0)
(7.44097e-06 5.10222e-06 0)
(7.5525e-06 5.22739e-06 0)
(7.66472e-06 5.35393e-06 0)
(7.77736e-06 5.48175e-06 0)
(7.89024e-06 5.61061e-06 0)
(8.00309e-06 5.74013e-06 0)
(5.85776e-06 3.37565e-06 0)
(5.93809e-06 3.49471e-06 0)
(6.02269e-06 3.61182e-06 0)
(6.11087e-06 3.72772e-06 0)
(6.20252e-06 3.84306e-06 0)
(6.29721e-06 3.95818e-06 0)
(6.39474e-06 4.07351e-06 0)
(6.49481e-06 4.18931e-06 0)
(6.59719e-06 4.30585e-06 0)
(6.70163e-06 4.42332e-06 0)
(6.80793e-06 4.5419e-06 0)
(6.91588e-06 4.66174e-06 0)
(7.02528e-06 4.78296e-06 0)
(7.13595e-06 4.90564e-06 0)
(7.24771e-06 5.02986e-06 0)
(7.36037e-06 5.15563e-06 0)
(7.47377e-06 5.28294e-06 0)
(7.58772e-06 5.41168e-06 0)
(7.70207e-06 5.54163e-06 0)
(7.81653e-06 5.67248e-06 0)
(5.57712e-06 3.28928e-06 0)
(5.66884e-06 3.40865e-06 0)
(5.76365e-06 3.52615e-06 0)
(5.86062e-06 3.64237e-06 0)
(5.96003e-06 3.75812e-06 0)
(6.06144e-06 3.87366e-06 0)
(6.16488e-06 3.98948e-06 0)
(6.2701e-06 4.10583e-06 0)
(6.37702e-06 4.223e-06 0)
(6.48546e-06 4.34119e-06 0)
(6.59533e-06 4.46057e-06 0)
(6.70649e-06 4.58129e-06 0)
(6.81882e-06 4.70349e-06 0)
(6.93221e-06 4.82726e-06 0)
(7.04653e-06 4.95267e-06 0)
(7.16168e-06 5.07978e-06 0)
(7.27755e-06 5.20858e-06 0)
(7.39397e-06 5.33904e-06 0)
(7.51082e-06 5.47104e-06 0)
(7.62777e-06 5.60441e-06 0)
(5.26514e-06 3.18075e-06 0)
(5.37038e-06 3.30221e-06 0)
(5.47755e-06 3.42186e-06 0)
(5.58538e-06 3.54e-06 0)
(5.69455e-06 3.65764e-06 0)
(5.80462e-06 3.77496e-06 0)
(5.9158e-06 3.89255e-06 0)
(6.02793e-06 4.01061e-06 0)
(6.14105e-06 4.12949e-06 0)
(6.25509e-06 4.24939e-06 0)
(6.37004e-06 4.3705e-06 0)
(6.48583e-06 4.493e-06 0)
(6.60243e-06 4.61701e-06 0)
(6.7198e-06 4.74266e-06 0)
(6.83789e-06 4.87005e-06 0)
(6.95663e-06 4.99924e-06 0)
(7.07596e-06 5.13031e-06 0)
(7.19577e-06 5.26328e-06 0)
(7.31595e-06 5.39818e-06 0)
(7.43617e-06 5.53497e-06 0)
(4.92877e-06 3.04809e-06 0)
(5.04908e-06 3.1736e-06 0)
(5.17025e-06 3.29742e-06 0)
(5.29044e-06 3.41926e-06 0)
(5.41091e-06 3.54048e-06 0)
(5.53106e-06 3.66112e-06 0)
(5.65139e-06 3.78187e-06 0)
(5.77175e-06 3.90295e-06 0)
(5.89236e-06 4.02473e-06 0)
(6.0132e-06 4.14744e-06 0)
(6.13436e-06 4.27131e-06 0)
(6.25586e-06 4.39652e-06 0)
(6.37776e-06 4.52323e-06 0)
(6.50006e-06 4.65159e-06 0)
(6.62279e-06 4.78174e-06 0)
(6.74593e-06 4.91379e-06 0)
(6.8695e-06 5.04786e-06 0)
(6.99339e-06 5.18406e-06 0)
(7.11756e-06 5.3226e-06 0)
(7.24172e-06 5.46354e-06 0)
(4.57354e-06 2.89221e-06 0)
(4.71006e-06 3.0236e-06 0)
(4.84644e-06 3.15343e-06 0)
(4.98012e-06 3.28064e-06 0)
(5.113e-06 3.407e-06 0)
(5.24433e-06 3.53241e-06 0)
(5.37487e-06 3.65767e-06 0)
(5.50452e-06 3.78301e-06 0)
(5.6336e-06 3.90885e-06 0)
(5.76218e-06 4.03545e-06 0)
(5.89046e-06 4.16306e-06 0)
(6.01852e-06 4.29192e-06 0)
(6.14649e-06 4.4222e-06 0)
(6.27445e-06 4.55409e-06 0)
(6.40249e-06 4.68776e-06 0)
(6.53067e-06 4.82337e-06 0)
(6.65902e-06 4.96111e-06 0)
(6.78754e-06 5.10119e-06 0)
(6.91622e-06 5.24393e-06 0)
(7.04486e-06 5.3895e-06 0)
(4.20549e-06 2.71347e-06 0)
(4.35877e-06 2.85258e-06 0)
(4.51106e-06 2.99024e-06 0)
(4.65895e-06 3.12453e-06 0)
(4.80498e-06 3.25752e-06 0)
(4.94826e-06 3.38914e-06 0)
(5.08975e-06 3.5202e-06 0)
(5.2294e-06 3.65103e-06 0)
(5.36765e-06 3.78205e-06 0)
(5.50466e-06 3.9136e-06 0)
(5.64069e-06 4.04595e-06 0)
(5.7759e-06 4.17937e-06 0)
(5.91051e-06 4.31409e-06 0)
(6.04466e-06 4.45031e-06 0)
(6.17849e-06 4.58824e-06 0)
(6.31213e-06 4.7281e-06 0)
(6.44569e-06 4.87014e-06 0)
(6.57922e-06 5.01462e-06 0)
(6.71278e-06 5.162e-06 0)
(6.84631e-06 5.3125e-06 0)
(3.83031e-06 2.51374e-06 0)
(4.00038e-06 2.66225e-06 0)
(4.16871e-06 2.80909e-06 0)
(4.33111e-06 2.95198e-06 0)
(4.49058e-06 3.09297e-06 0)
(4.64624e-06 3.23215e-06 0)
(4.79912e-06 3.37028e-06 0)
(4.94927e-06 3.50776e-06 0)
(5.09718e-06 3.64507e-06 0)
(5.24309e-06 3.78257e-06 0)
(5.38732e-06 3.92061e-06 0)
(5.53013e-06 4.05947e-06 0)
(5.67176e-06 4.19943e-06 0)
(5.81245e-06 4.34072e-06 0)
(5.9524e-06 4.4836e-06 0)
(6.0918e-06 4.62832e-06 0)
(6.23081e-06 4.77518e-06 0)
(6.3696e-06 4.92449e-06 0)
(6.50827e-06 5.07681e-06 0)
(6.64695e-06 5.23239e-06 0)
(3.45397e-06 2.29483e-06 0)
(3.64042e-06 2.45469e-06 0)
(3.82423e-06 2.61189e-06 0)
(4.00111e-06 2.76471e-06 0)
(4.1739e-06 2.91474e-06 0)
(4.34201e-06 3.06255e-06 0)
(4.50636e-06 3.20873e-06 0)
(4.66715e-06 3.35386e-06 0)
(4.8249e-06 3.4984e-06 0)
(4.97991e-06 3.6428e-06 0)
(5.13257e-06 3.78741e-06 0)
(5.28318e-06 3.93257e-06 0)
(5.43206e-06 4.07857e-06 0)
(5.57948e-06 4.22569e-06 0)
(5.72572e-06 4.3742e-06 0)
(5.87104e-06 4.52438e-06 0)
(6.01565e-06 4.67656e-06 0)
(6.15983e-06 4.83108e-06 0)
(6.30373e-06 4.98855e-06 0)
(6.44771e-06 5.14925e-06 0)
(3.0802e-06 2.05989e-06 0)
(3.28231e-06 2.23237e-06 0)
(3.48027e-06 2.40039e-06 0)
(3.67139e-06 2.5643e-06 0)
(3.85713e-06 2.72453e-06 0)
(4.0377e-06 2.88202e-06 0)
(4.21363e-06 3.03733e-06 0)
(4.38524e-06 3.19105e-06 0)
(4.55301e-06 3.34371e-06 0)
(4.71731e-06 3.49579e-06 0)
(4.87855e-06 3.64772e-06 0)
(5.0371e-06 3.79987e-06 0)
(5.19332e-06 3.95256e-06 0)
(5.34756e-06 4.1061e-06 0)
(5.50014e-06 4.26079e-06 0)
(5.6514e-06 4.41691e-06 0)
(5.80161e-06 4.5748e-06 0)
(5.95116e-06 4.73482e-06 0)
(6.10026e-06 4.89757e-06 0)
(6.24953e-06 5.06332e-06 0)
(2.79166e-06 1.88305e-06 0)
(3.00251e-06 2.06472e-06 0)
(3.20789e-06 2.23888e-06 0)
(3.40685e-06 2.40924e-06 0)
(3.60006e-06 2.57577e-06 0)
(3.78773e-06 2.73943e-06 0)
(3.97051e-06 2.90081e-06 0)
(4.14863e-06 3.06043e-06 0)
(4.32252e-06 3.21877e-06 0)
(4.49254e-06 3.3763e-06 0)
(4.65909e-06 3.5334e-06 0)
(4.82255e-06 3.69044e-06 0)
(4.98329e-06 3.84772e-06 0)
(5.14167e-06 4.00555e-06 0)
(5.29806e-06 4.16418e-06 0)
(5.45281e-06 4.32391e-06 0)
(5.60627e-06 4.48504e-06 0)
(5.75887e-06 4.64788e-06 0)
(5.91089e-06 4.81294e-06 0)
(6.06313e-06 4.98047e-06 0)
(2.59912e-06 1.7767e-06 0)
(2.80995e-06 1.95828e-06 0)
(3.01541e-06 2.13382e-06 0)
(3.21502e-06 2.30612e-06 0)
(3.4092e-06 2.47512e-06 0)
(3.59809e-06 2.64139e-06 0)
(3.78226e-06 2.80548e-06 0)
(3.96185e-06 2.96782e-06 0)
(4.13723e-06 3.12882e-06 0)
(4.30871e-06 3.28888e-06 0)
(4.47665e-06 3.44833e-06 0)
(4.64138e-06 3.60748e-06 0)
(4.80327e-06 3.76662e-06 0)
(4.96267e-06 3.92598e-06 0)
(5.11993e-06 4.08582e-06 0)
(5.27544e-06 4.24637e-06 0)
(5.42952e-06 4.40789e-06 0)
(5.58268e-06 4.57062e-06 0)
(5.7352e-06 4.73497e-06 0)
(5.88799e-06 4.90106e-06 0)
(2.42924e-06 1.67489e-06 0)
(2.63616e-06 1.8558e-06 0)
(2.83947e-06 2.03177e-06 0)
(3.03748e-06 2.20524e-06 0)
(3.23088e-06 2.37596e-06 0)
(3.41948e-06 2.54427e-06 0)
(3.60368e-06 2.71062e-06 0)
(3.78354e-06 2.87535e-06 0)
(3.95937e-06 3.03877e-06 0)
(4.13139e-06 3.20118e-06 0)
(4.29992e-06 3.36285e-06 0)
(4.46526e-06 3.52405e-06 0)
(4.62773e-06 3.68498e-06 0)
(4.78768e-06 3.84587e-06 0)
(4.94544e-06 4.00689e-06 0)
(5.10138e-06 4.16824e-06 0)
(5.25586e-06 4.33008e-06 0)
(5.40938e-06 4.49263e-06 0)
(5.56224e-06 4.65608e-06 0)
(5.71542e-06 4.82053e-06 0)
(2.2771e-06 1.57724e-06 0)
(2.4789e-06 1.75649e-06 0)
(2.67846e-06 1.93219e-06 0)
(2.87343e-06 2.10625e-06 0)
(3.06471e-06 2.2782e-06 0)
(3.25175e-06 2.44821e-06 0)
(3.43481e-06 2.61655e-06 0)
(3.61387e-06 2.78342e-06 0)
(3.78918e-06 2.94905e-06 0)
(3.96089e-06 3.11365e-06 0)
(4.12927e-06 3.27743e-06 0)
(4.29457e-06 3.44056e-06 0)
(4.45709e-06 3.60321e-06 0)
(4.61713e-06 3.76554e-06 0)
(4.775e-06 3.92768e-06 0)
(4.93108e-06 4.08976e-06 0)
(5.0857e-06 4.25187e-06 0)
(5.23936e-06 4.41415e-06 0)
(5.3924e-06 4.57665e-06 0)
(5.54579e-06 4.73931e-06 0)
(2.14109e-06 1.48473e-06 0)
(2.3366e-06 1.66173e-06 0)
(2.53117e-06 1.83651e-06 0)
(2.72198e-06 2.01052e-06 0)
(2.90996e-06 2.18312e-06 0)
(3.09427e-06 2.35433e-06 0)
(3.27516e-06 2.52422e-06 0)
(3.45249e-06 2.69288e-06 0)
(3.62643e-06 2.86043e-06 0)
(3.79708e-06 3.02697e-06 0)
(3.96464e-06 3.19263e-06 0)
(4.12932e-06 3.35753e-06 0)
(4.29138e-06 3.52177e-06 0)
(4.45107e-06 3.68544e-06 0)
(4.60871e-06 3.84861e-06 0)
(4.76461e-06 4.01134e-06 0)
(4.91915e-06 4.17366e-06 0)
(5.07266e-06 4.3356e-06 0)
(5.22582e-06 4.49699e-06 0)
(5.37932e-06 4.65783e-06 0)
(2.01858e-06 1.39718e-06 0)
(2.20732e-06 1.57144e-06 0)
(2.3961e-06 1.74477e-06 0)
(2.58189e-06 1.91823e-06 0)
(2.76561e-06 2.09102e-06 0)
(2.9463e-06 2.263e-06 0)
(3.12416e-06 2.43407e-06 0)
(3.29895e-06 2.60419e-06 0)
(3.47079e-06 2.77334e-06 0)
(3.6397e-06 2.94156e-06 0)
(3.80584e-06 3.10889e-06 0)
(3.96938e-06 3.27536e-06 0)
(4.13052e-06 3.44102e-06 0)
(4.2895e-06 3.60589e-06 0)
(4.44657e-06 3.76998e-06 0)
(4.60206e-06 3.93327e-06 0)
(4.75625e-06 4.09572e-06 0)
(4.90962e-06 4.25721e-06 0)
(5.06244e-06 4.41755e-06 0)
(5.21564e-06 4.57666e-06 0)
(1.90743e-06 1.31454e-06 0)
(2.08906e-06 1.48579e-06 0)
(2.27148e-06 1.65733e-06 0)
(2.45162e-06 1.82984e-06 0)
(2.63041e-06 2.0024e-06 0)
(2.80679e-06 2.17475e-06 0)
(2.98094e-06 2.34661e-06 0)
(3.15254e-06 2.51782e-06 0)
(3.32166e-06 2.68827e-06 0)
(3.48827e-06 2.85789e-06 0)
(3.65249e-06 3.02662e-06 0)
(3.81442e-06 3.19444e-06 0)
(3.97424e-06 3.36132e-06 0)
(4.13215e-06 3.52723e-06 0)
(4.28838e-06 3.6921e-06 0)
(4.44319e-06 3.85585e-06 0)
(4.59685e-06 4.01836e-06 0)
(4.7498e-06 4.17945e-06 0)
(4.90225e-06 4.33878e-06 0)
(5.05506e-06 4.49616e-06 0)
(1.80547e-06 1.23659e-06 0)
(1.97982e-06 1.40465e-06 0)
(2.15556e-06 1.57415e-06 0)
(2.32966e-06 1.74541e-06 0)
(2.50303e-06 1.91742e-06 0)
(2.67461e-06 2.08979e-06 0)
(2.84451e-06 2.2621e-06 0)
(3.01241e-06 2.43409e-06 0)
(3.17832e-06 2.60552e-06 0)
(3.34217e-06 2.77625e-06 0)
(3.50403e-06 2.94613e-06 0)
(3.66398e-06 3.11508e-06 0)
(3.82214e-06 3.28298e-06 0)
(3.97869e-06 3.44974e-06 0)
(4.1338e-06 3.61525e-06 0)
(4.28772e-06 3.77936e-06 0)
(4.44067e-06 3.94187e-06 0)
(4.59304e-06 4.10254e-06 0)
(4.74498e-06 4.26092e-06 0)
(4.89726e-06 4.41676e-06 0)
(1.71076e-06 1.16301e-06 0)
(1.8778e-06 1.32787e-06 0)
(2.04666e-06 1.4952e-06 0)
(2.21448e-06 1.66501e-06 0)
(2.38211e-06 1.83621e-06 0)
(2.54851e-06 2.00832e-06 0)
(2.7138e-06 2.18078e-06 0)
(2.8776e-06 2.35324e-06 0)
(3.03991e-06 2.52537e-06 0)
(3.20063e-06 2.69692e-06 0)
(3.35979e-06 2.8677e-06 0)
(3.51744e-06 3.03752e-06 0)
(3.67367e-06 3.20622e-06 0)
(3.82861e-06 3.37366e-06 0)
(3.9824e-06 3.53966e-06 0)
(4.13525e-06 3.70402e-06 0)
(4.28733e-06 3.86649e-06 0)
(4.43897e-06 4.02676e-06 0)
(4.59028e-06 4.18431e-06 0)
(4.7419e-06 4.33882e-06 0)
(1.62152e-06 1.09348e-06 0)
(1.78128e-06 1.25521e-06 0)
(1.94318e-06 1.42033e-06 0)
(2.10458e-06 1.58856e-06 0)
(2.26626e-06 1.75878e-06 0)
(2.42725e-06 1.93039e-06 0)
(2.58764e-06 2.10276e-06 0)
(2.74707e-06 2.27542e-06 0)
(2.9055e-06 2.44797e-06 0)
(3.06281e-06 2.62009e-06 0)
(3.21901e-06 2.7915e-06 0)
(3.37411e-06 2.96197e-06 0)
(3.52818e-06 3.13126e-06 0)
(3.68131e-06 3.29919e-06 0)
(3.83361e-06 3.46553e-06 0)
(3.98524e-06 3.63004e-06 0)
(4.13633e-06 3.79242e-06 0)
(4.28712e-06 3.95233e-06 0)
(4.43772e-06 4.10918e-06 0)
(4.58857e-06 4.26262e-06 0)
(1.53613e-06 1.0277e-06 0)
(1.68866e-06 1.18645e-06 0)
(1.84359e-06 1.34938e-06 0)
(1.99849e-06 1.51597e-06 0)
(2.15409e-06 1.68509e-06 0)
(2.30952e-06 1.85603e-06 0)
(2.46484e-06 2.02809e-06 0)
(2.61969e-06 2.20072e-06 0)
(2.77404e-06 2.37346e-06 0)
(2.92776e-06 2.54589e-06 0)
(3.08081e-06 2.7177e-06 0)
(3.2332e-06 2.88857e-06 0)
(3.38495e-06 3.05825e-06 0)
(3.53612e-06 3.22648e-06 0)
(3.6868e-06 3.39301e-06 0)
(3.83709e-06 3.55757e-06 0)
(3.9871e-06 3.71982e-06 0)
(4.13697e-06 3.87941e-06 0)
(4.28677e-06 4.03572e-06 0)
(4.43677e-06 4.1884e-06 0)
(1.45308e-06 9.654e-07 0)
(1.59843e-06 1.12136e-06 0)
(1.74638e-06 1.28217e-06 0)
(1.89475e-06 1.44713e-06 0)
(2.04422e-06 1.61506e-06 0)
(2.194e-06 1.7852e-06 0)
(2.34414e-06 1.95677e-06 0)
(2.49432e-06 2.12918e-06 0)
(2.64448e-06 2.30187e-06 0)
(2.79447e-06 2.47439e-06 0)
(2.94427e-06 2.64636e-06 0)
(3.09383e-06 2.81742e-06 0)
(3.24317e-06 2.98727e-06 0)
(3.3923e-06 3.15563e-06 0)
(3.54127e-06 3.3222e-06 0)
(3.69016e-06 3.4867e-06 0)
(3.83901e-06 3.64879e-06 0)
(3.98791e-06 3.80811e-06 0)
(4.13686e-06 3.96404e-06 0)
(4.28598e-06 4.11627e-06 0)
(1.37092e-06 9.06341e-07 0)
(1.50911e-06 1.05974e-06 0)
(1.65008e-06 1.21854e-06 0)
(1.79192e-06 1.38189e-06 0)
(1.93524e-06 1.54859e-06 0)
(2.07934e-06 1.71783e-06 0)
(2.22428e-06 1.88877e-06 0)
(2.36974e-06 2.06076e-06 0)
(2.51567e-06 2.2332e-06 0)
(2.66191e-06 2.4056e-06 0)
(2.80841e-06 2.57751e-06 0)
(2.95511e-06 2.74856e-06 0)
(3.10199e-06 2.91839e-06 0)
(3.24904e-06 3.08669e-06 0)
(3.39628e-06 3.25317e-06 0)
(3.54373e-06 3.41751e-06 0)
(3.6914e-06 3.5794e-06 0)
(3.8393e-06 3.73848e-06 0)
(3.9874e-06 3.8942e-06 0)
(4.13563e-06 4.04628e-06 0)
(1.28821e-06 8.50417e-07 0)
(1.41923e-06 1.00148e-06 0)
(1.55323e-06 1.15839e-06 0)
(1.68854e-06 1.32016e-06 0)
(1.82573e-06 1.4856e-06 0)
(1.96418e-06 1.65383e-06 0)
(2.10394e-06 1.824e-06 0)
(2.24472e-06 1.99541e-06 0)
(2.38645e-06 2.16742e-06 0)
(2.52898e-06 2.33949e-06 0)
(2.67222e-06 2.51115e-06 0)
(2.81609e-06 2.68197e-06 0)
(2.96055e-06 2.85159e-06 0)
(3.10556e-06 3.01968e-06 0)
(3.25108e-06 3.18592e-06 0)
(3.3971e-06 3.35001e-06 0)
(3.5436e-06 3.51165e-06 0)
(3.69052e-06 3.67053e-06 0)
(3.83778e-06 3.82617e-06 0)
(3.98517e-06 3.97838e-06 0)
(1.20349e-06 7.97462e-07 0)
(1.32728e-06 9.46406e-07 0)
(1.45429e-06 1.10153e-06 0)
(1.5831e-06 1.26176e-06 0)
(1.7142e-06 1.4259e-06 0)
(1.84708e-06 1.59306e-06 0)
(1.98176e-06 1.76234e-06 0)
(2.11796e-06 1.93301e-06 0)
(2.25562e-06 2.1044e-06 0)
(2.39455e-06 2.27596e-06 0)
(2.53465e-06 2.44716e-06 0)
(2.67582e-06 2.61758e-06 0)
(2.81797e-06 2.78682e-06 0)
(2.96103e-06 2.95454e-06 0)
(3.10492e-06 3.12041e-06 0)
(3.24959e-06 3.28416e-06 0)
(3.39498e-06 3.4455e-06 0)
(3.54096e-06 3.60418e-06 0)
(3.68743e-06 3.75986e-06 0)
(3.83404e-06 3.91242e-06 0)
(1.11522e-06 7.47612e-07 0)
(1.2317e-06 8.94595e-07 0)
(1.3517e-06 1.04798e-06 0)
(1.47405e-06 1.20668e-06 0)
(1.59916e-06 1.36946e-06 0)
(1.7266e-06 1.53542e-06 0)
(1.85635e-06 1.70366e-06 0)
(1.98817e-06 1.87342e-06 0)
(2.12194e-06 2.04402e-06 0)
(2.25749e-06 2.21487e-06 0)
(2.39467e-06 2.38544e-06 0)
(2.53334e-06 2.55528e-06 0)
(2.67338e-06 2.72398e-06 0)
(2.81467e-06 2.89117e-06 0)
(2.9571e-06 3.05656e-06 0)
(3.10056e-06 3.21986e-06 0)
(3.24494e-06 3.38084e-06 0)
(3.39009e-06 3.53931e-06 0)
(3.53584e-06 3.69508e-06 0)
(3.6818e-06 3.84815e-06 0)
(1.02165e-06 7.00614e-07 0)
(1.13073e-06 8.45761e-07 0)
(1.24371e-06 9.97457e-07 0)
(1.35967e-06 1.15459e-06 0)
(1.47894e-06 1.31594e-06 0)
(1.60114e-06 1.4806e-06 0)
(1.72622e-06 1.64766e-06 0)
(1.85393e-06 1.81635e-06 0)
(1.98413e-06 1.98598e-06 0)
(2.1166e-06 2.15595e-06 0)
(2.25118e-06 2.32573e-06 0)
(2.38767e-06 2.49483e-06 0)
(2.52591e-06 2.66284e-06 0)
(2.66572e-06 2.8294e-06 0)
(2.80694e-06 2.9942e-06 0)
(2.94942e-06 3.15697e-06 0)
(3.093e-06 3.31753e-06 0)
(3.23747e-06 3.47576e-06 0)
(3.38263e-06 3.63161e-06 0)
(3.52809e-06 3.78525e-06 0)
(9.21051e-07 6.57108e-07 0)
(1.02261e-06 8.00385e-07 0)
(1.12858e-06 9.5028e-07 0)
(1.2383e-06 1.1057e-06 0)
(1.35194e-06 1.26544e-06 0)
(1.46919e-06 1.4286e-06 0)
(1.58993e-06 1.59426e-06 0)
(1.71391e-06 1.76167e-06 0)
(1.84094e-06 1.93011e-06 0)
(1.97077e-06 2.099e-06 0)
(2.10317e-06 2.26778e-06 0)
(2.23791e-06 2.43597e-06 0)
(2.37477e-06 2.60315e-06 0)
(2.5135e-06 2.76896e-06 0)
(2.6539e-06 2.93308e-06 0)
(2.79574e-06 3.09526e-06 0)
(2.9388e-06 3.25535e-06 0)
(3.08284e-06 3.41328e-06 0)
(3.2276e-06 3.56915e-06 0)
(3.37271e-06 3.72329e-06 0)
(8.10938e-07 6.16119e-07 0)
(9.04917e-07 7.575e-07 0)
(1.00399e-06 9.05509e-07 0)
(1.10768e-06 1.05911e-06 0)
(1.21604e-06 1.2171e-06 0)
(1.32874e-06 1.37861e-06 0)
(1.44563e-06 1.54272e-06 0)
(1.5664e-06 1.70868e-06 0)
(1.69081e-06 1.87579e-06 0)
(1.81856e-06 2.04344e-06 0)
(1.94938e-06 2.21109e-06 0)
(2.08296e-06 2.37825e-06 0)
(2.21903e-06 2.54451e-06 0)
(2.35727e-06 2.70948e-06 0)
(2.49741e-06 2.87287e-06 0)
(2.63914e-06 3.03443e-06 0)
(2.78216e-06 3.19401e-06 0)
(2.92615e-06 3.3516e-06 0)
(3.07081e-06 3.50741e-06 0)
(3.21577e-06 3.66189e-06 0)
(6.89854e-07 5.798e-07 0)
(7.76241e-07 7.18852e-07 0)
(8.68607e-07 8.64535e-07 0)
(9.66584e-07 1.01587e-06 0)
(1.07008e-06 1.17171e-06 0)
(1.17875e-06 1.33116e-06 0)
(1.29235e-06 1.49334e-06 0)
(1.41052e-06 1.6575e-06 0)
(1.53295e-06 1.82295e-06 0)
(1.65929e-06 1.98907e-06 0)
(1.78919e-06 2.15534e-06 0)
(1.92229e-06 2.32126e-06 0)
(2.05825e-06 2.48642e-06 0)
(2.1967e-06 2.65044e-06 0)
(2.33726e-06 2.81302e-06 0)
(2.47954e-06 2.97393e-06 0)
(2.62314e-06 3.13302e-06 0)
(2.76763e-06 3.2903e-06 0)
(2.91264e-06 3.44596e-06 0)
(3.05768e-06 3.60053e-06 0)
(9.79011e-08 1.32946e-08 0)
(2.95383e-07 7.10129e-08 0)
(5.04432e-07 1.733e-07 0)
(7.28075e-07 3.13581e-07 0)
(9.7072e-07 4.88513e-07 0)
(1.23396e-06 6.92213e-07 0)
(1.51918e-06 9.18498e-07 0)
(1.82629e-06 1.16093e-06 0)
(2.15437e-06 1.4127e-06 0)
(2.50138e-06 1.66807e-06 0)
(9.22541e-08 1.23426e-08 0)
(2.78592e-07 6.50079e-08 0)
(4.75433e-07 1.58437e-07 0)
(6.85083e-07 2.87281e-07 0)
(9.11503e-07 4.49068e-07 0)
(1.15616e-06 6.38921e-07 0)
(1.42031e-06 8.51514e-07 0)
(1.70384e-06 1.08111e-06 0)
(2.00592e-06 1.32136e-06 0)
(2.32468e-06 1.5679e-06 0)
(8.71788e-08 1.1152e-08 0)
(2.6352e-07 5.88026e-08 0)
(4.49542e-07 1.43927e-07 0)
(6.46782e-07 2.62124e-07 0)
(8.58723e-07 4.11569e-07 0)
(1.08658e-06 5.8816e-07 0)
(1.33166e-06 7.87274e-07 0)
(1.59398e-06 1.00407e-06 0)
(1.87347e-06 1.23271e-06 0)
(2.16829e-06 1.47032e-06 0)
(8.25342e-08 9.7212e-09 0)
(2.49781e-07 5.24614e-08 0)
(4.26212e-07 1.30052e-07 0)
(6.12685e-07 2.38785e-07 0)
(8.12279e-07 3.77307e-07 0)
(1.02587e-06 5.42101e-07 0)
(1.25465e-06 7.29049e-07 0)
(1.49846e-06 9.33815e-07 0)
(1.75756e-06 1.15092e-06 0)
(2.02989e-06 1.37792e-06 0)
(7.81927e-08 8.04423e-09 0)
(2.36954e-07 4.57854e-08 0)
(4.04568e-07 1.16203e-07 0)
(5.81277e-07 2.16117e-07 0)
(7.69818e-07 3.44515e-07 0)
(9.7076e-07 4.98341e-07 0)
(1.18525e-06 6.73915e-07 0)
(1.41297e-06 8.67415e-07 0)
(1.65457e-06 1.0738e-06 0)
(1.90717e-06 1.29061e-06 0)
(7.41171e-08 6.15243e-09 0)
(2.24928e-07 3.88259e-08 0)
(3.84413e-07 1.02457e-07 0)
(5.52266e-07 1.94262e-07 0)
(7.30934e-07 3.13472e-07 0)
(9.20667e-07 4.57359e-07 0)
(1.12255e-06 6.22556e-07 0)
(1.336e-06 8.05545e-07 0)
(1.56211e-06 1.00175e-06 0)
(1.79733e-06 1.20845e-06 0)
(7.02257e-08 4.04063e-09 0)
(2.13451e-07 3.14957e-08 0)
(3.6527e-07 8.85434e-08 0)
(5.24886e-07 1.72702e-07 0)
(6.94518e-07 2.83382e-07 0)
(8.74133e-07 4.18106e-07 0)
(1.06478e-06 5.73778e-07 0)
(1.26563e-06 7.47104e-07 0)
(1.47809e-06 9.33954e-07 0)
(1.69815e-06 1.13123e-06 0)
(6.64864e-08 1.73616e-09 0)
(2.02425e-07 2.38274e-08 0)
(3.46952e-07 7.44729e-08 0)
(4.9883e-07 1.51418e-07 0)
(6.60084e-07 2.54199e-07 0)
(8.30429e-07 3.80505e-07 0)
(1.01087e-06 5.27451e-07 0)
(1.20041e-06 6.91868e-07 0)
(1.40062e-06 8.7005e-07 0)
(1.60736e-06 1.05858e-06 0)
(6.2851e-08 -7.60941e-10 0)
(1.91708e-07 1.57861e-08 0)
(3.29197e-07 6.0125e-08 0)
(4.73685e-07 1.30176e-07 0)
(6.27036e-07 2.25559e-07 0)
(7.88754e-07 3.44081e-07 0)
(9.59803e-07 4.83025e-07 0)
(1.13907e-06 6.39298e-07 0)
(1.32819e-06 8.09546e-07 0)
(1.52307e-06 9.90107e-07 0)
(5.92913e-08 -3.43515e-09 0)
(1.81213e-07 7.38468e-09 0)
(3.11847e-07 4.54856e-08 0)
(4.4919e-07 1.08921e-07 0)
(5.94966e-07 1.9736e-07 0)
(7.4851e-07 3.08671e-07 0)
(9.10744e-07 4.40262e-07 0)
(1.08051e-06 5.89084e-07 0)
(1.25943e-06 7.52065e-07 0)
(1.4436e-06 9.25404e-07 0)
(5.5777e-08 -6.28635e-09 0)
(1.70854e-07 -1.39578e-09 0)
(2.94743e-07 3.04939e-08 0)
(4.25087e-07 8.7543e-08 0)
(5.63486e-07 1.69429e-07 0)
(7.09147e-07 2.74045e-07 0)
(8.62953e-07 3.98878e-07 0)
(1.02377e-06 5.40906e-07 0)
(1.19313e-06 6.97267e-07 0)
(1.36744e-06 8.64104e-07 0)
(5.22873e-08 -9.31124e-09 0)
(1.60573e-07 -1.05596e-08 0)
(2.77772e-07 1.5129e-08 0)
(4.01176e-07 6.60042e-08 0)
(5.32272e-07 1.41703e-07 0)
(6.70183e-07 2.40104e-07 0)
(8.15764e-07 3.58728e-07 0)
(9.67953e-07 4.94566e-07 0)
(1.12819e-06 6.44911e-07 0)
(1.29323e-06 8.05915e-07 0)
(4.88078e-08 -1.2521e-08 0)
(1.50339e-07 -2.01393e-08 0)
(2.60851e-07 -6.59156e-10 0)
(3.7729e-07 4.42453e-08 0)
(5.01032e-07 1.14108e-07 0)
(6.31172e-07 2.06751e-07 0)
(7.6855e-07 3.19683e-07 0)
(9.12231e-07 4.49899e-07 0)
(1.06355e-06 5.94799e-07 0)
(1.21965e-06 7.50589e-07 0)
(4.53336e-08 -1.59415e-08 0)
(1.40153e-07 -3.01683e-08 0)
(2.43938e-07 -1.68869e-08 0)
(3.53295e-07 2.22852e-08 0)
(4.695e-07 8.66848e-08 0)
(5.91681e-07 1.74027e-07 0)
(7.20698e-07 2.81766e-07 0)
(8.55785e-07 4.06893e-07 0)
(9.98177e-07 5.4688e-07 0)
(1.14544e-06 6.98026e-07 0)
(4.18879e-08 -1.96313e-08 0)
(1.30112e-07 -4.07399e-08 0)
(2.27087e-07 -3.3632e-08 0)
(3.29129e-07 8.15697e-11 0)
(4.37442e-07 5.94186e-08 0)
(5.51283e-07 1.41923e-07 0)
(6.71571e-07 2.44956e-07 0)
(7.97754e-07 3.65496e-07 0)
(9.30991e-07 5.0107e-07 0)
(1.06927e-06 6.48086e-07 0)
(3.85237e-08 -2.37399e-08 0)
(1.20384e-07 -5.19636e-08 0)
(2.10398e-07 -5.08579e-08 0)
(3.0474e-07 -2.21726e-08 0)
(4.04611e-07 3.26015e-08 0)
(5.09515e-07 1.10776e-07 0)
(6.20489e-07 2.09589e-07 0)
(7.37237e-07 3.26013e-07 0)
(8.60861e-07 4.57624e-07 0)
(9.89772e-07 6.00964e-07 0)
(3.54556e-08 -2.84949e-08 0)
(1.11513e-07 -6.40967e-08 0)
(1.94292e-07 -6.87183e-08 0)
(2.80259e-07 -4.45601e-08 0)
(3.70807e-07 6.20251e-09 0)
(4.6586e-07 8.05581e-08 0)
(5.66645e-07 1.75616e-07 0)
(6.73153e-07 2.88354e-07 0)
(7.86448e-07 4.16403e-07 0)
(9.0536e-07 5.56459e-07 0)
(3.31439e-08 -3.46399e-08 0)
(1.04122e-07 -7.74444e-08 0)
(1.7914e-07 -8.68377e-08 0)
(2.55671e-07 -6.62347e-08 0)
(3.35686e-07 -1.87255e-08 0)
(4.19672e-07 5.23865e-08 0)
(5.09134e-07 1.44128e-07 0)
(6.04351e-07 2.53539e-07 0)
(7.06367e-07 3.78323e-07 0)
(8.14417e-07 5.15364e-07 0)
(3.38687e-08 -4.29141e-08 0)
(1.00582e-07 -9.2491e-08 0)
(1.66392e-07 -1.05516e-07 0)
(2.31389e-07 -8.76192e-08 0)
(2.98872e-07 -4.26964e-08 0)
(3.70005e-07 2.56311e-08 0)
(4.46577e-07 1.14398e-07 0)
(5.29097e-07 2.20749e-07 0)
(6.18585e-07 3.42497e-07 0)
(7.14604e-07 4.76723e-07 0)
(4.25101e-08 -5.71898e-08 0)
(1.02311e-07 -1.09354e-07 0)
(1.56599e-07 -1.2245e-07 0)
(2.07143e-07 -1.053e-07 0)
(2.59814e-07 -6.21462e-08 0)
(3.16073e-07 3.78518e-09 0)
(3.78037e-07 8.97214e-08 0)
(4.46295e-07 1.93054e-07 0)
(5.21873e-07 3.1173e-07 0)
(6.04517e-07 4.43061e-07 0)
)
;

boundaryField
{
    left
    {
        type            fixedDisplacement;
        value           uniform (0 0 0);
    }
    right
    {
        type            solidTraction;
        tractionSeries  
{
        file            "$FOAM_CASE/constant/timeVsTraction";
        outOfBounds     clamp;
}
        pressure        uniform 0;
        secondOrder     false;
        setEffectiveTraction false;
        relaxationFactor 1;
        value           nonuniform List<vector> 
30
(
(8.05929e-06 5.80474e-06 1.95798e-21)
(7.87306e-06 5.73777e-06 1.96517e-21)
(7.68506e-06 5.67127e-06 2.01382e-21)
(7.49468e-06 5.60395e-06 2.11288e-21)
(7.3019e-06 5.53496e-06 2.25884e-21)
(7.10713e-06 5.46356e-06 2.44727e-21)
(6.91106e-06 5.38931e-06 2.67062e-21)
(6.71453e-06 5.31198e-06 2.92087e-21)
(6.51843e-06 5.23157e-06 3.18913e-21)
(6.32366e-06 5.14833e-06 3.46531e-21)
(6.13931e-06 5.06631e-06 3.66377e-21)
(5.96447e-06 4.98561e-06 3.75326e-21)
(5.79209e-06 4.90366e-06 3.81368e-21)
(5.62256e-06 4.8209e-06 3.84621e-21)
(5.45609e-06 4.73792e-06 3.84566e-21)
(5.2923e-06 4.65531e-06 3.81444e-21)
(5.13153e-06 4.57337e-06 3.75737e-21)
(4.97345e-06 4.49272e-06 3.67444e-21)
(4.81775e-06 4.41373e-06 3.57051e-21)
(4.66402e-06 4.33672e-06 3.4498e-21)
(4.51179e-06 4.26195e-06 3.31768e-21)
(4.36054e-06 4.18955e-06 3.17973e-21)
(4.20974e-06 4.11957e-06 3.04223e-21)
(4.05884e-06 4.05195e-06 2.9113e-21)
(3.90733e-06 3.98651e-06 2.79329e-21)
(3.75476e-06 3.92295e-06 2.69356e-21)
(3.60079e-06 3.86087e-06 2.61846e-21)