/*--------------------------------*- C++ -*----------------------------------*\
  =========                 |
  \\      /  F ield         | OpenFOAM: The Open Source CFD Toolbox
   \\    /   O peration     | Website:  https://openfoam.org
    \\  /    A nd           | Version:  9
     \\/     M anipulation  |
\*---------------------------------------------------------------------------*/
FoamFile
{
    format      ascii;
    class       volVectorField;
    location    "5";
    object      D_0;
}
// * * * * * * * * * * * * * * * * * * * * * * * * * * * * * * * * * * * * * //

dimensions      [0 1 0 0 0 0 0];

internalField   nonuniform List<vector> 
1000
(
(2.65682e-06 8.79395e-07 0)
(2.4783e-06 9.74674e-07 0)
(2.34827e-06 1.05369e-06 0)
(2.25432e-06 1.11502e-06 0)
(2.18715e-06 1.16736e-06 0)
(2.13977e-06 1.21208e-06 0)
(2.10768e-06 1.25203e-06 0)
(2.08736e-06 1.28821e-06 0)
(2.07595e-06 1.32177e-06 0)
(2.07203e-06 1.35343e-06 0)
(2.39472e-06 7.90619e-07 0)
(2.2092e-06 8.60681e-07 0)
(2.07489e-06 9.21145e-07 0)
(1.97822e-06 9.67583e-07 0)
(1.9092e-06 1.00782e-06 0)
(1.86038e-06 1.04214e-06 0)
(1.82696e-06 1.07297e-06 0)
(1.80517e-06 1.10096e-06 0)
(1.7921e-06 1.12675e-06 0)
(1.78576e-06 1.15178e-06 0)
(2.12714e-06 7.01916e-07 0)
(1.93993e-06 7.44891e-07 0)
(1.80497e-06 7.85955e-07 0)
(1.70825e-06 8.1732e-07 0)
(1.63942e-06 8.45695e-07 0)
(1.5908e-06 8.7013e-07 0)
(1.55736e-06 8.92505e-07 0)
(1.53522e-06 9.13053e-07 0)
(1.5214e-06 9.3194e-07 0)
(1.51382e-06 9.50724e-07 0)
(1.85582e-06 6.14981e-07 0)
(1.67219e-06 6.30097e-07 0)
(1.54041e-06 6.51552e-07 0)
(1.44646e-06 6.68069e-07 0)
(1.38006e-06 6.85133e-07 0)
(1.33342e-06 7.00413e-07 0)
(1.30142e-06 7.1519e-07 0)
(1.28008e-06 7.29159e-07 0)
(1.26658e-06 7.42083e-07 0)
(1.25861e-06 7.55365e-07 0)
(1.58038e-06 5.30623e-07 0)
(1.40632e-06 5.18323e-07 0)
(1.28188e-06 5.20855e-07 0)
(1.19395e-06 5.23492e-07 0)
(1.13245e-06 5.30407e-07 0)
(1.08972e-06 5.37749e-07 0)
(1.06062e-06 5.4615e-07 0)
(1.04121e-06 5.54684e-07 0)
(1.0289e-06 5.6278e-07 0)
(1.02127e-06 5.71484e-07 0)
(1.30181e-06 4.49287e-07 0)
(1.14251e-06 4.11152e-07 0)
(1.02983e-06 3.96541e-07 0)
(9.5147e-07 3.87099e-07 0)
(8.97633e-07 3.85707e-07 0)
(8.60779e-07 3.86797e-07 0)
(8.35977e-07 3.90383e-07 0)
(8.19493e-07 3.94869e-07 0)
(8.09047e-07 3.99436e-07 0)
(8.02314e-07 4.04692e-07 0)
(1.01922e-06 3.71697e-07 0)
(8.804e-07 3.10486e-07 0)
(7.84312e-07 2.81741e-07 0)
(7.19367e-07 2.6307e-07 0)
(6.75882e-07 2.55846e-07 0)
(6.46687e-07 2.52762e-07 0)
(6.27329e-07 2.53257e-07 0)
(6.14509e-07 2.55152e-07 0)
(6.06399e-07 2.57487e-07 0)
(6.00936e-07 2.60438e-07 0)
(7.34899e-07 2.95824e-07 0)
(6.21111e-07 2.16471e-07 0)
(5.46685e-07 1.78932e-07 0)
(4.98886e-07 1.55477e-07 0)
(4.6785e-07 1.45685e-07 0)
(4.47492e-07 1.40937e-07 0)
(4.34198e-07 1.40165e-07 0)
(4.25389e-07 1.40916e-07 0)
(4.19799e-07 1.4222e-07 0)
(4.15823e-07 1.4395e-07 0)
(4.42637e-07 2.14427e-07 0)
(3.62751e-07 1.27028e-07 0)
(3.16234e-07 9.00355e-08 0)
(2.88758e-07 6.85864e-08 0)
(2.71747e-07 6.02091e-08 0)
(2.60759e-07 5.63673e-08 0)
(2.53691e-07 5.58173e-08 0)
(2.48903e-07 5.64158e-08 0)
(2.45794e-07 5.74081e-08 0)
(2.43376e-07 5.85847e-08 0)
(1.52084e-07 1.11741e-07 0)
(1.15473e-07 4.63404e-08 0)
(1.01332e-07 2.37199e-08 0)
(9.38086e-08 1.30655e-08 0)
(8.92831e-08 9.6342e-09 0)
(8.61703e-08 8.48155e-09 0)
(8.41251e-08 8.70778e-09 0)
(8.26456e-08 9.30892e-09 0)
(8.16411e-08 9.97093e-09 0)
(8.07689e-08 1.06251e-08 0)
(4.68429e-06 1.43864e-06 0)
(4.67726e-06 1.61706e-06 0)
(4.67234e-06 1.78342e-06 0)
(4.67276e-06 1.93545e-06 0)
(4.67989e-06 2.07455e-06 0)
(4.69433e-06 2.20248e-06 0)
(4.71618e-06 2.32129e-06 0)
(4.74502e-06 2.4328e-06 0)
(4.78062e-06 2.53844e-06 0)
(4.82206e-06 2.63982e-06 0)
(4.53707e-06 1.42636e-06 0)
(4.51688e-06 1.6043e-06 0)
(4.50304e-06 1.76863e-06 0)
(4.49702e-06 1.9176e-06 0)
(4.49953e-06 2.05296e-06 0)
(4.51021e-06 2.1766e-06 0)
(4.5287e-06 2.29075e-06 0)
(4.55416e-06 2.39734e-06 0)
(4.58624e-06 2.49784e-06 0)
(4.62369e-06 2.59409e-06 0)
(4.38124e-06 1.40187e-06 0)
(4.34543e-06 1.57954e-06 0)
(4.31947e-06 1.74057e-06 0)
(4.30391e-06 1.88468e-06 0)
(4.29895e-06 2.0147e-06 0)
(4.30337e-06 2.13278e-06 0)
(4.31642e-06 2.24135e-06 0)
(4.33678e-06 2.34234e-06 0)
(4.364e-06 2.43729e-06 0)
(4.39634e-06 2.52807e-06 0)
(4.21295e-06 1.36646e-06 0)
(4.15959e-06 1.54351e-06 0)
(4.11954e-06 1.70048e-06 0)
(4.09268e-06 1.83865e-06 0)
(4.07849e-06 1.96223e-06 0)
(4.07509e-06 2.07374e-06 0)
(4.08132e-06 2.1758e-06 0)
(4.09542e-06 2.2704e-06 0)
(4.11684e-06 2.35911e-06 0)
(4.14334e-06 2.44379e-06 0)
(4.03019e-06 1.32047e-06 0)
(3.95759e-06 1.49556e-06 0)
(3.90247e-06 1.64717e-06 0)
(3.86368e-06 1.77804e-06 0)
(3.83972e-06 1.89392e-06 0)
(3.82801e-06 1.99773e-06 0)
(3.82698e-06 2.09233e-06 0)
(3.83446e-06 2.17969e-06 0)
(3.84978e-06 2.26148e-06 0)
(3.87022e-06 2.33943e-06 0)
(3.83262e-06 1.26488e-06 0)
(3.7397e-06 1.43565e-06 0)
(3.6692e-06 1.58032e-06 0)
(3.6185e-06 1.70267e-06 0)
(3.58483e-06 1.80986e-06 0)
(3.5649e-06 1.90508e-06 0)
(3.55667e-06 1.99144e-06 0)
(3.55763e-06 2.07088e-06 0)
(3.56693e-06 2.14515e-06 0)
(3.58147e-06 2.21577e-06 0)
(3.62076e-06 1.20049e-06 0)
(3.50723e-06 1.36375e-06 0)
(3.42168e-06 1.49953e-06 0)
(3.35959e-06 1.61203e-06 0)
(3.31678e-06 1.70958e-06 0)
(3.28918e-06 1.79544e-06 0)
(3.27427e-06 1.87295e-06 0)
(3.26918e-06 1.94392e-06 0)
(3.27289e-06 2.01021e-06 0)
(3.28202e-06 2.07307e-06 0)
(3.39572e-06 1.12844e-06 0)
(3.26227e-06 1.28045e-06 0)
(3.16261e-06 1.40519e-06 0)
(3.0901e-06 1.50657e-06 0)
(3.03908e-06 1.59366e-06 0)
(3.00468e-06 1.66961e-06 0)
(2.98385e-06 1.73785e-06 0)
(2.97346e-06 1.80001e-06 0)
(2.97218e-06 1.85802e-06 0)
(2.97662e-06 1.91275e-06 0)
(3.15896e-06 1.04992e-06 0)
(3.00736e-06 1.18673e-06 0)
(2.89518e-06 1.29823e-06 0)
(2.81363e-06 1.38726e-06 0)
(2.75564e-06 1.46321e-06 0)
(2.71555e-06 1.52886e-06 0)
(2.68978e-06 1.58759e-06 0)
(2.67498e-06 1.64084e-06 0)
(2.66947e-06 1.6904e-06 0)
(2.67009e-06 1.73695e-06 0)
(2.91211e-06 9.66373e-07 0)
(2.74515e-06 1.08414e-06 0)
(2.62265e-06 1.1803e-06 0)
(2.53382e-06 1.25591e-06 0)
(2.47036e-06 1.32022e-06 0)
(2.42585e-06 1.37538e-06 0)
(2.39627e-06 1.42462e-06 0)
(2.37809e-06 1.46903e-06 0)
(2.36921e-06 1.51035e-06 0)
(2.36719e-06 1.54827e-06 0)
(4.87161e-06 2.73712e-06 0)
(4.92849e-06 2.83354e-06 0)
(4.98977e-06 2.9283e-06 0)
(5.05493e-06 3.02189e-06 0)
(5.12366e-06 3.11482e-06 0)
(5.19556e-06 3.20738e-06 0)
(5.27032e-06 3.29992e-06 0)
(5.34763e-06 3.39265e-06 0)
(5.42722e-06 3.48581e-06 0)
(5.50883e-06 3.57955e-06 0)
(5.59221e-06 3.67403e-06 0)
(5.67715e-06 3.76937e-06 0)
(5.76344e-06 3.86567e-06 0)
(5.85086e-06 3.96301e-06 0)
(5.93923e-06 4.06145e-06 0)
(6.02833e-06 4.16101e-06 0)
(6.11799e-06 4.26167e-06 0)
(6.208e-06 4.36335e-06 0)
(6.2982e-06 4.46587e-06 0)
(6.38838e-06 4.56891e-06 0)
(4.67552e-06 2.68768e-06 0)
(4.73955e-06 2.78251e-06 0)
(4.80701e-06 2.87578e-06 0)
(4.87734e-06 2.96804e-06 0)
(4.95045e-06 3.05983e-06 0)
(5.02601e-06 3.15143e-06 0)
(5.10386e-06 3.24318e-06 0)
(5.18374e-06 3.33529e-06 0)
(5.26547e-06 3.42797e-06 0)
(5.34887e-06 3.52139e-06 0)
(5.43376e-06 3.61569e-06 0)
(5.51998e-06 3.71099e-06 0)
(5.60737e-06 3.80738e-06 0)
(5.69577e-06 3.90495e-06 0)
(5.78506e-06 4.00374e-06 0)
(5.87507e-06 4.10377e-06 0)
(5.96568e-06 4.20503e-06 0)
(6.05674e-06 4.30744e-06 0)
(6.14811e-06 4.41083e-06 0)
(6.23959e-06 4.51494e-06 0)
(4.45115e-06 2.6189e-06 0)
(4.52433e-06 2.71399e-06 0)
(4.59999e-06 2.80754e-06 0)
(4.67739e-06 2.90006e-06 0)
(4.75674e-06 2.99217e-06 0)
(4.83771e-06 3.08409e-06 0)
(4.9203e-06 3.17623e-06 0)
(5.00432e-06 3.26876e-06 0)
(5.08971e-06 3.36194e-06 0)
(5.17633e-06 3.45592e-06 0)
(5.26409e-06 3.55085e-06 0)
(5.35289e-06 3.64684e-06 0)
(5.44263e-06 3.74401e-06 0)
(5.53321e-06 3.84243e-06 0)
(5.62456e-06 3.94217e-06 0)
(5.71657e-06 4.04326e-06 0)
(5.80915e-06 4.14571e-06 0)
(5.90218e-06 4.24948e-06 0)
(5.99556e-06 4.3545e-06 0)
(6.08902e-06 4.46061e-06 0)
(4.20179e-06 2.5324e-06 0)
(4.28581e-06 2.62915e-06 0)
(4.37138e-06 2.72443e-06 0)
(4.45748e-06 2.81847e-06 0)
(4.54467e-06 2.91209e-06 0)
(4.63258e-06 3.00544e-06 0)
(4.72139e-06 3.09897e-06 0)
(4.81095e-06 3.19287e-06 0)
(4.90133e-06 3.2874e-06 0)
(4.99243e-06 3.38274e-06 0)
(5.08426e-06 3.47904e-06 0)
(5.17678e-06 3.57644e-06 0)
(5.26995e-06 3.67505e-06 0)
(5.36373e-06 3.77496e-06 0)
(5.45809e-06 3.87626e-06 0)
(5.55297e-06 3.97901e-06 0)
(5.64833e-06 4.08325e-06 0)
(5.74407e-06 4.18902e-06 0)
(5.84011e-06 4.29635e-06 0)
(5.93619e-06 4.40518e-06 0)
(3.93296e-06 2.4266e-06 0)
(4.02906e-06 2.5266e-06 0)
(4.12585e-06 2.62521e-06 0)
(4.22186e-06 2.72221e-06 0)
(4.3181e-06 2.81869e-06 0)
(4.41409e-06 2.91468e-06 0)
(4.51023e-06 3.01073e-06 0)
(4.60641e-06 3.10703e-06 0)
(4.70278e-06 3.20387e-06 0)
(4.79933e-06 3.30144e-06 0)
(4.89615e-06 3.39994e-06 0)
(4.99324e-06 3.49949e-06 0)
(5.09065e-06 3.60025e-06 0)
(5.18838e-06 3.70232e-06 0)
(5.28646e-06 3.80581e-06 0)
(5.38487e-06 3.91082e-06 0)
(5.48362e-06 4.01746e-06 0)
(5.58263e-06 4.1258e-06 0)
(5.68186e-06 4.23601e-06 0)
(5.78109e-06 4.34814e-06 0)
(3.64908e-06 2.30222e-06 0)
(3.75816e-06 2.40693e-06 0)
(3.86712e-06 2.51037e-06 0)
(3.97395e-06 2.61167e-06 0)
(4.08013e-06 2.71225e-06 0)
(4.18508e-06 2.81205e-06 0)
(4.28941e-06 2.91169e-06 0)
(4.39302e-06 3.01139e-06 0)
(4.49619e-06 3.11146e-06 0)
(4.59895e-06 3.21213e-06 0)
(4.70147e-06 3.31361e-06 0)
(4.80382e-06 3.41606e-06 0)
(4.90609e-06 3.51966e-06 0)
(5.00836e-06 3.62453e-06 0)
(5.11069e-06 3.73083e-06 0)
(5.21313e-06 3.83868e-06 0)
(5.31571e-06 3.94823e-06 0)
(5.41842e-06 4.05965e-06 0)
(5.52126e-06 4.1732e-06 0)
(5.62408e-06 4.28901e-06 0)
(3.3549e-06 2.15957e-06 0)
(3.47741e-06 2.27047e-06 0)
(3.59914e-06 2.38018e-06 0)
(3.71734e-06 2.48714e-06 0)
(3.83407e-06 2.59303e-06 0)
(3.9486e-06 2.69778e-06 0)
(4.06171e-06 2.80206e-06 0)
(4.17334e-06 2.90613e-06 0)
(4.28386e-06 3.01034e-06 0)
(4.39338e-06 3.11495e-06 0)
(4.50211e-06 3.2202e-06 0)
(4.61019e-06 3.32629e-06 0)
(4.71778e-06 3.43342e-06 0)
(4.82501e-06 3.54174e-06 0)
(4.93198e-06 3.65143e-06 0)
(5.03879e-06 3.76265e-06 0)
(5.14553e-06 3.87562e-06 0)
(5.25226e-06 3.99054e-06 0)
(5.359e-06 4.10777e-06 0)
(5.46573e-06 4.2275e-06 0)
(3.05495e-06 2.00003e-06 0)
(3.1909e-06 2.1185e-06 0)
(3.32552e-06 2.23563e-06 0)
(3.45537e-06 2.34948e-06 0)
(3.58289e-06 2.46176e-06 0)
(3.70735e-06 2.57255e-06 0)
(3.82959e-06 2.68247e-06 0)
(3.94965e-06 2.79185e-06 0)
(4.06791e-06 2.90107e-06 0)
(4.18457e-06 3.01044e-06 0)
(4.29988e-06 3.12022e-06 0)
(4.41405e-06 3.23065e-06 0)
(4.52727e-06 3.34194e-06 0)
(4.63973e-06 3.45431e-06 0)
(4.7516e-06 3.56793e-06 0)
(4.86302e-06 3.68302e-06 0)
(4.97414e-06 3.79982e-06 0)
(5.08507e-06 3.91858e-06 0)
(5.19591e-06 4.03974e-06 0)
(5.30676e-06 4.1635e-06 0)
(2.75384e-06 1.82519e-06 0)
(2.90286e-06 1.95268e-06 0)
(3.04999e-06 2.0781e-06 0)
(3.19153e-06 2.19998e-06 0)
(3.32979e-06 2.31955e-06 0)
(3.46428e-06 2.43724e-06 0)
(3.59575e-06 2.55359e-06 0)
(3.72436e-06 2.66907e-06 0)
(3.85052e-06 2.78407e-06 0)
(3.97449e-06 2.89893e-06 0)
(4.09655e-06 3.01396e-06 0)
(4.21698e-06 3.12941e-06 0)
(4.33601e-06 3.24552e-06 0)
(4.45387e-06 3.36253e-06 0)
(4.57077e-06 3.48064e-06 0)
(4.68693e-06 3.60007e-06 0)
(4.80253e-06 3.7211e-06 0)
(4.91778e-06 3.844e-06 0)
(5.0328e-06 3.96925e-06 0)
(5.1479e-06 4.09706e-06 0)
(2.45518e-06 1.63786e-06 0)
(2.61656e-06 1.77522e-06 0)
(2.77484e-06 1.90915e-06 0)
(2.92776e-06 2.03987e-06 0)
(3.07652e-06 2.16766e-06 0)
(3.22107e-06 2.29315e-06 0)
(3.36188e-06 2.41681e-06 0)
(3.49921e-06 2.53916e-06 0)
(3.63343e-06 2.66064e-06 0)
(3.76485e-06 2.78164e-06 0)
(3.89381e-06 2.90251e-06 0)
(4.0206e-06 3.02353e-06 0)
(4.14552e-06 3.14498e-06 0)
(4.26884e-06 3.26711e-06 0)
(4.39083e-06 3.39013e-06 0)
(4.51175e-06 3.5143e-06 0)
(4.63183e-06 3.63987e-06 0)
(4.75138e-06 3.76714e-06 0)
(4.87057e-06 3.89658e-06 0)
(4.9899e-06 4.0284e-06 0)
(2.22507e-06 1.49702e-06 0)
(2.39326e-06 1.64159e-06 0)
(2.55736e-06 1.78027e-06 0)
(2.71642e-06 1.916e-06 0)
(2.87112e-06 2.04877e-06 0)
(3.02143e-06 2.1792e-06 0)
(3.16776e-06 2.30774e-06 0)
(3.31032e-06 2.43482e-06 0)
(3.44947e-06 2.56086e-06 0)
(3.58549e-06 2.68622e-06 0)
(3.71872e-06 2.81122e-06 0)
(3.84945e-06 2.93615e-06 0)
(3.97799e-06 3.06127e-06 0)
(4.10463e-06 3.18681e-06 0)
(4.22967e-06 3.31299e-06 0)
(4.35339e-06 3.44004e-06 0)
(4.47607e-06 3.56819e-06 0)
(4.59807e-06 3.6977e-06 0)
(4.71959e-06 3.82897e-06 0)
(4.8413e-06 3.9622e-06 0)
(2.07179e-06 1.41239e-06 0)
(2.23995e-06 1.55681e-06 0)
(2.40404e-06 1.69649e-06 0)
(2.56358e-06 1.83367e-06 0)
(2.71901e-06 1.96828e-06 0)
(2.87027e-06 2.10076e-06 0)
(3.01769e-06 2.23145e-06 0)
(3.16142e-06 2.36072e-06 0)
(3.30175e-06 2.4889e-06 0)
(3.43894e-06 2.6163e-06 0)
(3.57327e-06 2.74319e-06 0)
(3.70502e-06 2.86983e-06 0)
(3.83448e-06 2.99643e-06 0)
(3.96193e-06 3.12321e-06 0)
(4.08767e-06 3.25036e-06 0)
(4.212e-06 3.37807e-06 0)
(4.33518e-06 3.50654e-06 0)
(4.45762e-06 3.63597e-06 0)
(4.57955e-06 3.76667e-06 0)
(4.7017e-06 3.89874e-06 0)
(1.93679e-06 1.33137e-06 0)
(2.10182e-06 1.4752e-06 0)
(2.26418e-06 1.61514e-06 0)
(2.42241e-06 1.75314e-06 0)
(2.57715e-06 1.88904e-06 0)
(2.72807e-06 2.0231e-06 0)
(2.87546e-06 2.1556e-06 0)
(3.01936e-06 2.28677e-06 0)
(3.16002e-06 2.41688e-06 0)
(3.29762e-06 2.54617e-06 0)
(3.43241e-06 2.67484e-06 0)
(3.56464e-06 2.80312e-06 0)
(3.69456e-06 2.93118e-06 0)
(3.82245e-06 3.05918e-06 0)
(3.94859e-06 3.18728e-06 0)
(4.07326e-06 3.31563e-06 0)
(4.19676e-06 3.44436e-06 0)
(4.31949e-06 3.57364e-06 0)
(4.44169e-06 3.70363e-06 0)
(4.56415e-06 3.8344e-06 0)
(1.81604e-06 1.25364e-06 0)
(1.97703e-06 1.3961e-06 0)
(2.13639e-06 1.53575e-06 0)
(2.29219e-06 1.67417e-06 0)
(2.44512e-06 1.811e-06 0)
(2.59466e-06 1.94637e-06 0)
(2.74106e-06 2.08042e-06 0)
(2.88426e-06 2.21329e-06 0)
(3.02446e-06 2.34517e-06 0)
(3.16179e-06 2.4762e-06 0)
(3.29644e-06 2.60656e-06 0)
(3.42862e-06 2.73638e-06 0)
(3.55857e-06 2.86582e-06 0)
(3.68653e-06 2.99498e-06 0)
(3.81275e-06 3.12398e-06 0)
(3.93753e-06 3.25292e-06 0)
(4.06114e-06 3.38187e-06 0)
(4.18399e-06 3.51094e-06 0)
(4.30633e-06 3.64017e-06 0)
(4.42895e-06 3.76951e-06 0)
(1.70809e-06 1.17989e-06 0)
(1.86417e-06 1.32057e-06 0)
(2.01954e-06 1.45947e-06 0)
(2.17195e-06 1.59783e-06 0)
(2.32214e-06 1.73515e-06 0)
(2.46943e-06 1.87143e-06 0)
(2.61403e-06 2.00669e-06 0)
(2.7558e-06 2.14097e-06 0)
(2.89487e-06 2.27435e-06 0)
(3.03131e-06 2.40693e-06 0)
(3.16528e-06 2.53879e-06 0)
(3.29695e-06 2.67003e-06 0)
(3.42652e-06 2.80073e-06 0)
(3.5542e-06 2.93097e-06 0)
(3.68023e-06 3.0608e-06 0)
(3.80486e-06 3.19026e-06 0)
(3.9284e-06 3.31938e-06 0)
(4.05113e-06 3.44818e-06 0)
(4.17357e-06 3.57653e-06 0)
(4.29627e-06 3.70441e-06 0)
(1.61083e-06 1.11009e-06 0)
(1.76152e-06 1.24858e-06 0)
(1.91226e-06 1.38634e-06 0)
(2.06064e-06 1.52426e-06 0)
(2.20739e-06 1.6617e-06 0)
(2.35175e-06 1.79857e-06 0)
(2.49389e-06 1.93473e-06 0)
(2.63359e-06 2.07015e-06 0)
(2.77094e-06 2.2048e-06 0)
(2.90597e-06 2.33871e-06 0)
(3.03879e-06 2.47189e-06 0)
(3.16953e-06 2.60439e-06 0)
(3.29835e-06 2.73622e-06 0)
(3.42544e-06 2.86741e-06 0)
(3.55101e-06 2.99797e-06 0)
(3.67531e-06 3.12788e-06 0)
(3.79858e-06 3.25711e-06 0)
(3.92119e-06 3.38556e-06 0)
(4.04335e-06 3.51308e-06 0)
(4.16581e-06 3.63959e-06 0)
(1.5225e-06 1.04421e-06 0)
(1.66753e-06 1.1803e-06 0)
(1.8132e-06 1.31664e-06 0)
(1.95706e-06 1.4538e-06 0)
(2.09986e-06 1.59105e-06 0)
(2.24076e-06 1.72817e-06 0)
(2.3799e-06 1.86494e-06 0)
(2.51703e-06 2.00121e-06 0)
(2.65219e-06 2.13688e-06 0)
(2.78536e-06 2.27188e-06 0)
(2.91662e-06 2.40618e-06 0)
(3.04607e-06 2.53975e-06 0)
(3.17383e-06 2.67256e-06 0)
(3.30006e-06 2.80457e-06 0)
(3.42494e-06 2.93576e-06 0)
(3.5487e-06 3.06604e-06 0)
(3.67154e-06 3.19532e-06 0)
(3.7938e-06 3.32345e-06 0)
(3.91567e-06 3.45016e-06 0)
(4.03782e-06 3.5753e-06 0)
(1.4414e-06 9.82046e-07 0)
(1.58064e-06 1.1156e-06 0)
(1.72099e-06 1.25033e-06 0)
(1.86004e-06 1.38649e-06 0)
(1.99851e-06 1.52329e-06 0)
(2.13556e-06 1.66042e-06 0)
(2.27131e-06 1.79753e-06 0)
(2.40546e-06 1.93439e-06 0)
(2.53804e-06 2.07083e-06 0)
(2.66899e-06 2.20671e-06 0)
(2.79835e-06 2.34191e-06 0)
(2.9262e-06 2.47637e-06 0)
(3.05262e-06 2.60998e-06 0)
(3.17776e-06 2.74268e-06 0)
(3.30175e-06 2.87437e-06 0)
(3.42479e-06 3.00494e-06 0)
(3.54706e-06 3.13422e-06 0)
(3.66885e-06 3.26202e-06 0)
(3.79031e-06 3.38799e-06 0)
(3.91203e-06 3.51191e-06 0)
(1.36603e-06 9.23371e-07 0)
(1.49945e-06 1.05438e-06 0)
(1.63431e-06 1.18739e-06 0)
(1.76836e-06 1.3224e-06 0)
(1.90224e-06 1.45855e-06 0)
(2.03517e-06 1.59544e-06 0)
(2.16722e-06 1.73266e-06 0)
(2.2981e-06 1.86988e-06 0)
(2.42779e-06 2.00686e-06 0)
(2.55623e-06 2.14339e-06 0)
(2.68343e-06 2.27929e-06 0)
(2.80943e-06 2.41444e-06 0)
(2.9343e-06 2.54869e-06 0)
(3.05815e-06 2.68193e-06 0)
(3.18108e-06 2.81401e-06 0)
(3.30326e-06 2.94478e-06 0)
(3.42482e-06 3.07402e-06 0)
(3.54603e-06 3.20151e-06 0)
(3.66699e-06 3.32682e-06 0)
(3.78817e-06 3.44969e-06 0)
(1.29497e-06 8.67927e-07 0)
(1.42259e-06 9.9645e-07 0)
(1.55191e-06 1.1277e-06 0)
(1.68084e-06 1.26144e-06 0)
(1.80998e-06 1.39681e-06 0)
(1.93859e-06 1.5333e-06 0)
(2.06673e-06 1.67042e-06 0)
(2.19411e-06 1.8078e-06 0)
(2.3207e-06 1.9451e-06 0)
(2.44641e-06 2.08207e-06 0)
(2.57124e-06 2.21848e-06 0)
(2.69521e-06 2.35412e-06 0)
(2.81835e-06 2.48884e-06 0)
(2.94074e-06 2.62246e-06 0)
(3.06247e-06 2.75481e-06 0)
(3.18367e-06 2.8857e-06 0)
(3.30444e-06 3.01488e-06 0)
(3.42498e-06 3.14208e-06 0)
(3.54535e-06 3.26684e-06 0)
(3.66592e-06 3.38887e-06 0)
(1.22695e-06 8.15465e-07 0)
(1.34881e-06 9.41617e-07 0)
(1.47257e-06 1.07112e-06 0)
(1.59631e-06 1.20357e-06 0)
(1.72062e-06 1.33805e-06 0)
(1.84479e-06 1.474e-06 0)
(1.96888e-06 1.61087e-06 0)
(2.09261e-06 1.74821e-06 0)
(2.21595e-06 1.88565e-06 0)
(2.33878e-06 2.02286e-06 0)
(2.46109e-06 2.15957e-06 0)
(2.58288e-06 2.29554e-06 0)
(2.70417e-06 2.43055e-06 0)
(2.82499e-06 2.56441e-06 0)
(2.94543e-06 2.69691e-06 0)
(3.06556e-06 2.82784e-06 0)
(3.18546e-06 2.95692e-06 0)
(3.30525e-06 3.08387e-06 0)
(3.42499e-06 3.2082e-06 0)
(3.54488e-06 3.32964e-06 0)
(1.16077e-06 7.65781e-07 0)
(1.2769e-06 8.89716e-07 0)
(1.3951e-06 1.01754e-06 0)
(1.51364e-06 1.14868e-06 0)
(1.63305e-06 1.28221e-06 0)
(1.75272e-06 1.41752e-06 0)
(1.87268e-06 1.55399e-06 0)
(1.99268e-06 1.69114e-06 0)
(2.11267e-06 1.82854e-06 0)
(2.23253e-06 1.96581e-06 0)
(2.35224e-06 2.10263e-06 0)
(2.47177e-06 2.23875e-06 0)
(2.59112e-06 2.3739e-06 0)
(2.71032e-06 2.50785e-06 0)
(2.82939e-06 2.64039e-06 0)
(2.94839e-06 2.77127e-06 0)
(3.06737e-06 2.90022e-06 0)
(3.18638e-06 3.02695e-06 0)
(3.30544e-06 3.15099e-06 0)
(3.42462e-06 3.27208e-06 0)
(1.09527e-06 7.18685e-07 0)
(1.20569e-06 8.40582e-07 0)
(1.31833e-06 9.66803e-07 0)
(1.43166e-06 1.09666e-06 0)
(1.54617e-06 1.22921e-06 0)
(1.66131e-06 1.36379e-06 0)
(1.77712e-06 1.49976e-06 0)
(1.89336e-06 1.63657e-06 0)
(2.00997e-06 1.77376e-06 0)
(2.12684e-06 1.91092e-06 0)
(2.24391e-06 2.0477e-06 0)
(2.36116e-06 2.18379e-06 0)
(2.47855e-06 2.31892e-06 0)
(2.59608e-06 2.45283e-06 0)
(2.71377e-06 2.58528e-06 0)
(2.83162e-06 2.71604e-06 0)
(2.94964e-06 2.84483e-06 0)
(3.06786e-06 2.97138e-06 0)
(3.18623e-06 3.09526e-06 0)
(3.3047e-06 3.21624e-06 0)
(1.02931e-06 6.74091e-07 0)
(1.13401e-06 7.94128e-07 0)
(1.24109e-06 9.18837e-07 0)
(1.34921e-06 1.04744e-06 0)
(1.45884e-06 1.17897e-06 0)
(1.56947e-06 1.31276e-06 0)
(1.68116e-06 1.4481e-06 0)
(1.79366e-06 1.58445e-06 0)
(1.90692e-06 1.72128e-06 0)
(2.02082e-06 1.85818e-06 0)
(2.1353e-06 1.99474e-06 0)
(2.25029e-06 2.13065e-06 0)
(2.36575e-06 2.26561e-06 0)
(2.48164e-06 2.39934e-06 0)
(2.59796e-06 2.5316e-06 0)
(2.71467e-06 2.66216e-06 0)
(2.83176e-06 2.79075e-06 0)
(2.94918e-06 2.91715e-06 0)
(3.06688e-06 3.04097e-06 0)
(3.18467e-06 3.16206e-06 0)
(9.61723e-07 6.31869e-07 0)
(1.06066e-06 7.50218e-07 0)
(1.16217e-06 8.73501e-07 0)
(1.26511e-06 1.00088e-06 0)
(1.36988e-06 1.13138e-06 0)
(1.47607e-06 1.2643e-06 0)
(1.5837e-06 1.39892e-06 0)
(1.69256e-06 1.53467e-06 0)
(1.80257e-06 1.67101e-06 0)
(1.9136e-06 1.80749e-06 0)
(2.02558e-06 1.94369e-06 0)
(2.13841e-06 2.07928e-06 0)
(2.25202e-06 2.21393e-06 0)
(2.36636e-06 2.34736e-06 0)
(2.48137e-06 2.47933e-06 0)
(2.597e-06 2.6096e-06 0)
(2.7132e-06 2.73796e-06 0)
(2.82988e-06 2.8642e-06 0)
(2.94693e-06 2.98805e-06 0)
(3.0641e-06 3.10943e-06 0)
(8.91291e-07 5.92125e-07 0)
(9.84403e-07 7.08909e-07 0)
(1.08032e-06 8.30812e-07 0)
(1.1781e-06 9.56955e-07 0)
(1.2781e-06 1.08637e-06 0)
(1.37996e-06 1.21834e-06 0)
(1.48366e-06 1.35213e-06 0)
(1.58902e-06 1.48715e-06 0)
(1.69594e-06 1.62285e-06 0)
(1.80427e-06 1.75875e-06 0)
(1.91392e-06 1.89445e-06 0)
(2.02475e-06 2.02956e-06 0)
(2.13668e-06 2.16377e-06 0)
(2.24961e-06 2.29679e-06 0)
(2.36345e-06 2.42837e-06 0)
(2.47811e-06 2.55829e-06 0)
(2.59351e-06 2.68636e-06 0)
(2.70951e-06 2.81244e-06 0)
(2.826e-06 2.93636e-06 0)
(2.94264e-06 3.05816e-06 0)
(8.16623e-07 5.5466e-07 0)
(9.03825e-07 6.69979e-07 0)
(9.94139e-07 7.90528e-07 0)
(1.08684e-06 9.15422e-07 0)
(1.18218e-06 1.04369e-06 0)
(1.27986e-06 1.17462e-06 0)
(1.37984e-06 1.30746e-06 0)
(1.48192e-06 1.44163e-06 0)
(1.58599e-06 1.57655e-06 0)
(1.69188e-06 1.71175e-06 0)
(1.79944e-06 1.84681e-06 0)
(1.90854e-06 1.98133e-06 0)
(2.01903e-06 2.11499e-06 0)
(2.13078e-06 2.2475e-06 0)
(2.24366e-06 2.37861e-06 0)
(2.35754e-06 2.50811e-06 0)
(2.47229e-06 2.63584e-06 0)
(2.58775e-06 2.76172e-06 0)
(2.70377e-06 2.88572e-06 0)
(2.82e-06 3.00797e-06 0)
(7.36325e-07 5.1998e-07 0)
(8.17535e-07 6.33806e-07 0)
(9.02267e-07 7.52916e-07 0)
(9.89985e-07 8.76442e-07 0)
(1.08084e-06 1.00343e-06 0)
(1.17457e-06 1.13315e-06 0)
(1.2711e-06 1.26488e-06 0)
(1.37021e-06 1.39801e-06 0)
(1.47175e-06 1.53199e-06 0)
(1.57553e-06 1.66632e-06 0)
(1.68136e-06 1.80057e-06 0)
(1.78907e-06 1.93437e-06 0)
(1.89846e-06 2.06737e-06 0)
(2.00935e-06 2.19927e-06 0)
(2.12157e-06 2.32983e-06 0)
(2.23494e-06 2.45886e-06 0)
(2.34927e-06 2.58622e-06 0)
(2.46439e-06 2.71187e-06 0)
(2.58008e-06 2.83589e-06 0)
(2.69605e-06 2.95853e-06 0)
(6.48433e-07 4.87311e-07 0)
(7.23601e-07 5.99619e-07 0)
(8.02835e-07 7.17223e-07 0)
(8.85755e-07 8.39292e-07 0)
(9.72399e-07 9.64881e-07 0)
(1.06251e-06 1.09328e-06 0)
(1.15597e-06 1.22377e-06 0)
(1.25252e-06 1.35574e-06 0)
(1.35198e-06 1.48865e-06 0)
(1.45411e-06 1.62199e-06 0)
(1.55868e-06 1.75534e-06 0)
(1.66546e-06 1.88832e-06 0)
(1.77422e-06 2.02057e-06 0)
(1.88472e-06 2.15181e-06 0)
(1.99673e-06 2.28179e-06 0)
(2.11001e-06 2.41032e-06 0)
(2.22431e-06 2.53727e-06 0)
(2.33939e-06 2.66265e-06 0)
(2.455e-06 2.78662e-06 0)
(2.57084e-06 2.90954e-06 0)
(5.5178e-07 4.5836e-07 0)
(6.20905e-07 5.68808e-07 0)
(6.948e-07 6.84551e-07 0)
(7.73171e-07 8.04815e-07 0)
(8.55947e-07 9.28677e-07 0)
(9.4285e-07 1.05544e-06 0)
(1.03368e-06 1.18438e-06 0)
(1.12817e-06 1.31492e-06 0)
(1.22605e-06 1.44649e-06 0)
(1.32705e-06 1.57862e-06 0)
(1.4309e-06 1.71086e-06 0)
(1.5373e-06 1.84284e-06 0)
(1.64598e-06 1.97422e-06 0)
(1.75664e-06 2.1047e-06 0)
(1.86898e-06 2.23403e-06 0)
(1.9827e-06 2.36204e-06 0)
(2.09747e-06 2.48861e-06 0)
(2.21294e-06 2.61374e-06 0)
(2.32882e-06 2.73759e-06 0)
(2.44473e-06 2.86058e-06 0)
(7.81045e-08 1.04659e-08 0)
(2.35651e-07 5.61806e-08 0)
(4.0241e-07 1.37393e-07 0)
(5.80808e-07 2.48872e-07 0)
(7.74319e-07 3.8797e-07 0)
(9.84266e-07 5.50034e-07 0)
(1.21164e-06 7.30079e-07 0)
(1.45617e-06 9.2284e-07 0)
(1.71727e-06 1.12292e-06 0)
(1.99357e-06 1.32597e-06 0)
(7.36062e-08 9.71329e-09 0)
(2.22278e-07 5.14104e-08 0)
(3.79318e-07 1.25568e-07 0)
(5.46575e-07 2.27937e-07 0)
(7.27177e-07 3.56559e-07 0)
(9.22302e-07 5.07569e-07 0)
(1.13294e-06 6.7669e-07 0)
(1.35886e-06 8.59335e-07 0)
(1.59936e-06 1.05033e-06 0)
(1.85302e-06 1.24631e-06 0)
(6.95638e-08 8.76817e-09 0)
(2.10276e-07 4.64763e-08 0)
(3.58705e-07 1.14019e-07 0)
(5.16084e-07 2.07906e-07 0)
(6.85173e-07 3.26689e-07 0)
(8.66935e-07 4.67124e-07 0)
(1.06241e-06 6.25515e-07 0)
(1.27154e-06 7.97965e-07 0)
(1.4942e-06 9.79802e-07 0)
(1.72881e-06 1.1687e-06 0)
(6.58646e-08 7.62991e-09 0)
(1.99336e-07 4.14291e-08 0)
(3.40132e-07 1.0297e-07 0)
(4.88942e-07 1.89314e-07 0)
(6.48209e-07 2.99388e-07 0)
(8.18626e-07 4.30407e-07 0)
(1.00114e-06 5.79085e-07 0)
(1.19557e-06 7.41965e-07 0)
(1.40214e-06 9.14641e-07 0)
(1.61893e-06 1.09512e-06 0)
(6.24071e-08 6.29389e-09 0)
(1.89122e-07 3.61115e-08 0)
(3.22902e-07 9.1938e-08 0)
(4.63943e-07 1.71253e-07 0)
(6.1442e-07 2.73254e-07 0)
(7.74778e-07 3.95523e-07 0)
(9.45941e-07 5.35127e-07 0)
(1.12759e-06 6.89014e-07 0)
(1.32032e-06 8.53169e-07 0)
(1.52157e-06 1.02554e-06 0)
(5.91609e-08 4.78548e-09 0)
(1.79545e-07 3.05647e-08 0)
(3.06855e-07 8.09826e-08 0)
(4.40846e-07 1.53832e-07 0)
(5.83469e-07 2.48506e-07 0)
(7.34911e-07 3.62843e-07 0)
(8.96046e-07 4.94164e-07 0)
(1.06637e-06 6.39662e-07 0)
(1.24679e-06 7.95702e-07 0)
(1.43436e-06 9.60045e-07 0)
(5.60612e-08 3.10093e-09 0)
(1.70404e-07 2.47203e-08 0)
(2.91611e-07 6.98913e-08 0)
(4.19047e-07 1.36645e-07 0)
(5.54478e-07 2.24517e-07 0)
(6.97871e-07 3.31542e-07 0)
(8.50066e-07 4.55264e-07 0)
(1.01038e-06 5.93048e-07 0)
(1.17994e-06 7.41624e-07 0)
(1.35552e-06 8.98472e-07 0)
(5.30821e-08 1.26221e-09 0)
(1.61621e-07 1.8605e-08 0)
(2.7702e-07 5.86724e-08 0)
(3.98295e-07 1.19675e-07 0)
(5.27057e-07 2.01247e-07 0)
(6.63072e-07 3.01557e-07 0)
(8.07147e-07 4.18314e-07 0)
(9.58466e-07 5.4899e-07 0)
(1.11829e-06 6.9065e-07 0)
(1.28329e-06 8.4054e-07 0)
(5.01853e-08 -7.30235e-10 0)
(1.53081e-07 1.21919e-08 0)
(2.62875e-07 4.72319e-08 0)
(3.78263e-07 1.02737e-07 0)
(5.00731e-07 1.78411e-07 0)
(6.29879e-07 2.72511e-07 0)
(7.66475e-07 3.82883e-07 0)
(9.09623e-07 5.07062e-07 0)
(1.06062e-06 6.42389e-07 0)
(1.21619e-06 7.85931e-07 0)
(4.73482e-08 -2.86384e-09 0)
(1.44717e-07 5.49176e-09 0)
(2.49048e-07 3.55591e-08 0)
(3.58743e-07 8.57906e-08 0)
(4.75177e-07 1.55926e-07 0)
(5.97814e-07 2.44274e-07 0)
(7.27389e-07 3.48779e-07 0)
(8.62975e-07 4.67014e-07 0)
(1.00585e-06 5.96542e-07 0)
(1.15291e-06 7.34328e-07 0)
(4.45467e-08 -5.13815e-09 0)
(1.36459e-07 -1.50968e-09 0)
(2.35413e-07 2.36064e-08 0)
(3.3953e-07 6.87463e-08 0)
(4.50084e-07 1.33656e-07 0)
(5.66441e-07 2.16665e-07 0)
(6.89301e-07 3.15779e-07 0)
(8.17755e-07 4.28594e-07 0)
(9.5302e-07 5.52838e-07 0)
(1.09223e-06 6.8544e-07 0)
(4.17641e-08 -7.55036e-09 0)
(1.28261e-07 -8.81528e-09 0)
(2.2188e-07 1.13581e-08 0)
(3.20465e-07 5.1576e-08 0)
(4.25196e-07 1.11552e-07 0)
(5.35376e-07 1.89604e-07 0)
(6.5168e-07 2.83765e-07 0)
(7.7326e-07 3.91642e-07 0)
(9.01254e-07 5.11086e-07 0)
(1.03308e-06 6.39034e-07 0)
(3.89889e-08 -1.01091e-08 0)
(1.20097e-07 -1.64503e-08 0)
(2.08383e-07 -1.22481e-09 0)
(3.01412e-07 3.42333e-08 0)
(4.0028e-07 8.95563e-08 0)
(5.04263e-07 1.63016e-07 0)
(6.14027e-07 2.52636e-07 0)
(7.28826e-07 3.56028e-07 0)
(8.49713e-07 4.71126e-07 0)
(9.74422e-07 5.94915e-07 0)
(3.62168e-08 -1.28343e-08 0)
(1.11968e-07 -2.44404e-08 0)
(1.94886e-07 -1.41546e-08 0)
(2.82266e-07 1.67339e-08 0)
(3.75122e-07 6.77005e-08 0)
(4.72758e-07 1.36933e-07 0)
(5.75855e-07 2.2241e-07 0)
(6.83801e-07 3.21742e-07 0)
(7.97574e-07 4.32921e-07 0)
(9.15235e-07 5.53003e-07 0)
(3.3466e-08 -1.57722e-08 0)
(1.03951e-07 -3.28592e-08 0)
(1.81433e-07 -2.74923e-08 0)
(2.62975e-07 -9.55003e-10 0)
(3.49535e-07 4.5975e-08 0)
(4.40519e-07 1.1135e-07 0)
(5.36653e-07 1.93073e-07 0)
(6.37498e-07 2.88745e-07 0)
(7.43972e-07 3.96402e-07 0)
(8.54469e-07 5.13186e-07 0)
(3.07778e-08 -1.90398e-08 0)
(9.61768e-08 -4.17916e-08 0)
(1.681e-07 -4.12072e-08 0)
(2.43496e-07 -1.86785e-08 0)
(3.2332e-07 2.4613e-08 0)
(4.07173e-07 8.65344e-08 0)
(4.95877e-07 1.64891e-07 0)
(5.89197e-07 2.57279e-07 0)
(6.88005e-07 3.61772e-07 0)
(7.91036e-07 4.75621e-07 0)
(2.83221e-08 -2.28184e-08 0)
(8.90754e-08 -5.14431e-08 0)
(1.55219e-07 -5.54215e-08 0)
(2.23929e-07 -3.65014e-08 0)
(2.96312e-07 3.59147e-09 0)
(3.72305e-07 6.24669e-08 0)
(4.52883e-07 1.37828e-07 0)
(5.38035e-07 2.27274e-07 0)
(6.28606e-07 3.28923e-07 0)
(7.23664e-07 4.40147e-07 0)
(2.64619e-08 -2.76919e-08 0)
(8.31392e-08 -6.20492e-08 0)
(1.43079e-07 -6.98315e-08 0)
(2.04254e-07 -5.3747e-08 0)
(2.68231e-07 -1.62499e-08 0)
(3.35395e-07 4.00374e-08 0)
(4.06941e-07 1.12751e-07 0)
(4.8309e-07 1.9954e-07 0)
(5.64668e-07 2.98581e-07 0)
(6.51066e-07 4.07396e-07 0)
(2.70026e-08 -3.42522e-08 0)
(8.02428e-08 -7.40007e-08 0)
(1.32819e-07 -8.46786e-08 0)
(1.84787e-07 -7.07521e-08 0)
(2.38767e-07 -3.53192e-08 0)
(2.95682e-07 1.87452e-08 0)
(3.56952e-07 8.90832e-08 0)
(4.2298e-07 1.73428e-07 0)
(4.94572e-07 2.70042e-07 0)
(5.71382e-07 3.76605e-07 0)
(3.3811e-08 -4.55507e-08 0)
(8.15002e-08 -8.73672e-08 0)
(1.24855e-07 -9.81127e-08 0)
(1.65292e-07 -8.47917e-08 0)
(2.07462e-07 -5.0776e-08 0)
(2.52524e-07 1.37129e-09 0)
(3.02155e-07 6.94461e-08 0)
(3.56821e-07 1.51377e-07 0)
(4.17332e-07 2.45534e-07 0)
(4.83487e-07 3.4978e-07 0)
)
;

boundaryField
{
    left
    {
        type            fixedDisplacement;
        value           uniform (0 0 0);
    }
    right
    {
        type            solidTraction;
        tractionSeries  
{
        file            "$FOAM_CASE/constant/timeVsTraction";
        outOfBounds     clamp;
}
        pressure        uniform 0;
        secondOrder     false;
        setEffectiveTraction false;
        relaxationFactor 1;
        value           nonuniform List<vector> 
30
(
(6.43329e-06 4.62032e-06 2.11255e-21)
(6.28476e-06 4.56689e-06 2.12103e-21)
(6.13481e-06 4.51382e-06 2.16677e-21)
(5.98296e-06 4.46007e-06 2.25629e-21)
(5.82919e-06 4.40497e-06 2.38653e-21)
(5.67386e-06 4.34794e-06 2.55384e-21)
(5.51749e-06 4.28861e-06 2.75197e-21)
(5.36079e-06 4.22681e-06 2.97441e-21)
(5.20444e-06 4.16255e-06 3.21385e-21)
(5.04916e-06 4.09601e-06 3.4621e-21)
(4.90221e-06 4.03046e-06 3.63611e-21)
(4.76284e-06 3.96597e-06 3.70745e-21)
(4.62544e-06 3.90049e-06 3.75551e-21)
(4.49032e-06 3.83437e-06 3.78118e-21)
(4.35764e-06 3.76809e-06 3.78047e-21)
(4.22709e-06 3.70211e-06 3.75528e-21)
(4.09894e-06 3.63668e-06 3.70949e-21)
(3.97293e-06 3.5723e-06 3.64313e-21)
(3.8488e-06 3.50925e-06 3.56007e-21)
(3.72622e-06 3.4478e-06 3.46375e-21)
(3.60483e-06 3.38813e-06 3.35838e-21)
(3.48421e-06 3.33036e-06 3.24845e-21)
(3.36392e-06 3.27453e-06 3.13898e-21)
(3.24354e-06 3.22059e-06 3.03485e-21)
(3.12267e-06 3.16838e-06 2.94095e-21)
(3.00095e-06 3.11767e-06 2.86164e-21)