/*--------------------------------*- C++ -*----------------------------------*\
  =========                 |
  \\      /  F ield         | OpenFOAM: The Open Source CFD Toolbox
   \\    /   O peration     | Website:  https://openfoam.org
    \\  /    A nd           | Version:  9
     \\/     M anipulation  |
\*---------------------------------------------------------------------------*/
FoamFile
{
    format      ascii;
    class       volScalarField;
    location    "5";
    object      epsilonEq;
}
// * * * * * * * * * * * * * * * * * * * * * * * * * * * * * * * * * * * * * //

dimensions      [0 0 0 0 0 0 0];

internalField   nonuniform List<scalar> 
1000
(
3.30903e-06
3.1634e-06
3.13193e-06
3.16418e-06
3.17163e-06
3.16689e-06
3.14558e-06
3.11166e-06
3.07334e-06
3.0248e-06
3.86709e-06
3.52267e-06
3.36302e-06
3.3185e-06
3.27633e-06
3.2381e-06
3.19129e-06
3.14003e-06
3.08149e-06
3.02884e-06
4.41672e-06
3.87164e-06
3.57425e-06
3.44131e-06
3.33978e-06
3.26051e-06
3.1833e-06
3.10995e-06
3.03202e-06
2.9687e-06
4.94735e-06
4.2072e-06
3.76676e-06
3.53477e-06
3.36501e-06
3.23888e-06
3.12773e-06
3.03056e-06
2.93447e-06
2.86053e-06
5.44248e-06
4.52013e-06
3.93398e-06
3.59606e-06
3.35142e-06
3.17383e-06
3.02667e-06
2.90536e-06
2.79214e-06
2.70823e-06
5.90277e-06
4.80886e-06
4.0745e-06
3.62553e-06
3.30119e-06
3.06962e-06
2.88605e-06
2.74221e-06
2.61609e-06
2.52153e-06
6.29745e-06
5.05248e-06
4.16925e-06
3.61051e-06
3.20903e-06
2.92669e-06
2.71315e-06
2.54997e-06
2.41344e-06
2.31034e-06
6.6626e-06
5.23812e-06
4.19896e-06
3.54221e-06
3.07551e-06
2.75751e-06
2.52307e-06
2.34793e-06
2.20632e-06
2.09702e-06
6.89678e-06
5.2484e-06
4.06895e-06
3.36064e-06
2.8809e-06
2.56121e-06
2.32779e-06
2.1534e-06
2.01463e-06
1.90337e-06
7.07119e-06
4.92984e-06
3.76425e-06
3.11033e-06
2.69958e-06
2.41427e-06
2.20369e-06
2.04003e-06
1.90758e-06
1.79505e-06
2.90582e-08
5.73304e-08
1.51002e-07
2.77741e-07
4.16959e-07
5.61366e-07
7.02022e-07
8.36525e-07
9.60177e-07
1.07505e-06
6.52215e-08
1.91147e-07
3.82669e-07
5.72142e-07
7.39776e-07
8.87914e-07
1.01632e-06
1.13065e-06
1.22811e-06
1.31962e-06
1.53937e-07
4.15873e-07
6.60228e-07
8.82197e-07
1.06699e-06
1.21986e-06
1.34332e-06
1.44624e-06
1.52598e-06
1.60114e-06
3.19235e-07
6.95229e-07
9.72306e-07
1.20741e-06
1.39437e-06
1.54366e-06
1.65908e-06
1.75097e-06
1.81603e-06
1.87825e-06
5.64027e-07
1.01177e-06
1.30862e-06
1.54623e-06
1.72495e-06
1.8627e-06
1.96485e-06
2.04253e-06
2.09216e-06
2.1409e-06
8.85501e-07
1.34928e-06
1.64864e-06
1.88001e-06
2.04402e-06
2.16521e-06
2.25046e-06
2.31149e-06
2.34511e-06
2.37941e-06
1.27619e-06
1.70112e-06
1.98222e-06
2.19808e-06
2.34199e-06
2.44314e-06
2.5093e-06
2.55209e-06
2.56938e-06
2.58804e-06
1.7265e-06
2.06211e-06
2.30075e-06
2.48992e-06
2.6089e-06
2.6878e-06
2.73375e-06
2.75712e-06
2.75909e-06
2.76081e-06
2.22422e-06
2.42879e-06
2.60042e-06
2.75075e-06
2.83926e-06
2.89245e-06
2.91728e-06
2.92263e-06
2.91067e-06
2.89882e-06
2.75658e-06
2.79761e-06
2.87803e-06
2.97564e-06
3.02659e-06
3.05207e-06
3.05431e-06
3.03931e-06
3.01807e-06
2.98459e-06
1.1784e-06
1.26717e-06
1.3497e-06
1.42439e-06
1.49201e-06
1.55287e-06
1.60754e-06
1.6564e-06
1.69992e-06
1.73844e-06
1.7723e-06
1.80172e-06
1.8269e-06
1.84798e-06
1.865e-06
1.87807e-06
1.88714e-06
1.89253e-06
1.89414e-06
1.8929e-06
1.38963e-06
1.43982e-06
1.4907e-06
1.53798e-06
1.58246e-06
1.62389e-06
1.66226e-06
1.69753e-06
1.7298e-06
1.75906e-06
1.78543e-06
1.80896e-06
1.8297e-06
1.8477e-06
1.86296e-06
1.87549e-06
1.88508e-06
1.89164e-06
1.89416e-06
1.89207e-06
1.64203e-06
1.65668e-06
1.67593e-06
1.69438e-06
1.71337e-06
1.73241e-06
1.75143e-06
1.77006e-06
1.78821e-06
1.80559e-06
1.82213e-06
1.83767e-06
1.85214e-06
1.86541e-06
1.87732e-06
1.8877e-06
1.89598e-06
1.90162e-06
1.90259e-06
1.89783e-06
1.89519e-06
1.88063e-06
1.87299e-06
1.86633e-06
1.86215e-06
1.86012e-06
1.86034e-06
1.86225e-06
1.86583e-06
1.87057e-06
1.87635e-06
1.88283e-06
1.88981e-06
1.89702e-06
1.90414e-06
1.91078e-06
1.91616e-06
1.91952e-06
1.91846e-06
1.91207e-06
2.13659e-06
2.09819e-06
2.06765e-06
2.03967e-06
2.01537e-06
1.99447e-06
1.97746e-06
1.96358e-06
1.95306e-06
1.94524e-06
1.94005e-06
1.93703e-06
1.93593e-06
1.93636e-06
1.9379e-06
1.94004e-06
1.94188e-06
1.94262e-06
1.93995e-06
1.93318e-06
2.35635e-06
2.29919e-06
2.24979e-06
2.20404e-06
2.16307e-06
2.12598e-06
2.09411e-06
2.06623e-06
2.04292e-06
2.02342e-06
2.00774e-06
1.9954e-06
1.98614e-06
1.97954e-06
1.97516e-06
1.97247e-06
1.97063e-06
1.96889e-06
1.96547e-06
1.95974e-06
2.54861e-06
2.4777e-06
2.41448e-06
2.35442e-06
2.30035e-06
2.24959e-06
2.20502e-06
2.16483e-06
2.13006e-06
2.09992e-06
2.07451e-06
2.05339e-06
2.03632e-06
2.02291e-06
2.01275e-06
2.00536e-06
2.0001e-06
1.9963e-06
1.99298e-06
1.98944e-06
2.70827e-06
2.62802e-06
2.55638e-06
2.48495e-06
2.42177e-06
2.36071e-06
2.30629e-06
2.25625e-06
2.21186e-06
2.17247e-06
2.1383e-06
2.10904e-06
2.08458e-06
2.0646e-06
2.04884e-06
2.03691e-06
2.0285e-06
2.02307e-06
2.02054e-06
2.02012e-06
2.8383e-06
2.7474e-06
2.67536e-06
2.5962e-06
2.52649e-06
2.45744e-06
2.39464e-06
2.3364e-06
2.28383e-06
2.23662e-06
2.19496e-06
2.1587e-06
2.12778e-06
2.10201e-06
2.08129e-06
2.06538e-06
2.05431e-06
2.04772e-06
2.04651e-06
2.04972e-06
2.93471e-06
2.83714e-06
2.76931e-06
2.6893e-06
2.61647e-06
2.54469e-06
2.47639e-06
2.41194e-06
2.3523e-06
2.29782e-06
2.2489e-06
2.20565e-06
2.16819e-06
2.1365e-06
2.11066e-06
2.09059e-06
2.07675e-06
2.06895e-06
2.06914e-06
2.07623e-06
2.97044e-06
2.87863e-06
2.81208e-06
2.73643e-06
2.66227e-06
2.59055e-06
2.5217e-06
2.45561e-06
2.39365e-06
2.33622e-06
2.28396e-06
2.23714e-06
2.19609e-06
2.16096e-06
2.13206e-06
2.10951e-06
2.09413e-06
2.08591e-06
2.08759e-06
2.09802e-06
2.88909e-06
2.84297e-06
2.78246e-06
2.71682e-06
2.64976e-06
2.5841e-06
2.52029e-06
2.45815e-06
2.39916e-06
2.3438e-06
2.29286e-06
2.24677e-06
2.20599e-06
2.17085e-06
2.14185e-06
2.11929e-06
2.10426e-06
2.09692e-06
2.1006e-06
2.11395e-06
2.82179e-06
2.78773e-06
2.74186e-06
2.68621e-06
2.62899e-06
2.57003e-06
2.51141e-06
2.45345e-06
2.39768e-06
2.34475e-06
2.29554e-06
2.25062e-06
2.21059e-06
2.17591e-06
2.14724e-06
2.12504e-06
2.1106e-06
2.10415e-06
2.10933e-06
2.12472e-06
2.74265e-06
2.72336e-06
2.68979e-06
2.64446e-06
2.59665e-06
2.5443e-06
2.4912e-06
2.4379e-06
2.38601e-06
2.33627e-06
2.28965e-06
2.2468e-06
2.20839e-06
2.17501e-06
2.14737e-06
2.12614e-06
2.11252e-06
2.10713e-06
2.1138e-06
2.13037e-06
2.65468e-06
2.64645e-06
2.62508e-06
2.59017e-06
2.55137e-06
2.50639e-06
2.45984e-06
2.41203e-06
2.3649e-06
2.31918e-06
2.27597e-06
2.23596e-06
2.19991e-06
2.1685e-06
2.14241e-06
2.12261e-06
2.1097e-06
2.10619e-06
2.11005e-06
2.13057e-06
2.56318e-06
2.5648e-06
2.55339e-06
2.52753e-06
2.49702e-06
2.45951e-06
2.41966e-06
2.37775e-06
2.33582e-06
2.29468e-06
2.25547e-06
2.21894e-06
2.18592e-06
2.15706e-06
2.1332e-06
2.11502e-06
2.10393e-06
2.10056e-06
2.10782e-06
2.1241e-06
2.46889e-06
2.47851e-06
2.4754e-06
2.45775e-06
2.43508e-06
2.40496e-06
2.37189e-06
2.33612e-06
2.29977e-06
2.26364e-06
2.22893e-06
2.19639e-06
2.16688e-06
2.14106e-06
2.11977e-06
2.10361e-06
2.09393e-06
2.09096e-06
2.09787e-06
2.11331e-06
2.37351e-06
2.38955e-06
2.39356e-06
2.38328e-06
2.36773e-06
2.34457e-06
2.31806e-06
2.28846e-06
2.25784e-06
2.22699e-06
2.19712e-06
2.16896e-06
2.14337e-06
2.12098e-06
2.10257e-06
2.08867e-06
2.08045e-06
2.07816e-06
2.08441e-06
2.09794e-06
2.27784e-06
2.29884e-06
2.30879e-06
2.30499e-06
2.29588e-06
2.27927e-06
2.2591e-06
2.23563e-06
2.21082e-06
2.18545e-06
2.16067e-06
2.13722e-06
2.11589e-06
2.09726e-06
2.08203e-06
2.07063e-06
2.064e-06
2.06227e-06
2.06759e-06
2.07878e-06
2.18216e-06
2.20694e-06
2.22184e-06
2.22375e-06
2.22046e-06
2.20998e-06
2.19589e-06
2.17845e-06
2.15948e-06
2.13972e-06
2.12024e-06
2.10173e-06
2.08493e-06
2.07034e-06
2.05856e-06
2.04989e-06
2.04502e-06
2.04395e-06
2.04817e-06
2.05661e-06
2.08624e-06
2.11385e-06
2.13289e-06
2.13984e-06
2.1419e-06
2.13722e-06
2.12903e-06
2.11757e-06
2.10448e-06
2.09043e-06
2.07642e-06
2.06307e-06
2.05102e-06
2.04073e-06
2.03263e-06
2.02693e-06
2.02402e-06
2.02373e-06
2.02685e-06
2.03242e-06
1.98954e-06
2.01933e-06
2.0419e-06
2.05345e-06
2.06054e-06
2.06147e-06
2.0591e-06
2.05362e-06
2.04648e-06
2.03828e-06
2.0299e-06
2.02189e-06
2.01479e-06
2.00899e-06
2.00479e-06
2.00229e-06
2.00156e-06
2.00229e-06
2.00448e-06
2.00724e-06
1.89109e-06
1.92271e-06
1.9485e-06
1.96446e-06
1.97651e-06
1.98306e-06
1.98658e-06
1.9872e-06
1.98618e-06
1.98401e-06
1.98145e-06
1.97895e-06
1.97699e-06
1.97585e-06
1.97573e-06
1.97661e-06
1.97831e-06
1.98034e-06
1.98192e-06
1.9822e-06
1.78997e-06
1.82341e-06
1.85243e-06
1.87292e-06
1.8901e-06
1.90248e-06
1.91215e-06
1.91915e-06
1.92451e-06
1.92861e-06
1.93207e-06
1.93527e-06
1.93857e-06
1.9422e-06
1.94626e-06
1.95066e-06
1.95501e-06
1.95864e-06
1.96009e-06
1.9584e-06
1.68466e-06
1.72041e-06
1.7531e-06
1.77865e-06
1.80149e-06
1.82023e-06
1.83655e-06
1.85039e-06
1.86254e-06
1.87325e-06
1.88301e-06
1.89208e-06
1.90076e-06
1.90921e-06
1.91748e-06
1.92543e-06
1.93254e-06
1.93803e-06
1.93989e-06
1.93697e-06
1.57469e-06
1.61372e-06
1.65092e-06
1.6824e-06
1.71174e-06
1.73762e-06
1.76126e-06
1.78252e-06
1.80194e-06
1.81963e-06
1.83594e-06
1.85104e-06
1.86514e-06
1.87837e-06
1.89073e-06
1.90209e-06
1.91192e-06
1.91939e-06
1.92221e-06
1.91893e-06
1.4582e-06
1.50225e-06
1.54553e-06
1.58445e-06
1.6216e-06
1.65578e-06
1.68774e-06
1.71723e-06
1.74456e-06
1.76973e-06
1.79292e-06
1.81422e-06
1.83376e-06
1.85163e-06
1.86783e-06
1.88227e-06
1.89449e-06
1.90378e-06
1.90795e-06
1.90525e-06
1.33783e-06
1.38917e-06
1.44042e-06
1.48844e-06
1.53481e-06
1.57839e-06
1.61954e-06
1.6579e-06
1.69358e-06
1.72648e-06
1.75667e-06
1.78415e-06
1.80898e-06
1.8312e-06
1.85081e-06
1.86777e-06
1.88179e-06
1.89236e-06
1.89781e-06
1.89638e-06
1.21175e-06
1.274e-06
1.3362e-06
1.39578e-06
1.45331e-06
1.50779e-06
1.55926e-06
1.60731e-06
1.65192e-06
1.69292e-06
1.73031e-06
1.76404e-06
1.79409e-06
1.82044e-06
1.84302e-06
1.86179e-06
1.87656e-06
1.88716e-06
1.89284e-06
1.8928e-06
1.09585e-06
1.17176e-06
1.24671e-06
1.31879e-06
1.388e-06
1.45341e-06
1.51495e-06
1.5722e-06
1.62513e-06
1.67356e-06
1.71748e-06
1.75681e-06
1.79149e-06
1.82142e-06
1.84641e-06
1.86631e-06
1.88085e-06
1.8901e-06
1.89385e-06
1.89339e-06
1.69988e-06
1.80551e-06
1.99004e-06
2.19654e-06
2.40504e-06
2.59243e-06
2.74752e-06
2.86409e-06
2.93912e-06
2.95918e-06
1.61161e-06
1.71136e-06
1.88199e-06
2.0763e-06
2.27884e-06
2.46758e-06
2.63249e-06
2.76277e-06
2.85702e-06
2.89798e-06
1.53229e-06
1.62859e-06
1.78781e-06
1.96921e-06
2.1609e-06
2.34293e-06
2.50715e-06
2.64489e-06
2.75583e-06
2.82724e-06
1.45943e-06
1.55371e-06
1.70371e-06
1.87407e-06
2.05614e-06
2.23162e-06
2.39261e-06
2.53115e-06
2.64527e-06
2.73381e-06
1.39079e-06
1.48395e-06
1.62625e-06
1.7864e-06
1.95855e-06
2.1265e-06
2.2833e-06
2.42253e-06
2.53825e-06
2.63636e-06
1.32604e-06
1.41883e-06
1.555e-06
1.70633e-06
1.86917e-06
2.02908e-06
2.17947e-06
2.31639e-06
2.43041e-06
2.53442e-06
1.264e-06
1.35686e-06
1.48797e-06
1.6316e-06
1.78586e-06
1.93812e-06
2.08204e-06
2.21575e-06
2.32681e-06
2.4319e-06
1.20444e-06
1.2976e-06
1.42451e-06
1.56132e-06
1.70758e-06
1.85218e-06
1.9891e-06
2.11837e-06
2.22596e-06
2.32998e-06
1.14694e-06
1.24046e-06
1.36373e-06
1.49444e-06
1.63333e-06
1.77058e-06
1.90063e-06
2.02471e-06
2.12835e-06
2.22958e-06
1.09147e-06
1.1852e-06
1.30511e-06
1.43007e-06
1.56193e-06
1.69193e-06
1.81512e-06
1.93352e-06
2.03308e-06
2.13072e-06
1.03814e-06
1.13171e-06
1.2482e-06
1.36751e-06
1.49247e-06
1.61524e-06
1.73163e-06
1.844e-06
1.93928e-06
2.03288e-06
9.87312e-07
1.08012e-06
1.19273e-06
1.30603e-06
1.42389e-06
1.53924e-06
1.64876e-06
1.75489e-06
1.84581e-06
1.9352e-06
9.39773e-07
1.03075e-06
1.13842e-06
1.24483e-06
1.35497e-06
1.46248e-06
1.56496e-06
1.66467e-06
1.75118e-06
1.83637e-06
8.96746e-07
9.84214e-07
1.08514e-06
1.18319e-06
1.28454e-06
1.38357e-06
1.47869e-06
1.57185e-06
1.65396e-06
1.73513e-06
8.60547e-07
9.41381e-07
1.03217e-06
1.11927e-06
1.21018e-06
1.29988e-06
1.38734e-06
1.47398e-06
1.55195e-06
1.62951e-06
8.34103e-07
9.0287e-07
9.78764e-07
1.05188e-06
1.1304e-06
1.20986e-06
1.2894e-06
1.36972e-06
1.444e-06
1.51859e-06
8.23561e-07
8.69413e-07
9.21015e-07
9.75103e-07
1.03899e-06
1.10773e-06
1.17983e-06
1.25479e-06
1.32664e-06
1.39965e-06
8.30892e-07
8.36033e-07
8.54764e-07
8.86929e-07
9.35235e-07
9.93586e-07
1.05939e-06
1.13053e-06
1.2017e-06
1.27491e-06
8.70207e-07
7.94235e-07
7.60855e-07
7.66652e-07
8.01759e-07
8.53658e-07
9.1751e-07
9.89087e-07
1.06362e-06
1.14076e-06
8.83053e-07
6.94516e-07
6.3248e-07
6.19505e-07
6.49865e-07
7.01478e-07
7.69076e-07
8.46294e-07
9.2862e-07
1.0137e-06
)
;

boundaryField
{
    left
    {
        type            calculated;
        value           nonuniform List<scalar> 
30
(
1.68011e-06
1.59248e-06
1.51383e-06
1.44155e-06
1.37357e-06
1.30956e-06
1.24842e-06
1.18998e-06
1.13388e-06
1.08019e-06
1.02908e-06
9.8105e-07
9.36993e-07
8.98297e-07
8.67503e-07
8.48363e-07
8.4857e-07
8.77095e-07
9.63847e-07
1.0947e-06
7.49457e-06
4.82193e-06
3.6496e-06
3.03833e-06
2.65899e-06
2.38692e-06
2.18268e-06
2.02106e-06
1.88925e-06
1.77572e-06
)
;
    }
    right
    {
        type            calculated;
        value           nonuniform List<scalar> 
30
(
1.89259e-06
1.89206e-06
1.89758e-06
1.91165e-06
1.93264e-06
1.95916e-06
1.98889e-06
2.0197e-06
2.04946e-06
2.07621e-06
2.09815e-06
2.1144e-06
2.12532e-06
2.13111e-06
2.1308e-06
2.12487e-06
2.11419e-06
2.09876e-06
2.07951e-06
2.05721e-06
2.03288e-06
2.00756e-06
1.98237e-06
1.95846e-06
1.93696e-06
1.91889e-06
1.90523e-06
1.89639e-06
1.89285e-06
1.89302e-06
)
;
    }
    down
    {
        type            calculated;
        value           nonuniform List<scalar> 
30
(
3.27911e-08
4.171e-08
1.10519e-07
2.30242e-07
3.70847e-07
5.1924e-07
6.64806e-07
8.04115e-07
9.32092e-07
1.05085e-06
1.15786e-06
1.25118e-06
1.33704e-06
1.41424e-06
1.48395e-06
1.54641e-06
1.60241e-06
1.65232e-06
1.69671e-06
1.73594e-06
1.77037e-06
1.80027e-06
1.82583e-06
1.84721e-06
1.86447e-06
1.87771e-06
1.88689e-06
1.89237e-06
1.8941e-06
1.89342e-06
)
;
    }
    up
    {
        type            calculated;
        value           nonuniform List<scalar> 
30
(
8.65705e-07
6.83635e-07
6.27269e-07
6.15222e-07
6.45952e-07
6.97531e-07
7.65103e-07
8.42435e-07
9.24777e-07
1.01028e-06
1.09261e-06
1.16897e-06
1.24445e-06
1.31695e-06
1.3866e-06
1.45237e-06
1.51426e-06
1.5718e-06
1.62498e-06
1.67362e-06
1.71772e-06
1.75718e-06
1.79195e-06
1.82192e-06
1.8469e-06
1.86674e-06
1.88114e-06
1.89023e-06
1.89383e-06
1.89365e-06
)
;
    }
    hole
    {
        type            calculated;
        value           nonuniform List<scalar> 
20
(
3.33263e-06
3.92139e-06
4.50108e-06
5.06189e-06
5.57922e-06
6.06249e-06
6.47912e-06
6.8749e-06
7.15901e-06
7.4674e-06
4.06792e-08
4.2223e-08
5.32923e-08
2.0461e-07
4.51933e-07
7.86e-07
1.195e-06
1.66777e-06
2.1908e-06
2.75077e-06
)
;
    }
    frontAndBack
    {
        type            empty;
    }
}


// ************************************************************************* //
