/*--------------------------------*- C++ -*----------------------------------*\
  =========                 |
  \\      /  F ield         | OpenFOAM: The Open Source CFD Toolbox
   \\    /   O peration     | Website:  https://openfoam.org
    \\  /    A nd           | Version:  9
     \\/     M anipulation  |
\*---------------------------------------------------------------------------*/
FoamFile
{
    format      ascii;
    class       volSymmTensorField;
    location    "5";
    object      epsilon;
}
// * * * * * * * * * * * * * * * * * * * * * * * * * * * * * * * * * * * * * //

dimensions      [0 0 0 0 0 0 0];

internalField   nonuniform List<symmTensor> 
1000
(
(2.04552e-06 -2.65622e-06 2.54351e-19 4.4645e-07 2.79695e-19 7.62182e-34)
(2.84706e-06 -2.05836e-06 -4.28429e-21 -5.06774e-07 2.42598e-21 0)
(3.23818e-06 -1.58786e-06 4.99593e-21 -9.58121e-07 -9.60786e-22 0)
(3.45964e-06 -1.23026e-06 1.28418e-21 -1.27178e-06 -9.10598e-22 0)
(3.56726e-06 -9.41341e-07 -5.41979e-21 -1.44605e-06 3.74615e-22 0)
(3.6054e-06 -7.15413e-07 -5.85741e-22 -1.55601e-06 6.2927e-22 0)
(3.60352e-06 -5.32543e-07 -4.92536e-21 -1.61485e-06 -2.62661e-21 0)
(3.57234e-06 -3.86977e-07 3.38111e-21 -1.64384e-06 1.57532e-21 0)
(3.53106e-06 -2.65862e-07 -1.74683e-21 -1.65337e-06 -1.9407e-21 0)
(3.46932e-06 -1.6494e-07 0 -1.65318e-06 0 0)
(2.77443e-06 -2.96323e-06 2.64447e-19 1.49452e-07 3.40755e-19 4.61163e-35)
(3.39642e-06 -2.12396e-06 0 -6.96638e-07 0 0)
(3.66317e-06 -1.52291e-06 3.98777e-21 -1.07105e-06 1.90734e-21 0)
(3.79131e-06 -1.09006e-06 -6.84726e-21 -1.33433e-06 -3.65171e-21 0)
(3.82669e-06 -7.61398e-07 -2.9123e-21 -1.46755e-06 -1.74994e-21 0)
(3.80767e-06 -5.15741e-07 2.02708e-21 -1.54872e-06 2.05054e-21 0)
(3.75914e-06 -3.23907e-07 2.27293e-21 -1.58476e-06 1.50875e-21 0)
(3.6913e-06 -1.77832e-07 5.34617e-21 -1.5997e-06 3.0917e-21 0)
(3.61405e-06 -5.93496e-08 0 -1.59274e-06 0 0)
(3.53127e-06 3.53309e-08 0 -1.59368e-06 0 0)
(3.59674e-06 -3.16182e-06 2.63486e-19 -2.50496e-07 3.94333e-19 0)
(3.96852e-06 -2.12134e-06 0 -9.16509e-07 0 0)
(4.07328e-06 -1.41456e-06 3.79888e-21 -1.17238e-06 1.97496e-21 0)
(4.08441e-06 -9.23931e-07 -1.15039e-21 -1.35973e-06 4.12425e-22 0)
(4.03357e-06 -5.66156e-07 -5.64002e-23 -1.43763e-06 2.5149e-23 0)
(3.94849e-06 -3.08177e-07 -1.88744e-21 -1.48143e-06 -1.9463e-21 0)
(3.84847e-06 -1.14342e-07 2.58679e-21 -1.48939e-06 1.18485e-21 0)
(3.74035e-06 2.74127e-08 -1.91897e-21 -1.4864e-06 -1.40017e-21 0)
(3.6294e-06 1.37737e-07 -1.54347e-22 -1.46375e-06 2.60547e-22 0)
(3.52152e-06 2.2738e-07 -4.04538e-22 -1.46007e-06 -1.73328e-22 0)
(4.48661e-06 -3.22172e-06 2.35413e-19 -7.29211e-07 4.24332e-19 -2.71127e-35)
(4.55479e-06 -2.03935e-06 2.18963e-21 -1.15621e-06 -2.50519e-22 0)
(4.46389e-06 -1.26479e-06 -1.73575e-21 -1.25809e-06 -9.89611e-22 0)
(4.33747e-06 -7.37528e-07 -1.11446e-21 -1.34848e-06 2.29292e-22 0)
(4.18757e-06 -3.65465e-07 1.96496e-21 -1.35946e-06 1.91519e-21 0)
(4.02983e-06 -1.05695e-07 -2.37752e-21 -1.36e-06 -1.5632e-21 0)
(3.87502e-06 8.21821e-08 -2.05379e-21 -1.33799e-06 -1.44924e-21 0)
(3.7263e-06 2.14832e-07 -4.57579e-21 -1.31683e-06 -3.31031e-21 0)
(3.58401e-06 3.12349e-07 -6.57588e-22 -1.28183e-06 -7.93772e-22 0)
(3.45502e-06 3.91075e-07 1.12121e-21 -1.27235e-06 9.76636e-22 0)
(5.41433e-06 -3.10194e-06 1.81806e-19 -1.26701e-06 3.96641e-19 -4.63448e-34)
(5.13187e-06 -1.87045e-06 1.144e-25 -1.39931e-06 3.96676e-27 0)
(4.82318e-06 -1.07098e-06 -5.62778e-21 -1.32113e-06 -2.7774e-21 0)
(4.5439e-06 -5.34913e-07 5.19094e-22 -1.29912e-06 -3.06855e-23 0)
(4.28621e-06 -1.68469e-07 -7.28504e-22 -1.2345e-06 9.41501e-23 0)
(4.05195e-06 7.91676e-08 1.70335e-21 -1.18839e-06 1.58953e-21 0)
(3.84236e-06 2.51007e-07 -1.92685e-22 -1.13656e-06 6.37862e-23 0)
(3.65567e-06 3.66716e-07 1.80184e-21 -1.09896e-06 1.18764e-21 0)
(3.48551e-06 4.45049e-07 -3.97105e-22 -1.05642e-06 -8.51568e-22 0)
(3.33871e-06 5.09272e-07 -7.12624e-22 -1.04439e-06 -5.68393e-22 0)
(6.31817e-06 -2.81378e-06 1.21461e-19 -1.81128e-06 3.39441e-19 -4.43242e-34)
(5.68349e-06 -1.61099e-06 1.04118e-25 -1.63252e-06 2.05862e-26 0)
(5.1441e-06 -8.33777e-07 -5.69237e-26 -1.35498e-06 -7.45646e-27 0)
(4.70166e-06 -3.22818e-07 4.59876e-22 -1.21051e-06 4.12201e-23 0)
(4.33132e-06 1.43231e-08 -2.43388e-21 -1.06687e-06 -1.48111e-21 0)
(4.02077e-06 2.33217e-07 2.80732e-23 -9.75016e-07 -1.76134e-24 0)
(3.75959e-06 3.77184e-07 1.80864e-21 -8.97483e-07 1.21783e-21 0)
(3.54001e-06 4.68641e-07 3.84521e-21 -8.49477e-07 2.79951e-21 0)
(3.34997e-06 5.24888e-07 6.96076e-22 -8.0607e-07 5.06232e-22 0)
(3.18889e-06 5.69996e-07 -1.2176e-21 -7.93921e-07 -9.53418e-22 0)
(7.13439e-06 -2.34075e-06 7.95636e-20 -2.31654e-06 2.62283e-19 -8.3015e-34)
(6.17728e-06 -1.23964e-06 1.62781e-21 -1.83151e-06 6.32147e-22 0)
(5.40046e-06 -5.44853e-07 1.72381e-21 -1.34288e-06 7.82416e-22 0)
(4.79401e-06 -1.03783e-07 -3.78067e-22 -1.07593e-06 -9.47942e-23 0)
(4.31657e-06 1.72915e-07 1.74834e-21 -8.5932e-07 1.2072e-21 0)
(3.9378e-06 3.42552e-07 -1.61276e-21 -7.31237e-07 -1.13741e-21 0)
(3.63695e-06 4.47157e-07 4.56153e-22 -6.39618e-07 -2.37009e-23 0)
(3.39294e-06 5.07823e-07 -1.44159e-21 -5.88818e-07 -9.41993e-22 0)
(3.19027e-06 5.39285e-07 -9.55171e-23 -5.4955e-07 3.13064e-23 0)
(3.02138e-06 5.65115e-07 -7.28698e-22 -5.39952e-07 -4.65782e-22 0)
(7.88662e-06 -1.68459e-06 4.16514e-20 -2.74364e-06 1.66721e-19 -2.65527e-35)
(6.59465e-06 -7.38519e-07 -4.36091e-21 -1.94501e-06 -1.53868e-21 0)
(5.57239e-06 -2.01954e-07 3.39679e-23 -1.24609e-06 1.73343e-23 0)
(4.81519e-06 1.08183e-07 5.51694e-22 -8.79743e-07 2.42495e-22 0)
(4.24726e-06 2.89396e-07 4.01121e-21 -6.15266e-07 2.00868e-21 0)
(3.82216e-06 3.91293e-07 -2.37205e-22 -4.7485e-07 -4.4368e-23 0)
(3.49633e-06 4.48595e-07 5.85185e-27 -3.85224e-07 2.24569e-28 0)
(3.2402e-06 4.7831e-07 -1.40957e-21 -3.40315e-07 -7.30943e-22 0)
(3.03246e-06 4.88703e-07 3.2797e-23 -3.11152e-07 -7.36144e-24 0)
(2.86005e-06 4.98043e-07 1.04335e-22 -3.06445e-07 4.44741e-23 0)
(8.44059e-06 -7.71751e-07 1.14718e-20 -2.97714e-06 6.1755e-20 1.44043e-34)
(6.788e-06 -1.07189e-07 -4.79215e-21 -1.83914e-06 -1.93795e-21 0)
(5.54629e-06 1.50295e-07 4.99212e-22 -9.83573e-07 4.02112e-22 0)
(4.69908e-06 2.574e-07 4.71228e-22 -5.91802e-07 3.29238e-22 0)
(4.10359e-06 3.17522e-07 -1.95972e-22 -3.44447e-07 -9.36895e-23 0)
(3.67458e-06 3.43946e-07 1.56725e-21 -2.30972e-07 5.8573e-22 0)
(3.3508e-06 3.59473e-07 8.49142e-23 -1.63976e-07 7.57813e-24 0)
(3.09758e-06 3.65376e-07 2.52935e-21 -1.35509e-07 9.76159e-22 0)
(2.89357e-06 3.63303e-07 5.58805e-22 -1.2057e-07 2.19346e-22 0)
(2.72206e-06 3.63169e-07 3.15204e-22 -1.21695e-07 1.46658e-22 0)
(8.9063e-06 7.19028e-07 1.18926e-21 -2.72049e-06 -3.81076e-20 -1.68269e-34)
(6.60949e-06 7.43279e-07 -3.57274e-22 -1.19649e-06 -6.12563e-22 0)
(5.32318e-06 4.82409e-07 1.66653e-21 -4.89806e-07 6.60784e-22 0)
(4.51434e-06 3.17068e-07 8.5411e-23 -2.28957e-07 1.06088e-22 0)
(3.97285e-06 2.61351e-07 2.91283e-27 -1.00389e-07 2.13541e-27 0)
(3.57282e-06 2.33862e-07 1.59619e-21 -5.11722e-08 2.94597e-22 0)
(3.2688e-06 2.28772e-07 2.48356e-23 -2.56593e-08 4.88046e-25 0)
(3.02532e-06 2.27677e-07 1.22379e-21 -1.83407e-08 2.44679e-22 0)
(2.82641e-06 2.26212e-07 -1.32969e-23 -1.5936e-08 3.96664e-24 0)
(2.65458e-06 2.25602e-07 -2.04267e-23 -1.88704e-08 -2.39617e-24 0)
(1.96339e-08 -1.31454e-08 2.75442e-20 -2.32334e-08 2.24349e-20 1.49214e-34)
(3.42569e-08 -4.0718e-08 -7.93004e-23 -2.21299e-08 2.01848e-20 1.54776e-36)
(1.22645e-07 -8.94137e-08 -1.1706e-21 -6.53179e-08 1.65949e-20 1.93149e-35)
(2.66635e-07 -1.29549e-07 -2.14981e-24 -1.31061e-07 1.78245e-20 0)
(4.34215e-07 -1.54976e-07 -1.63242e-22 -2.04453e-07 1.59638e-20 -1.55082e-36)
(6.10705e-07 -1.69851e-07 -1.59225e-21 -2.8012e-07 1.75748e-20 3.24136e-35)
(7.83706e-07 -1.76179e-07 3.61955e-22 -3.53206e-07 1.94014e-20 1.54825e-36)
(9.49216e-07 -1.77339e-07 -1.05102e-21 -4.22267e-07 1.82732e-20 2.94195e-35)
(1.10124e-06 -1.73771e-07 8.53307e-22 -4.85834e-07 1.86025e-20 -1.27585e-35)
(1.24229e-06 -1.7099e-07 1.78955e-21 -5.42998e-07 1.81385e-20 -3.84527e-35)
(4.58903e-08 -4.07792e-08 2.85858e-20 -3.18534e-08 4.75751e-21 3.90228e-35)
(1.33047e-07 -1.43239e-07 1.2918e-21 -1.93829e-08 1.40605e-21 0)
(2.98479e-07 -2.62279e-07 -1.20819e-21 -8.80218e-08 -1.20403e-21 0)
(4.85094e-07 -3.5543e-07 7.30407e-24 -1.82954e-07 -9.90668e-22 0)
(6.72867e-07 -4.14084e-07 0 -2.7789e-07 0 0)
(8.5141e-07 -4.47859e-07 -1.82468e-21 -3.67058e-07 -2.76112e-22 0)
(1.01591e-06 -4.61214e-07 3.14634e-22 -4.46956e-07 1.54015e-21 0)
(1.16728e-06 -4.62099e-07 2.33539e-23 -5.18091e-07 8.26038e-23 0)
(1.30055e-06 -4.51129e-07 -9.96576e-22 -5.80338e-07 -2.78495e-21 0)
(1.42447e-06 -4.42319e-07 7.19029e-22 -6.32905e-07 1.15071e-22 0)
(5.4849e-08 -1.30005e-07 3.06885e-20 8.53448e-09 6.0611e-21 -1.74266e-36)
(2.25503e-07 -3.35151e-07 1.319e-21 -5.66169e-09 1.38937e-21 0)
(4.6179e-07 -4.83849e-07 1.37515e-21 -1.13358e-07 2.90199e-22 0)
(6.96171e-07 -5.85795e-07 6.64215e-23 -2.50373e-07 -9.54965e-22 0)
(9.12189e-07 -6.43655e-07 0 -3.77329e-07 0 0)
(1.10236e-06 -6.72303e-07 -2.04366e-21 -4.88413e-07 -5.35926e-22 0)
(1.26727e-06 -6.78096e-07 -2.78749e-21 -5.81356e-07 -7.83459e-22 0)
(1.41233e-06 -6.69799e-07 1.84727e-21 -6.59194e-07 1.11387e-21 0)
(1.5326e-06 -6.48568e-07 1.13813e-23 -7.22247e-07 3.50513e-23 0)
(1.64497e-06 -6.30599e-07 -1.66136e-21 -7.73079e-07 -1.03226e-21 0)
(6.70855e-08 -2.70807e-07 3.98801e-20 1.10457e-07 9.89889e-21 -3.36552e-35)
(3.52866e-07 -5.67423e-07 3.19139e-22 8.41608e-09 -1.16334e-21 0)
(6.55005e-07 -7.25278e-07 1.51094e-21 -1.49202e-07 2.97617e-22 0)
(9.32433e-07 -8.16174e-07 0 -3.27297e-07 0 0)
(1.17292e-06 -8.56176e-07 -2.5697e-21 -4.82968e-07 9.32731e-22 0)
(1.3741e-06 -8.66357e-07 4.25877e-23 -6.1435e-07 2.3311e-21 0)
(1.54028e-06 -8.54968e-07 -1.34643e-22 -7.20167e-07 -1.24792e-21 0)
(1.68076e-06 -8.30714e-07 -3.79545e-22 -8.05607e-07 -1.92013e-21 0)
(1.78992e-06 -7.95461e-07 8.42347e-22 -8.71194e-07 2.73999e-22 0)
(1.89293e-06 -7.65481e-07 1.57291e-21 -9.22315e-07 5.88704e-22 0)
(1.01825e-07 -4.71249e-07 4.23775e-20 2.55316e-07 1.85859e-20 9.06757e-35)
(5.33522e-07 -8.21032e-07 -2.64434e-21 6.9012e-09 1.76457e-21 0)
(9.01727e-07 -9.65246e-07 -1.60957e-21 -2.18569e-07 -4.74429e-22 0)
(1.21573e-06 -1.02805e-06 -4.27582e-22 -4.41014e-07 1.72036e-21 0)
(1.47239e-06 -1.03649e-06 -1.65908e-23 -6.22453e-07 1.05688e-22 0)
(1.67782e-06 -1.01771e-06 2.47785e-21 -7.6988e-07 -6.36063e-22 0)
(1.84023e-06 -9.81552e-07 1.08223e-21 -8.84386e-07 2.86332e-22 0)
(1.97243e-06 -9.35842e-07 0 -9.73787e-07 0 0)
(2.06826e-06 -8.83585e-07 -1.16215e-21 -1.03906e-06 -1.48436e-21 0)
(2.16021e-06 -8.38824e-07 4.61086e-22 -1.0883e-06 1.14225e-22 0)
(1.81936e-07 -7.37249e-07 6.39244e-20 4.20849e-07 2.76404e-20 -1.40753e-34)
(7.73962e-07 -1.0783e-06 1.07653e-21 -1.14655e-08 -2.10189e-21 0)
(1.20461e-06 -1.1814e-06 -1.33253e-21 -3.14261e-07 -1.42753e-21 0)
(1.54603e-06 -1.2014e-06 2.89555e-22 -5.79688e-07 -8.00607e-22 0)
(1.80886e-06 -1.16973e-06 2.81545e-21 -7.81315e-07 9.41758e-22 0)
(2.00976e-06 -1.11681e-06 -2.71244e-21 -9.38597e-07 2.76227e-22 0)
(2.16145e-06 -1.05262e-06 -2.80252e-24 -1.05641e-06 7.01961e-23 0)
(2.27979e-06 -9.8338e-07 -2.12076e-21 -1.14538e-06 -1.437e-21 0)
(2.35882e-06 -9.13481e-07 4.56442e-24 -1.20755e-06 2.73742e-23 0)
(2.43637e-06 -8.53023e-07 -2.31428e-21 -1.25238e-06 -1.05124e-21 0)
(3.33358e-07 -1.06715e-06 1.02909e-19 5.72566e-07 5.54037e-20 -1.54093e-34)
(1.07612e-06 -1.32831e-06 5.97495e-23 -5.29974e-08 -9.05635e-23 0)
(1.55799e-06 -1.36031e-06 -4.37701e-26 -4.32998e-07 7.43786e-26 0)
(1.9146e-06 -1.32298e-06 -2.87883e-21 -7.37054e-07 -2.00255e-21 0)
(2.17241e-06 -1.24435e-06 -4.84597e-22 -9.52506e-07 1.28085e-21 0)
(2.35922e-06 -1.15423e-06 -2.63805e-21 -1.11362e-06 -1.06962e-21 0)
(2.49282e-06 -1.06112e-06 4.74396e-21 -1.22921e-06 2.10276e-21 0)
(2.591e-06 -9.68812e-07 -3.8905e-25 -1.31292e-06 5.48212e-23 0)
(2.64935e-06 -8.8252e-07 9.3255e-22 -1.36847e-06 9.81177e-24 0)
(2.70799e-06 -8.06906e-07 -1.26598e-21 -1.40593e-06 -5.9885e-22 0)
(5.80429e-07 -1.44961e-06 1.51933e-19 6.77489e-07 9.57168e-20 -3.18819e-34)
(1.43881e-06 -1.56098e-06 1.54217e-21 -1.20325e-07 -1.84419e-21 0)
(1.95064e-06 -1.49289e-06 -5.95365e-22 -5.64284e-07 7.8855e-22 0)
(2.30638e-06 -1.38516e-06 3.63765e-22 -8.97112e-07 -5.60551e-22 0)
(2.54734e-06 -1.25503e-06 3.24134e-26 -1.11846e-06 -6.26086e-26 0)
(2.71107e-06 -1.12753e-06 3.06047e-21 -1.27661e-06 2.77132e-22 0)
(2.81968e-06 -1.00684e-06 2.27055e-22 -1.38497e-06 -9.67521e-22 0)
(2.8912e-06 -8.93756e-07 -7.4276e-23 -1.45926e-06 7.92717e-22 0)
(2.92568e-06 -7.93832e-07 1.18907e-23 -1.50668e-06 3.94373e-22 0)
(2.96025e-06 -7.05309e-07 9.68506e-22 -1.534e-06 8.82457e-22 0)
(9.42676e-07 -1.86281e-06 1.92564e-19 7.04596e-07 1.5211e-19 4.42042e-34)
(1.85916e-06 -1.76676e-06 -4.97693e-22 -2.17627e-07 3.39541e-21 0)
(2.37054e-06 -1.5751e-06 -5.76676e-26 -7.00849e-07 6.01016e-26 0)
(2.70551e-06 -1.38743e-06 3.96104e-21 -1.0473e-06 9.34792e-22 0)
(2.91621e-06 -1.20391e-06 3.02781e-21 -1.26435e-06 1.50324e-21 0)
(3.04569e-06 -1.04023e-06 2.73225e-21 -1.41325e-06 1.35531e-21 0)
(3.12335e-06 -8.93708e-07 -2.96164e-22 -1.51014e-06 8.31123e-22 0)
(3.16503e-06 -7.63739e-07 -3.29021e-21 -1.5728e-06 -1.82152e-21 0)
(3.17457e-06 -6.53671e-07 2.01718e-21 -1.60986e-06 4.9319e-22 0)
(3.18371e-06 -5.55192e-07 9.06069e-22 -1.62999e-06 5.32499e-22 0)
(1.43107e-06 -2.27699e-06 2.27406e-19 6.31645e-07 2.10659e-19 6.55667e-35)
(2.33142e-06 -1.93621e-06 -1.00363e-21 -3.46442e-07 7.4478e-22 0)
(2.80371e-06 -1.60653e-06 -1.94479e-21 -8.3388e-07 -9.08046e-22 0)
(3.09363e-06 -1.3341e-06 8.43224e-21 -1.17441e-06 1.98234e-21 0)
(3.25978e-06 -1.09602e-06 5.16303e-23 -1.3763e-06 -5.76016e-23 0)
(3.34812e-06 -8.97534e-07 -2.68691e-21 -1.50948e-06 -1.51442e-21 0)
(3.38711e-06 -7.31047e-07 -2.8753e-21 -1.59006e-06 -4.7143e-22 0)
(3.39253e-06 -5.91009e-07 -1.08511e-21 -1.63605e-06 -6.42701e-22 0)
(3.37813e-06 -4.77825e-07 1.168e-22 -1.66517e-06 -8.6164e-22 0)
(3.35376e-06 -3.79418e-07 5.46241e-22 -1.666e-06 1.0968e-21 0)
(1.36939e-06 -1.60719e-07 1.82331e-21 -5.96134e-07 1.92296e-20 -1.14374e-35)
(1.48021e-06 -1.46272e-07 1.70632e-21 -6.40256e-07 1.80117e-20 -2.51152e-35)
(1.58218e-06 -1.33599e-07 -1.54541e-22 -6.81259e-07 1.58774e-20 -1.46411e-35)
(1.67386e-06 -1.2208e-07 1.80956e-22 -7.18356e-07 1.70111e-20 -6.42133e-37)
(1.75664e-06 -1.11366e-07 -8.24399e-22 -7.51753e-07 1.71446e-20 3.81157e-35)
(1.83082e-06 -1.01758e-07 5.81224e-22 -7.81853e-07 1.76026e-20 0)
(1.89732e-06 -9.29372e-08 5.47688e-22 -8.08794e-07 1.75764e-20 0)
(1.95658e-06 -8.49727e-08 1.0588e-21 -8.32892e-07 1.81983e-20 4.94404e-37)
(2.00931e-06 -7.76676e-08 9.58199e-22 -8.54332e-07 1.77066e-20 -1.29174e-35)
(2.05588e-06 -7.09723e-08 1.59041e-21 -8.73321e-07 1.88167e-20 8.37691e-37)
(2.09677e-06 -6.47441e-08 1.86072e-21 -8.90015e-07 1.80372e-20 -3.90912e-35)
(2.13227e-06 -5.88962e-08 -1.10469e-22 -9.04544e-07 1.72828e-20 1.30887e-35)
(2.16263e-06 -5.33159e-08 1.81222e-21 -9.17002e-07 1.80128e-20 -3.94441e-35)
(2.18802e-06 -4.79217e-08 -1.52174e-21 -9.27457e-07 1.53924e-20 -7.91745e-37)
(2.20851e-06 -4.26459e-08 3.85721e-22 -9.35943e-07 1.79215e-20 1.34949e-35)
(2.22424e-06 -3.74801e-08 2.3368e-22 -9.42502e-07 1.74101e-20 -3.1937e-45)
(2.23513e-06 -3.24911e-08 -4.24931e-22 -9.4711e-07 1.66964e-20 -1.4406e-37)
(2.24165e-06 -2.79586e-08 7.84536e-22 -9.49848e-07 1.81029e-20 1.03353e-37)
(2.24369e-06 -2.44417e-08 4.15192e-22 -9.50599e-07 1.65227e-20 -4.07277e-35)
(2.24289e-06 -2.35951e-08 1.66813e-20 -9.49135e-07 1.49234e-20 -3.76655e-35)
(1.52631e-06 -4.14348e-07 1.77062e-21 -6.79983e-07 2.11208e-21 0)
(1.60788e-06 -3.76026e-07 1.13985e-21 -7.13053e-07 3.14308e-22 0)
(1.6861e-06 -3.41986e-07 8.13818e-23 -7.43408e-07 -4.75785e-22 0)
(1.75621e-06 -3.10166e-07 2.60027e-21 -7.71215e-07 2.28105e-21 0)
(1.82092e-06 -2.80239e-07 -4.96613e-22 -7.96007e-07 -1.19305e-22 0)
(1.87934e-06 -2.53137e-07 -2.12251e-21 -8.18761e-07 -2.08679e-21 0)
(1.93261e-06 -2.2801e-07 1.07532e-21 -8.39181e-07 3.97075e-22 0)
(1.9806e-06 -2.05155e-07 0 -8.57746e-07 0 0)
(2.02394e-06 -1.8405e-07 5.12154e-22 -8.74445e-07 1.81439e-22 0)
(2.06273e-06 -1.64617e-07 1.05326e-21 -8.89494e-07 4.04806e-22 0)
(2.09737e-06 -1.46498e-07 3.16342e-21 -9.02958e-07 1.61466e-21 0)
(2.12799e-06 -1.2949e-07 1.43771e-23 -9.14938e-07 1.59283e-23 0)
(2.15482e-06 -1.13322e-07 4.04554e-22 -9.25478e-07 -3.03659e-22 0)
(2.17801e-06 -9.78067e-08 6.0802e-22 -9.34603e-07 6.74787e-22 0)
(2.19765e-06 -8.27939e-08 6.2375e-22 -9.42282e-07 6.94392e-22 0)
(2.21385e-06 -6.82764e-08 -6.17896e-22 -9.48426e-07 -6.91667e-22 0)
(2.2265e-06 -5.44112e-08 -6.21385e-22 -9.528e-07 -6.99767e-22 0)
(2.23578e-06 -4.17885e-08 -1.24789e-21 -9.55e-07 -1.41399e-21 0)
(2.24088e-06 -3.12108e-08 -9.43386e-24 -9.54072e-07 -1.0052e-23 0)
(2.24206e-06 -2.54615e-08 1.91864e-20 -9.48442e-07 1.04294e-21 4.32054e-35)
(1.72314e-06 -5.88724e-07 4.85822e-22 -8.11712e-07 6.42474e-22 0)
(1.77405e-06 -5.36662e-07 6.58094e-22 -8.30792e-07 2.34503e-22 0)
(1.82704e-06 -4.89535e-07 -1.53837e-21 -8.46358e-07 -1.87138e-21 0)
(1.8733e-06 -4.45716e-07 -1.34015e-22 -8.61028e-07 3.35594e-22 0)
(1.91784e-06 -4.03814e-07 2.7965e-21 -8.73395e-07 2.26698e-21 0)
(1.95819e-06 -3.65678e-07 -2.22314e-21 -8.85237e-07 -2.0601e-21 0)
(1.99611e-06 -3.29929e-07 -5.92751e-22 -8.95889e-07 -6.63529e-22 0)
(2.03074e-06 -2.97198e-07 1.13264e-21 -9.05979e-07 1.24597e-21 0)
(2.06281e-06 -2.66773e-07 -2.3104e-24 -9.15356e-07 -7.98834e-22 0)
(2.09208e-06 -2.3865e-07 -1.19827e-21 -9.24208e-07 -1.30458e-21 0)
(2.11886e-06 -2.12388e-07 1.14815e-21 -9.32518e-07 1.24627e-21 0)
(2.14315e-06 -1.8777e-07 1.77412e-21 -9.4033e-07 1.92789e-21 0)
(2.1651e-06 -1.64473e-07 1.35718e-23 -9.4761e-07 1.45136e-23 0)
(2.18474e-06 -1.4227e-07 -6.07449e-22 -9.54301e-07 -6.64616e-22 0)
(2.2021e-06 -1.20961e-07 6.0134e-22 -9.60242e-07 6.62213e-22 0)
(2.21719e-06 -1.00462e-07 8.86213e-29 -9.65148e-07 9.59071e-29 0)
(2.22965e-06 -8.08075e-08 -6.19544e-22 -9.68458e-07 -6.91457e-22 0)
(2.23935e-06 -6.22693e-08 8.80785e-23 -9.69277e-07 4.96018e-22 0)
(2.2446e-06 -4.5289e-08 -2.016e-21 -9.65713e-07 -2.71801e-22 0)
(2.24541e-06 -3.06016e-08 1.97373e-20 -9.55692e-07 2.82247e-22 3.25829e-38)
(1.9481e-06 -7.11826e-07 0 -9.53384e-07 0 0)
(1.96751e-06 -6.52364e-07 7.0475e-22 -9.5986e-07 2.56719e-22 0)
(1.99518e-06 -5.96952e-07 5.54223e-22 -9.61648e-07 6.12476e-22 0)
(2.01673e-06 -5.46378e-07 6.08136e-22 -9.64244e-07 6.80285e-22 0)
(2.04022e-06 -4.96967e-07 0 -9.64664e-07 0 0)
(2.06123e-06 -4.51989e-07 7.92522e-23 -9.6582e-07 -3.36865e-22 0)
(2.08252e-06 -4.093e-07 -1.81234e-21 -9.66651e-07 -1.0924e-21 0)
(2.10239e-06 -3.70017e-07 -1.16007e-21 -9.68016e-07 -1.21987e-21 0)
(2.12181e-06 -3.33241e-07 -6.49227e-22 -9.69675e-07 -2.97105e-22 0)
(2.14014e-06 -2.99105e-07 2.08733e-24 -9.71816e-07 7.69387e-22 0)
(2.1577e-06 -2.67135e-07 -5.67535e-22 -9.74374e-07 1.60791e-22 0)
(2.17427e-06 -2.37141e-07 1.19352e-21 -9.77337e-07 5.09123e-22 0)
(2.18992e-06 -2.08783e-07 1.12943e-21 -9.80612e-07 6.97276e-23 0)
(2.20457e-06 -1.81811e-07 3.09343e-23 -9.84052e-07 4.13427e-22 0)
(2.21808e-06 -1.55968e-07 5.244e-23 -9.87391e-07 4.38987e-22 0)
(2.23034e-06 -1.31054e-07 -6.12663e-22 -9.90209e-07 -6.69721e-22 0)
(2.24077e-06 -1.06924e-07 -1.30837e-28 -9.91759e-07 -1.43192e-28 0)
(2.24911e-06 -8.33684e-08 1.31004e-21 -9.90987e-07 1.85965e-21 0)
(2.25324e-06 -6.0477e-08 -7.0084e-23 -9.85797e-07 -4.86745e-22 0)
(2.25341e-06 -3.65554e-08 1.74247e-20 -9.74157e-07 -2.13696e-21 -6.49167e-35)
(2.19145e-06 -7.75862e-07 5.8624e-23 -1.10962e-06 8.46144e-22 0)
(2.17831e-06 -7.16322e-07 -7.66903e-22 -1.10339e-06 -3.33251e-22 0)
(2.18066e-06 -6.57487e-07 -1.93235e-21 -1.09045e-06 -1.53405e-21 0)
(2.17699e-06 -6.05747e-07 1.27098e-21 -1.08067e-06 8.4678e-22 0)
(2.1792e-06 -5.53589e-07 3.30642e-21 -1.0686e-06 2.12771e-21 0)
(2.18023e-06 -5.06314e-07 -6.08479e-22 -1.05841e-06 -6.15468e-22 0)
(2.18425e-06 -4.60766e-07 0 -1.04871e-06 0 0)
(2.18852e-06 -4.18615e-07 5.92307e-22 -1.04053e-06 5.9686e-22 0)
(2.19438e-06 -3.7882e-07 -1.89956e-21 -1.03364e-06 -8.08052e-22 0)
(2.20081e-06 -3.41669e-07 -1.23411e-21 -1.02822e-06 -8.89034e-22 0)
(2.20812e-06 -3.0672e-07 6.47262e-23 -1.0242e-06 -6.69757e-22 0)
(2.2159e-06 -2.73831e-07 -6.25242e-22 -1.02151e-06 -1.01589e-21 0)
(2.22413e-06 -2.42682e-07 -5.61062e-23 -1.02003e-06 1.05696e-21 0)
(2.2326e-06 -2.12999e-07 1.22011e-21 -1.01956e-06 1.66101e-21 0)
(2.24108e-06 -1.84478e-07 5.90208e-22 -1.01975e-06 2.50457e-22 0)
(2.24933e-06 -1.56758e-07 -2.50973e-23 -1.02013e-06 -4.11047e-22 0)
(2.25666e-06 -1.29513e-07 1.14345e-21 -1.01989e-06 4.68546e-22 0)
(2.26273e-06 -1.02009e-07 5.62228e-22 -1.018e-06 2.24907e-22 0)
(2.26544e-06 -7.41498e-08 2.31354e-21 -1.01251e-06 1.79089e-21 0)
(2.2652e-06 -4.22182e-08 2.25598e-20 -1.00164e-06 2.38123e-21 6.68817e-35)
(2.44289e-06 -7.84033e-07 4.54401e-22 -1.2631e-06 6.02257e-22 0)
(2.3969e-06 -7.323e-07 1.09793e-23 -1.24624e-06 2.29663e-23 0)
(2.37473e-06 -6.74793e-07 -1.39689e-21 -1.21948e-06 -9.47778e-22 0)
(2.34592e-06 -6.26922e-07 -3.355e-21 -1.19841e-06 -2.45146e-21 0)
(2.32732e-06 -5.76236e-07 1.31016e-21 -1.17493e-06 8.73899e-22 0)
(2.30847e-06 -5.30491e-07 1.23452e-21 -1.15412e-06 1.18721e-21 0)
(2.29524e-06 -4.85627e-07 -6.04744e-22 -1.13456e-06 -5.82518e-22 0)
(2.28376e-06 -4.43757e-07 -9.5618e-23 -1.11721e-06 2.53993e-22 0)
(2.27574e-06 -4.03849e-07 2.64794e-21 -1.10198e-06 1.55162e-21 0)
(2.26978e-06 -3.66285e-07 -1.77268e-21 -1.08898e-06 -1.75337e-21 0)
(2.26622e-06 -3.30721e-07 -6.30511e-22 -1.0782e-06 -6.3164e-22 0)
(2.26448e-06 -2.97063e-07 1.71721e-21 -1.06958e-06 2.45081e-21 0)
(2.26448e-06 -2.65043e-07 -2.49495e-21 -1.06299e-06 -7.53352e-22 0)
(2.26591e-06 -2.34383e-07 -1.78441e-21 -1.05822e-06 -1.85101e-21 0)
(2.26847e-06 -2.04749e-07 2.39619e-24 -1.05497e-06 -3.68516e-22 0)
(2.27185e-06 -1.75649e-07 -2.40017e-21 -1.05277e-06 -1.79822e-21 0)
(2.2754e-06 -1.4662e-07 -1.74862e-23 -1.05093e-06 -1.60356e-23 0)
(2.27873e-06 -1.16488e-07 2.36082e-21 -1.04856e-06 2.20205e-21 0)
(2.28016e-06 -8.50881e-08 3.9699e-23 -1.04415e-06 4.49353e-22 0)
(2.27994e-06 -4.71405e-08 2.35125e-20 -1.03628e-06 9.76284e-22 -5.07449e-37)
(2.68985e-06 -7.3615e-07 -4.75715e-22 -1.40506e-06 -5.89508e-22 0)
(2.61255e-06 -7.00466e-07 6.56539e-22 -1.38105e-06 5.8266e-22 0)
(2.56838e-06 -6.49387e-07 8.09409e-22 -1.34341e-06 4.18743e-22 0)
(2.51578e-06 -6.10357e-07 -6.40671e-22 -1.3127e-06 -5.82922e-22 0)
(2.4776e-06 -5.65753e-07 -1.5155e-21 -1.27953e-06 -7.50977e-22 0)
(2.43974e-06 -5.25201e-07 7.39819e-22 -1.24888e-06 3.64984e-22 0)
(2.40973e-06 -4.84465e-07 2.09461e-21 -1.22011e-06 1.32279e-21 0)
(2.38288e-06 -4.45714e-07 -3.36987e-21 -1.19394e-06 -2.21747e-21 0)
(2.36105e-06 -4.0827e-07 -2.07828e-21 -1.17057e-06 -1.34271e-21 0)
(2.3427e-06 -3.72544e-07 3.26166e-21 -1.15011e-06 2.16475e-21 0)
(2.32808e-06 -3.38411e-07 -1.32925e-21 -1.13261e-06 -6.31188e-22 0)
(2.31654e-06 -3.05837e-07 1.76388e-21 -1.11802e-06 1.75301e-21 0)
(2.30793e-06 -2.74651e-07 1.89678e-21 -1.10626e-06 1.21369e-21 0)
(2.30186e-06 -2.44592e-07 -1.1098e-21 -1.09716e-06 -1.49218e-21 0)
(2.29804e-06 -2.15325e-07 -7.19069e-22 -1.09047e-06 3.4646e-22 0)
(2.2961e-06 -1.86269e-07 3.42535e-23 -1.08582e-06 3.08071e-23 0)
(2.29553e-06 -1.56873e-07 -2.92734e-21 -1.08271e-06 -2.38181e-21 0)
(2.29591e-06 -1.25651e-07 5.81957e-22 -1.0805e-06 6.35936e-22 0)
(2.29623e-06 -9.24482e-08 1.15171e-21 -1.07826e-06 8.83423e-22 0)
(2.29636e-06 -5.09479e-08 2.42514e-20 -1.07497e-06 8.36872e-22 -2.18342e-37)
(2.91903e-06 -6.35465e-07 5.7344e-24 -1.52397e-06 1.85711e-23 0)
(2.8145e-06 -6.239e-07 -6.78376e-22 -1.49633e-06 -5.80734e-22 0)
(2.75179e-06 -5.84874e-07 1.44617e-22 -1.45225e-06 -1.46227e-22 0)
(2.67825e-06 -5.57921e-07 0 -1.41407e-06 0 0)
(2.6227e-06 -5.2352e-07 0 -1.37473e-06 0 0)
(2.56818e-06 -4.91146e-07 -2.03187e-21 -1.33675e-06 -1.5521e-21 0)
(2.52277e-06 -4.57776e-07 1.80831e-21 -1.30099e-06 1.63641e-21 0)
(2.48181e-06 -4.24938e-07 3.81184e-21 -1.26764e-06 3.2327e-21 0)
(2.44687e-06 -3.92551e-07 -2.88366e-21 -1.23727e-06 -2.6869e-21 0)
(2.4166e-06 -3.60958e-07 -2.52539e-21 -1.21004e-06 -2.0938e-21 0)
(2.39108e-06 -3.3028e-07 1.16486e-21 -1.18617e-06 1.12396e-21 0)
(2.36975e-06 -3.00574e-07 -1.13214e-22 -1.16573e-06 2.1582e-22 0)
(2.35238e-06 -2.71798e-07 1.99087e-21 -1.14876e-06 9.76346e-22 0)
(2.33859e-06 -2.43763e-07 3.1021e-21 -1.1352e-06 2.10484e-21 0)
(2.32812e-06 -2.16185e-07 4.23625e-23 -1.12496e-06 3.77178e-23 0)
(2.32059e-06 -1.88465e-07 1.40706e-21 -1.11783e-06 -3.4473e-22 0)
(2.31573e-06 -1.60036e-07 0 -1.11359e-06 0 0)
(2.31308e-06 -1.29249e-07 -1.18655e-21 -1.11193e-06 -5.22209e-22 0)
(2.3125e-06 -9.60129e-08 5.7068e-22 -1.11254e-06 2.4109e-22 0)
(2.31327e-06 -5.34703e-08 2.66803e-20 -1.11493e-06 1.32918e-21 -6.07874e-37)
(3.12423e-06 -4.91702e-07 -4.51802e-24 -1.61278e-06 -1.62165e-23 0)
(2.99322e-06 -5.09641e-07 8.40746e-22 -1.58313e-06 4.96446e-22 0)
(2.91632e-06 -4.90957e-07 -8.36375e-22 -1.54228e-06 -5.02594e-22 0)
(2.82696e-06 -4.7832e-07 -8.2343e-22 -1.4995e-06 -4.89738e-22 0)
(2.75616e-06 -4.58138e-07 2.26213e-21 -1.45654e-06 1.51454e-21 0)
(2.68782e-06 -4.35706e-07 1.6119e-21 -1.41289e-06 9.49573e-22 0)
(2.62864e-06 -4.11284e-07 -2.14158e-21 -1.37126e-06 -1.40728e-21 0)
(2.57526e-06 -3.85611e-07 2.84305e-22 -1.33196e-06 -2.77516e-22 0)
(2.5285e-06 -3.59393e-07 4.86396e-22 -1.29568e-06 4.38157e-22 0)
(2.48739e-06 -3.33066e-07 -2.6361e-22 -1.26278e-06 3.30152e-22 0)
(2.45182e-06 -3.06976e-07 -2.17451e-21 -1.23353e-06 -1.1795e-21 0)
(2.42131e-06 -2.81305e-07 1.94687e-23 -1.20813e-06 1.82456e-23 0)
(2.3956e-06 -2.56115e-07 -9.95712e-22 -1.18668e-06 -1.30784e-21 0)
(2.37435e-06 -2.31296e-07 -3.36142e-23 -1.16928e-06 -2.99427e-23 0)
(2.35736e-06 -2.06622e-07 1.26943e-21 -1.15596e-06 6.14225e-22 0)
(2.3443e-06 -1.81531e-07 -2.53391e-23 -1.14676e-06 -2.16133e-23 0)
(2.33518e-06 -1.55475e-07 1.55067e-21 -1.14176e-06 2.01354e-21 0)
(2.3295e-06 -1.26793e-07 -5.84045e-22 -1.141e-06 -2.60649e-22 0)
(2.3281e-06 -9.54517e-08 -2.74083e-21 -1.14487e-06 -2.64529e-21 0)
(2.32955e-06 -5.45249e-08 2.46385e-20 -1.15342e-06 -8.28446e-22 -4.79198e-35)
(3.28838e-06 -3.09591e-07 -1.0727e-22 -1.66951e-06 -5.4e-23 0)
(3.15271e-06 -3.46227e-07 -9.01968e-22 -1.6325e-06 -5.26493e-22 0)
(3.06378e-06 -3.55935e-07 7.32332e-22 -1.60424e-06 5.62245e-22 0)
(2.96575e-06 -3.60123e-07 -1.9161e-21 -1.56457e-06 -1.69666e-21 0)
(2.88143e-06 -3.58958e-07 -1.97174e-21 -1.52405e-06 -1.59837e-21 0)
(2.80281e-06 -3.5178e-07 1.16702e-21 -1.48073e-06 1.16742e-21 0)
(2.73147e-06 -3.40594e-07 1.01477e-21 -1.43685e-06 1.16776e-21 0)
(2.66655e-06 -3.26149e-07 1.7695e-21 -1.39387e-06 1.55075e-21 0)
(2.60846e-06 -3.09253e-07 -2.07668e-21 -1.35284e-06 -1.51693e-21 0)
(2.55671e-06 -2.90739e-07 5.10999e-24 -1.31467e-06 4.03351e-23 0)
(2.51121e-06 -2.71194e-07 -2.52204e-23 -1.27999e-06 -1.20667e-22 0)
(2.47156e-06 -2.51087e-07 -1.62458e-21 -1.24927e-06 -1.54247e-21 0)
(2.43752e-06 -2.30695e-07 0 -1.22287e-06 0 0)
(2.40878e-06 -2.10099e-07 -1.47108e-21 -1.20109e-06 -4.86113e-22 0)
(2.38521e-06 -1.8922e-07 -6.91094e-24 -1.18418e-06 -2.80451e-23 0)
(2.36651e-06 -1.67633e-07 -1.89904e-21 -1.17243e-06 -9.19668e-22 0)
(2.353e-06 -1.44892e-07 5.20661e-22 -1.16626e-06 5.34142e-22 0)
(2.34415e-06 -1.19479e-07 1.19719e-21 -1.16612e-06 5.46654e-22 0)
(2.34186e-06 -9.14432e-08 1.48583e-23 -1.17313e-06 -8.75785e-25 0)
(2.34405e-06 -5.42325e-08 2.63278e-20 -1.18793e-06 -1.83817e-23 -2.10456e-37)
(3.36918e-06 -1.59584e-07 9.29267e-22 -1.67145e-06 7.98176e-22 0)
(3.24558e-06 -1.79588e-07 -8.59011e-22 -1.64027e-06 -5.33917e-22 0)
(3.14955e-06 -2.15842e-07 -4.97579e-22 -1.62102e-06 -4.03278e-22 0)
(3.05164e-06 -2.33413e-07 8.25064e-22 -1.5887e-06 4.98707e-22 0)
(2.96108e-06 -2.45791e-07 -1.63164e-21 -1.55097e-06 -7.45101e-22 0)
(2.87782e-06 -2.51043e-07 -1.10061e-21 -1.51054e-06 -5.20736e-22 0)
(2.80163e-06 -2.51048e-07 -1.37161e-21 -1.46828e-06 -9.75621e-22 0)
(2.73092e-06 -2.47123e-07 1.65621e-22 -1.42576e-06 -1.03544e-22 0)
(2.66671e-06 -2.39801e-07 2.77425e-21 -1.38428e-06 1.74209e-21 0)
(2.60859e-06 -2.29946e-07 -9.5421e-23 -1.34489e-06 -9.93556e-23 0)
(2.55671e-06 -2.1817e-07 1.48309e-21 -1.30846e-06 8.31434e-22 0)
(2.51083e-06 -2.05024e-07 -7.31915e-23 -1.27568e-06 -8.02719e-23 0)
(2.47087e-06 -1.90885e-07 5.42114e-36 -1.24712e-06 5.3461e-36 0)
(2.4366e-06 -1.75959e-07 -6.51941e-22 -1.22327e-06 -3.23143e-22 0)
(2.40805e-06 -1.60292e-07 6.37245e-22 -1.20464e-06 3.08969e-22 0)
(2.38499e-06 -1.43638e-07 -2.86488e-23 -1.19174e-06 -3.9962e-23 0)
(2.36805e-06 -1.25702e-07 1.00771e-22 -1.18535e-06 -2.54076e-22 0)
(2.35668e-06 -1.05329e-07 5.80548e-24 -1.18621e-06 1.84116e-23 0)
(2.35358e-06 -8.26624e-08 -5.86039e-24 -1.1961e-06 7.16103e-24 0)
(2.35611e-06 -5.20784e-08 2.83192e-20 -1.21616e-06 1.45375e-22 2.52349e-37)
(3.30168e-06 -1.24023e-08 8.62574e-22 -1.60556e-06 6.68273e-22 0)
(3.21983e-06 -3.5702e-08 0 -1.61596e-06 0 0)
(3.13305e-06 -7.95786e-08 -6.72597e-22 -1.60187e-06 -5.77573e-22 0)
(3.04579e-06 -1.08576e-07 8.78918e-36 -1.57784e-06 6.95523e-36 0)
(2.96289e-06 -1.31184e-07 2.01451e-36 -1.54546e-06 1.43397e-36 0)
(2.88551e-06 -1.46513e-07 9.55412e-36 -1.50946e-06 6.96251e-36 0)
(2.8135e-06 -1.56239e-07 1.46574e-35 -1.47103e-06 1.15679e-35 0)
(2.74554e-06 -1.61404e-07 -5.89407e-22 -1.43151e-06 -5.36904e-22 0)
(2.68285e-06 -1.62769e-07 0 -1.39229e-06 0 0)
(2.62523e-06 -1.61064e-07 5.6358e-22 -1.35449e-06 5.30525e-22 0)
(2.57307e-06 -1.56918e-07 -8.07164e-37 -1.31911e-06 -1.30217e-36 0)
(2.5263e-06 -1.50866e-07 -5.42341e-22 -1.28694e-06 -5.28495e-22 0)
(2.48505e-06 -1.43313e-07 5.33485e-22 -1.25871e-06 5.2885e-22 0)
(2.44924e-06 -1.34531e-07 7.66063e-36 -1.23504e-06 5.47324e-36 0)
(2.41911e-06 -1.24637e-07 -5.19329e-22 -1.21661e-06 -5.31992e-22 0)
(2.39455e-06 -1.13573e-07 -4.60355e-36 -1.2041e-06 -4.14864e-36 0)
(2.37644e-06 -1.01147e-07 5.10169e-22 -1.19851e-06 5.384e-22 0)
(2.36429e-06 -8.66672e-08 5.07562e-22 -1.2008e-06 5.43099e-22 0)
(2.36143e-06 -7.0439e-08 -5.4769e-36 -1.21324e-06 -4.66646e-36 0)
(2.36478e-06 -4.8443e-08 2.90299e-20 -1.23703e-06 -4.73822e-36 -1.7125e-49)