/*--------------------------------*- C++ -*----------------------------------*\
  =========                 |
  \\      /  F ield         | OpenFOAM: The Open Source CFD Toolbox
   \\    /   O peration     | Website:  https://openfoam.org
    \\  /    A nd           | Version:  9
     \\/     M anipulation  |
\*---------------------------------------------------------------------------*/
FoamFile
{
    format      ascii;
    class       pointVectorField;
    location    "5";
    object      pointD;
}
// * * * * * * * * * * * * * * * * * * * * * * * * * * * * * * * * * * * * * //

dimensions      [0 1 0 0 0 0 0];

internalField   nonuniform List<vector> 
2142
(
(3.64948e-06 1.05777e-06 -3.50149e-20)
(3.38176e-06 1.23001e-06 0)
(3.19502e-06 1.35141e-06 0)
(3.05904e-06 1.44915e-06 0)
(2.9612e-06 1.52862e-06 0)
(2.89187e-06 1.59651e-06 0)
(2.84416e-06 1.65579e-06 0)
(2.81312e-06 1.70904e-06 0)
(2.79492e-06 1.7578e-06 0)
(2.78681e-06 1.80314e-06 0)
(2.78863e-06 1.85213e-06 0)
(3.3356e-06 9.68354e-07 -4.14248e-20)
(3.05204e-06 1.1048e-06 0)
(2.85572e-06 1.20006e-06 0)
(2.71356e-06 1.27742e-06 0)
(2.61159e-06 1.34011e-06 0)
(2.53919e-06 1.39382e-06 0)
(2.48884e-06 1.44072e-06 0)
(2.45531e-06 1.48298e-06 0)
(2.4345e-06 1.52168e-06 0)
(2.4236e-06 1.55805e-06 0)
(2.37519e-06 1.55887e-06 0)
(3.00907e-06 8.80725e-07 -4.62785e-20)
(2.71762e-06 9.77089e-07 0)
(2.51697e-06 1.04401e-06 0)
(2.37243e-06 1.09996e-06 0)
(2.26907e-06 1.1456e-06 0)
(2.19565e-06 1.18533e-06 0)
(2.14428e-06 1.22026e-06 0)
(2.10956e-06 1.25203e-06 0)
(2.08726e-06 1.28115e-06 0)
(2.07431e-06 1.30884e-06 0)
(2.03099e-06 1.30535e-06 0)
(2.67111e-06 7.9531e-07 -4.88823e-20)
(2.38027e-06 8.49271e-07 0)
(2.18109e-06 8.86732e-07 0)
(2.03826e-06 9.20995e-07 0)
(1.93655e-06 9.4993e-07 0)
(1.86449e-06 9.76356e-07 0)
(1.81406e-06 1.00023e-06 0)
(1.77975e-06 1.02252e-06 0)
(1.75734e-06 1.04319e-06 0)
(1.74371e-06 1.06314e-06 0)
(1.70645e-06 1.057e-06 0)
(2.32108e-06 7.12825e-07 -4.70206e-20)
(2.04104e-06 7.23496e-07 0)
(1.84946e-06 7.31641e-07 0)
(1.7128e-06 7.44867e-07 0)
(1.61617e-06 7.58095e-07 0)
(1.54815e-06 7.72445e-07 0)
(1.50081e-06 7.86601e-07 0)
(1.46865e-06 8.0077e-07 0)
(1.44758e-06 8.14334e-07 0)
(1.43441e-06 8.27802e-07 0)
(1.40356e-06 8.20469e-07 0)
(1.96051e-06 6.33638e-07 -4.07093e-20)
(1.70099e-06 6.02064e-07 0)
(1.52313e-06 5.82232e-07 0)
(1.39742e-06 5.76038e-07 0)
(1.30956e-06 5.75332e-07 0)
(1.24843e-06 5.79445e-07 0)
(1.20636e-06 5.85692e-07 0)
(1.17801e-06 5.93461e-07 0)
(1.15949e-06 6.01511e-07 0)
(1.14773e-06 6.09896e-07 0)
(1.12318e-06 6.02657e-07 0)
(1.59218e-06 5.56664e-07 -3.22032e-20)
(1.36026e-06 4.86629e-07 0)
(1.20234e-06 4.41617e-07 0)
(1.09264e-06 4.18882e-07 0)
(1.01748e-06 4.06975e-07 0)
(9.6615e-07 4.03368e-07 0)
(9.31409e-07 4.0394e-07 0)
(9.08258e-07 4.07222e-07 0)
(8.93187e-07 4.11419e-07 0)
(8.83494e-07 4.16195e-07 0)
(8.64826e-07 4.1014e-07 0)
(1.21957e-06 4.79649e-07 -2.22505e-20)
(1.0193e-06 3.77048e-07 0)
(8.87512e-07 3.11925e-07 0)
(7.99178e-07 2.77532e-07 0)
(7.4058e-07 2.58517e-07 0)
(7.01634e-07 2.50495e-07 0)
(6.7579e-07 2.47945e-07 0)
(6.58721e-07 2.48708e-07 0)
(6.47611e-07 2.50704e-07 0)
(6.40314e-07 2.53337e-07 0)
(6.27002e-07 2.49262e-07 0)
(8.44759e-07 3.9584e-07 -1.16535e-20)
(6.7662e-07 2.69671e-07 0)
(5.78614e-07 1.93748e-07 0)
(5.17259e-07 1.5584e-07 0)
(4.78601e-07 1.35656e-07 0)
(4.53835e-07 1.27167e-07 0)
(4.3764e-07 1.24063e-07 0)
(4.26971e-07 1.24077e-07 0)
(4.19963e-07 1.25231e-07 0)
(4.15207e-07 1.26871e-07 0)
(4.06678e-07 1.25037e-07 0)
(4.90856e-07 2.91089e-07 -1.17318e-21)
(3.35838e-07 1.57813e-07 0)
(2.8061e-07 9.09553e-08 0)
(2.50609e-07 6.18188e-08 0)
(2.32899e-07 4.78785e-08 0)
(2.21885e-07 4.26271e-08 0)
(2.14622e-07 4.09398e-08 0)
(2.09799e-07 4.12122e-08 0)
(2.06539e-07 4.21035e-08 0)
(2.04207e-07 4.31962e-08 0)
(1.99967e-07 4.29801e-08 0)
(1.62772e-07 1.1573e-07 1.97199e-21)
(0 0 0)
(0 0 0)
(0 0 0)
(0 0 0)
(0 0 0)
(0 0 0)
(0 0 0)
(0 0 0)
(0 0 0)
(0 0 0)
(3.64948e-06 1.05777e-06 -3.50149e-20)
(3.38176e-06 1.23001e-06 0)
(3.19502e-06 1.35141e-06 0)
(3.05904e-06 1.44915e-06 0)
(2.9612e-06 1.52862e-06 0)
(2.89187e-06 1.59651e-06 0)
(2.84416e-06 1.65579e-06 0)
(2.81312e-06 1.70904e-06 0)
(2.79492e-06 1.7578e-06 0)
(2.78681e-06 1.80314e-06 0)
(2.78863e-06 1.85213e-06 0)
(3.3356e-06 9.68354e-07 -4.14248e-20)
(3.05204e-06 1.1048e-06 0)
(2.85572e-06 1.20006e-06 0)
(2.71356e-06 1.27742e-06 0)
(2.61159e-06 1.34011e-06 0)
(2.53919e-06 1.39382e-06 0)
(2.48884e-06 1.44072e-06 0)
(2.45531e-06 1.48298e-06 0)
(2.4345e-06 1.52168e-06 0)
(2.4236e-06 1.55805e-06 0)
(2.37519e-06 1.55887e-06 0)
(3.00907e-06 8.80725e-07 -4.62785e-20)
(2.71762e-06 9.77089e-07 0)
(2.51697e-06 1.04401e-06 0)
(2.37243e-06 1.09996e-06 0)
(2.26907e-06 1.1456e-06 0)
(2.19565e-06 1.18533e-06 0)
(2.14428e-06 1.22026e-06 0)
(2.10956e-06 1.25203e-06 0)
(2.08726e-06 1.28115e-06 0)
(2.07431e-06 1.30884e-06 0)
(2.03099e-06 1.30535e-06 0)
(2.67111e-06 7.9531e-07 -4.88823e-20)
(2.38027e-06 8.49271e-07 0)
(2.18109e-06 8.86732e-07 0)
(2.03826e-06 9.20995e-07 0)
(1.93655e-06 9.4993e-07 0)
(1.86449e-06 9.76356e-07 0)
(1.81406e-06 1.00023e-06 0)
(1.77975e-06 1.02252e-06 0)
(1.75734e-06 1.04319e-06 0)
(1.74371e-06 1.06314e-06 0)
(1.70645e-06 1.057e-06 0)
(2.32108e-06 7.12825e-07 -4.70206e-20)
(2.04104e-06 7.23496e-07 0)
(1.84946e-06 7.31641e-07 0)
(1.7128e-06 7.44867e-07 0)
(1.61617e-06 7.58095e-07 0)
(1.54815e-06 7.72445e-07 0)
(1.50081e-06 7.86601e-07 0)
(1.46865e-06 8.0077e-07 0)
(1.44758e-06 8.14334e-07 0)
(1.43441e-06 8.27802e-07 0)
(1.40356e-06 8.20469e-07 0)
(1.96051e-06 6.33638e-07 -4.07093e-20)
(1.70099e-06 6.02064e-07 0)
(1.52313e-06 5.82232e-07 0)
(1.39742e-06 5.76038e-07 0)
(1.30956e-06 5.75332e-07 0)
(1.24843e-06 5.79445e-07 0)
(1.20636e-06 5.85692e-07 0)
(1.17801e-06 5.93461e-07 0)
(1.15949e-06 6.01511e-07 0)
(1.14773e-06 6.09896e-07 0)
(1.12318e-06 6.02657e-07 0)
(1.59218e-06 5.56664e-07 -3.22032e-20)
(1.36026e-06 4.86629e-07 0)
(1.20234e-06 4.41617e-07 0)
(1.09264e-06 4.18882e-07 0)
(1.01748e-06 4.06975e-07 0)
(9.6615e-07 4.03368e-07 0)
(9.31409e-07 4.0394e-07 0)
(9.08258e-07 4.07222e-07 0)
(8.93187e-07 4.11419e-07 0)
(8.83494e-07 4.16195e-07 0)
(8.64826e-07 4.1014e-07 0)
(1.21957e-06 4.79649e-07 -2.22505e-20)
(1.0193e-06 3.77048e-07 0)
(8.87512e-07 3.11925e-07 0)
(7.99178e-07 2.77532e-07 0)
(7.4058e-07 2.58517e-07 0)
(7.01634e-07 2.50495e-07 0)
(6.7579e-07 2.47945e-07 0)
(6.58721e-07 2.48708e-07 0)
(6.47611e-07 2.50704e-07 0)
(6.40314e-07 2.53337e-07 0)
(6.27002e-07 2.49262e-07 0)
(8.44759e-07 3.9584e-07 -1.16535e-20)
(6.7662e-07 2.69671e-07 0)
(5.78614e-07 1.93748e-07 0)
(5.17259e-07 1.5584e-07 0)
(4.78601e-07 1.35656e-07 0)
(4.53835e-07 1.27167e-07 0)
(4.3764e-07 1.24063e-07 0)
(4.26971e-07 1.24077e-07 0)
(4.19963e-07 1.25231e-07 0)
(4.15207e-07 1.26871e-07 0)
(4.06678e-07 1.25037e-07 0)
(4.90856e-07 2.91089e-07 -1.17318e-21)
(3.35838e-07 1.57813e-07 0)
(2.8061e-07 9.09553e-08 0)
(2.50609e-07 6.18188e-08 0)
(2.32899e-07 4.78785e-08 0)
(2.21885e-07 4.26271e-08 0)
(2.14622e-07 4.09398e-08 0)
(2.09799e-07 4.12122e-08 0)
(2.06539e-07 4.21035e-08 0)
(2.04207e-07 4.31962e-08 0)
(1.99967e-07 4.29801e-08 0)
(1.62772e-07 1.1573e-07 1.97199e-21)
(0 0 0)
(0 0 0)
(0 0 0)
(0 0 0)
(0 0 0)
(0 0 0)
(0 0 0)
(0 0 0)
(0 0 0)
(0 0 0)
(5.91258e-06 1.75531e-06 -2.29319e-21)
(5.95592e-06 1.92362e-06 -1.53265e-21)
(5.95205e-06 2.13995e-06 -1.67402e-21)
(5.94944e-06 2.34053e-06 -1.81548e-21)
(5.95351e-06 2.52472e-06 -1.95571e-21)
(5.96638e-06 2.69432e-06 -2.09462e-21)
(5.98888e-06 2.85158e-06 -2.23235e-21)
(6.02095e-06 2.99883e-06 -2.3691e-21)
(6.06227e-06 3.13799e-06 -2.50505e-21)
(6.11195e-06 3.27093e-06 -2.64047e-21)
(6.16949e-06 3.39841e-06 -2.73774e-21)
(5.78081e-06 1.68971e-06 -3.1904e-21)
(5.76422e-06 1.91519e-06 0)
(5.75033e-06 2.13016e-06 0)
(5.7432e-06 2.32781e-06 0)
(5.74494e-06 2.50789e-06 0)
(5.75627e-06 2.67254e-06 0)
(5.77716e-06 2.82426e-06 0)
(5.80714e-06 2.96554e-06 0)
(5.84565e-06 3.09847e-06 0)
(5.89182e-06 3.22505e-06 0)
(5.94843e-06 3.34689e-06 0)
(5.60216e-06 1.66124e-06 -3.30475e-21)
(5.56607e-06 1.89166e-06 0)
(5.53663e-06 2.10471e-06 0)
(5.51794e-06 2.2982e-06 0)
(5.51089e-06 2.47296e-06 0)
(5.51527e-06 2.63169e-06 0)
(5.53023e-06 2.77712e-06 0)
(5.55476e-06 2.91191e-06 0)
(5.58793e-06 3.0382e-06 0)
(5.62857e-06 3.15811e-06 0)
(5.68381e-06 3.27457e-06 0)
(5.41306e-06 1.61523e-06 -3.57568e-21)
(5.3533e-06 1.85362e-06 0)
(5.30532e-06 2.06406e-06 0)
(5.27192e-06 2.25187e-06 0)
(5.25311e-06 2.41957e-06 0)
(5.24783e-06 2.57083e-06 0)
(5.2545e-06 2.70869e-06 0)
(5.27158e-06 2.83595e-06 0)
(5.29781e-06 2.95481e-06 0)
(5.33163e-06 3.0674e-06 0)
(5.38534e-06 3.17863e-06 0)
(5.21003e-06 1.55585e-06 -4.45583e-21)
(5.12251e-06 1.80159e-06 0)
(5.05393e-06 2.00826e-06 0)
(5.00414e-06 2.18899e-06 0)
(4.97209e-06 2.34815e-06 0)
(4.95577e-06 2.49054e-06 0)
(4.95294e-06 2.61957e-06 0)
(4.96154e-06 2.7382e-06 0)
(4.97997e-06 2.84867e-06 0)
(5.00629e-06 2.95312e-06 0)
(5.05857e-06 3.05911e-06 0)
(4.99113e-06 1.48597e-06 -6.4157e-21)
(4.87251e-06 1.73578e-06 0)
(4.78205e-06 1.93663e-06 0)
(4.71525e-06 2.10858e-06 0)
(4.6696e-06 2.25769e-06 0)
(4.64197e-06 2.38988e-06 0)
(4.6294e-06 2.50892e-06 0)
(4.62932e-06 2.6179e-06 0)
(4.6398e-06 2.71911e-06 0)
(4.65856e-06 2.81463e-06 0)
(4.70978e-06 2.91544e-06 0)
(4.75554e-06 1.40818e-06 -9.79153e-21)
(4.60385e-06 1.65673e-06 0)
(4.49105e-06 1.84893e-06 0)
(4.4074e-06 2.0102e-06 0)
(4.34852e-06 2.14786e-06 0)
(4.30997e-06 2.26873e-06 0)
(4.28806e-06 2.37683e-06 0)
(4.27968e-06 2.47535e-06 0)
(4.28258e-06 2.56656e-06 0)
(4.29415e-06 2.65249e-06 0)
(4.34484e-06 2.74824e-06 0)
(4.50312e-06 1.32466e-06 -1.46748e-20)
(4.31807e-06 1.56521e-06 0)
(4.18344e-06 1.74531e-06 0)
(4.08379e-06 1.89382e-06 0)
(4.01262e-06 2.01866e-06 0)
(3.9641e-06 2.12725e-06 0)
(3.93371e-06 2.22368e-06 0)
(3.91786e-06 2.31114e-06 0)
(3.91392e-06 2.39188e-06 0)
(3.91904e-06 2.46775e-06 0)
(3.96975e-06 2.55865e-06 0)
(4.23418e-06 1.23733e-06 -2.08656e-20)
(4.01741e-06 1.46244e-06 0)
(3.86249e-06 1.62668e-06 0)
(3.74836e-06 1.76027e-06 0)
(3.66633e-06 1.87103e-06 0)
(3.60914e-06 1.96656e-06 0)
(3.57144e-06 2.05082e-06 0)
(3.54921e-06 2.12688e-06 0)
(3.53943e-06 2.19686e-06 0)
(3.53908e-06 2.26242e-06 0)
(3.59044e-06 2.34865e-06 0)
(3.94935e-06 1.14787e-06 -2.7883e-20)
(3.70443e-06 1.35002e-06 0)
(3.53179e-06 1.4946e-06 0)
(3.40535e-06 1.61119e-06 0)
(3.31427e-06 1.70676e-06 0)
(3.25002e-06 1.78866e-06 0)
(3.20649e-06 1.86045e-06 0)
(3.17916e-06 1.92497e-06 0)
(3.16462e-06 1.98415e-06 0)
(3.1599e-06 2.03922e-06 0)
(3.21217e-06 2.12082e-06 0)
(5.91258e-06 1.75531e-06 -2.29319e-21)
(5.95592e-06 1.92362e-06 -1.53265e-21)
(5.95205e-06 2.13995e-06 -1.67402e-21)
(5.94944e-06 2.34053e-06 -1.81548e-21)
(5.95351e-06 2.52472e-06 -1.95571e-21)
(5.96638e-06 2.69432e-06 -2.09462e-21)
(5.98888e-06 2.85158e-06 -2.23235e-21)
(6.02095e-06 2.99883e-06 -2.3691e-21)
(6.06227e-06 3.13799e-06 -2.50505e-21)
(6.11195e-06 3.27093e-06 -2.64047e-21)
(6.16949e-06 3.39841e-06 -2.73774e-21)
(5.78081e-06 1.68971e-06 -3.1904e-21)
(5.76422e-06 1.91519e-06 0)
(5.75033e-06 2.13016e-06 0)
(5.7432e-06 2.32781e-06 0)
(5.74494e-06 2.50789e-06 0)
(5.75627e-06 2.67254e-06 0)
(5.77716e-06 2.82426e-06 0)
(5.80714e-06 2.96554e-06 0)
(5.84565e-06 3.09847e-06 0)
(5.89182e-06 3.22505e-06 0)
(5.94843e-06 3.34689e-06 0)
(5.60216e-06 1.66124e-06 -3.30475e-21)
(5.56607e-06 1.89166e-06 0)
(5.53663e-06 2.10471e-06 0)
(5.51794e-06 2.2982e-06 0)
(5.51089e-06 2.47296e-06 0)
(5.51527e-06 2.63169e-06 0)
(5.53023e-06 2.77712e-06 0)
(5.55476e-06 2.91191e-06 0)
(5.58793e-06 3.0382e-06 0)
(5.62857e-06 3.15811e-06 0)
(5.68381e-06 3.27457e-06 0)
(5.41306e-06 1.61523e-06 -3.57568e-21)
(5.3533e-06 1.85362e-06 0)
(5.30532e-06 2.06406e-06 0)
(5.27192e-06 2.25187e-06 0)
(5.25311e-06 2.41957e-06 0)
(5.24783e-06 2.57083e-06 0)
(5.2545e-06 2.70869e-06 0)
(5.27158e-06 2.83595e-06 0)
(5.29781e-06 2.95481e-06 0)
(5.33163e-06 3.0674e-06 0)
(5.38534e-06 3.17863e-06 0)
(5.21003e-06 1.55585e-06 -4.45583e-21)
(5.12251e-06 1.80159e-06 0)
(5.05393e-06 2.00826e-06 0)
(5.00414e-06 2.18899e-06 0)
(4.97209e-06 2.34815e-06 0)
(4.95577e-06 2.49054e-06 0)
(4.95294e-06 2.61957e-06 0)
(4.96154e-06 2.7382e-06 0)
(4.97997e-06 2.84867e-06 0)
(5.00629e-06 2.95312e-06 0)
(5.05857e-06 3.05911e-06 0)
(4.99113e-06 1.48597e-06 -6.4157e-21)
(4.87251e-06 1.73578e-06 0)
(4.78205e-06 1.93663e-06 0)
(4.71525e-06 2.10858e-06 0)
(4.6696e-06 2.25769e-06 0)
(4.64197e-06 2.38988e-06 0)
(4.6294e-06 2.50892e-06 0)
(4.62932e-06 2.6179e-06 0)
(4.6398e-06 2.71911e-06 0)
(4.65856e-06 2.81463e-06 0)
(4.70978e-06 2.91544e-06 0)
(4.75554e-06 1.40818e-06 -9.79153e-21)
(4.60385e-06 1.65673e-06 0)
(4.49105e-06 1.84893e-06 0)
(4.4074e-06 2.0102e-06 0)
(4.34852e-06 2.14786e-06 0)
(4.30997e-06 2.26873e-06 0)
(4.28806e-06 2.37683e-06 0)
(4.27968e-06 2.47535e-06 0)
(4.28258e-06 2.56656e-06 0)
(4.29415e-06 2.65249e-06 0)
(4.34484e-06 2.74824e-06 0)
(4.50312e-06 1.32466e-06 -1.46748e-20)
(4.31807e-06 1.56521e-06 0)
(4.18344e-06 1.74531e-06 0)
(4.08379e-06 1.89382e-06 0)
(4.01262e-06 2.01866e-06 0)
(3.9641e-06 2.12725e-06 0)
(3.93371e-06 2.22368e-06 0)
(3.91786e-06 2.31114e-06 0)
(3.91392e-06 2.39188e-06 0)
(3.91904e-06 2.46775e-06 0)
(3.96975e-06 2.55865e-06 0)
(4.23418e-06 1.23733e-06 -2.08656e-20)
(4.01741e-06 1.46244e-06 0)
(3.86249e-06 1.62668e-06 0)
(3.74836e-06 1.76027e-06 0)
(3.66633e-06 1.87103e-06 0)
(3.60914e-06 1.96656e-06 0)
(3.57144e-06 2.05082e-06 0)
(3.54921e-06 2.12688e-06 0)
(3.53943e-06 2.19686e-06 0)
(3.53908e-06 2.26242e-06 0)
(3.59044e-06 2.34865e-06 0)
(3.94935e-06 1.14787e-06 -2.7883e-20)
(3.70443e-06 1.35002e-06 0)
(3.53179e-06 1.4946e-06 0)
(3.40535e-06 1.61119e-06 0)
(3.31427e-06 1.70676e-06 0)
(3.25002e-06 1.78866e-06 0)
(3.20649e-06 1.86045e-06 0)
(3.17916e-06 1.92497e-06 0)
(3.16462e-06 1.98415e-06 0)
(3.1599e-06 2.03922e-06 0)
(3.21217e-06 2.12082e-06 0)
(6.2349e-06 3.52208e-06 -2.75856e-21)
(6.30707e-06 3.64369e-06 -2.74098e-21)
(6.38486e-06 3.76339e-06 -2.72359e-21)
(6.46773e-06 3.88181e-06 -2.70638e-21)
(6.55514e-06 3.99946e-06 -2.68938e-21)
(6.64659e-06 4.11674e-06 -2.6726e-21)
(6.74164e-06 4.23402e-06 -2.65602e-21)
(6.83989e-06 4.35159e-06 -2.63966e-21)
(6.94096e-06 4.46969e-06 -2.6235e-21)
(7.04452e-06 4.58854e-06 -2.60754e-21)
(7.15026e-06 4.7083e-06 -2.59177e-21)
(7.25788e-06 4.82912e-06 -2.5762e-21)
(7.3671e-06 4.95111e-06 -2.56082e-21)
(7.47765e-06 5.07437e-06 -2.54564e-21)
(7.58924e-06 5.19893e-06 -2.53068e-21)
(7.7016e-06 5.32481e-06 -2.51595e-21)
(7.81442e-06 5.45194e-06 -2.50149e-21)
(7.92739e-06 5.58015e-06 -2.48734e-21)
(8.04013e-06 5.70917e-06 -2.47358e-21)
(8.07788e-06 5.78924e-06 -2.59867e-22)
(6.01833e-06 3.46682e-06 0)
(6.09666e-06 3.58586e-06 0)
(6.17953e-06 3.70324e-06 0)
(6.26648e-06 3.81961e-06 0)
(6.35716e-06 3.93549e-06 0)
(6.45119e-06 4.05126e-06 0)
(6.54824e-06 4.16725e-06 0)
(6.64801e-06 4.28376e-06 0)
(6.7502e-06 4.401e-06 0)
(6.85455e-06 4.51918e-06 0)
(6.96082e-06 4.63845e-06 0)
(7.06876e-06 4.75895e-06 0)
(7.17814e-06 4.8808e-06 0)
(7.28876e-06 5.00406e-06 0)
(7.4004e-06 5.12879e-06 0)
(7.51285e-06 5.25499e-06 0)
(7.6259e-06 5.38258e-06 0)
(7.73936e-06 5.51142e-06 0)
(7.85299e-06 5.64122e-06 0)
(7.96617e-06 5.77125e-06 1.96158e-21)
(5.7605e-06 3.39212e-06 0)
(5.84836e-06 3.51037e-06 0)
(5.9395e-06 3.62705e-06 0)
(6.03355e-06 3.74285e-06 0)
(6.13034e-06 3.85828e-06 0)
(6.22961e-06 3.97374e-06 0)
(6.33117e-06 4.08956e-06 0)
(6.43481e-06 4.20603e-06 0)
(6.54035e-06 4.32337e-06 0)
(6.64762e-06 4.44177e-06 0)
(6.75643e-06 4.5614e-06 0)
(6.86664e-06 4.68239e-06 0)
(6.97809e-06 4.80486e-06 0)
(7.09062e-06 4.92888e-06 0)
(7.20409e-06 5.0545e-06 0)
(7.31836e-06 5.18175e-06 0)
(7.43327e-06 5.31057e-06 0)
(7.54866e-06 5.44086e-06 0)
(7.66431e-06 5.5724e-06 0)
(7.77906e-06 5.70452e-06 1.9895e-21)
(5.47044e-06 3.29527e-06 0)
(5.57017e-06 3.41476e-06 0)
(5.67186e-06 3.53264e-06 0)
(5.7752e-06 3.64957e-06 0)
(5.88021e-06 3.76613e-06 0)
(5.98673e-06 3.8827e-06 0)
(6.09472e-06 3.99965e-06 0)
(6.20406e-06 4.11727e-06 0)
(6.31469e-06 4.2358e-06 0)
(6.42652e-06 4.35544e-06 0)
(6.53945e-06 4.47637e-06 0)
(6.65342e-06 4.59872e-06 0)
(6.76834e-06 4.72263e-06 0)
(6.88413e-06 4.84818e-06 0)
(7.00071e-06 4.97545e-06 0)
(7.11798e-06 5.10449e-06 0)
(7.23583e-06 5.23531e-06 0)
(7.35415e-06 5.3679e-06 0)
(7.47269e-06 5.50216e-06 0)
(7.58987e-06 5.63761e-06 2.06335e-21)
(5.15343e-06 3.17622e-06 0)
(5.2669e-06 3.29882e-06 0)
(5.38098e-06 3.41968e-06 0)
(5.49539e-06 3.53939e-06 0)
(5.61035e-06 3.6586e-06 0)
(5.72577e-06 3.77767e-06 0)
(5.84177e-06 3.89703e-06 0)
(5.95832e-06 4.01698e-06 0)
(6.07547e-06 4.1378e-06 0)
(6.19321e-06 4.25969e-06 0)
(6.31156e-06 4.38286e-06 0)
(6.43051e-06 4.50747e-06 0)
(6.55005e-06 4.63365e-06 0)
(6.67016e-06 4.76153e-06 0)
(6.79084e-06 4.89122e-06 0)
(6.91203e-06 5.02282e-06 0)
(7.03368e-06 5.15639e-06 0)
(7.15569e-06 5.29205e-06 0)
(7.27787e-06 5.42984e-06 0)
(7.39829e-06 5.56945e-06 2.18586e-21)
(4.81547e-06 3.03445e-06 0)
(4.94406e-06 3.16208e-06 0)
(5.0719e-06 3.28775e-06 0)
(5.1987e-06 3.4119e-06 0)
(5.3249e-06 3.5353e-06 0)
(5.45048e-06 3.65832e-06 0)
(5.5757e-06 3.78142e-06 0)
(5.70062e-06 3.90493e-06 0)
(5.82539e-06 4.02916e-06 0)
(5.9501e-06 4.15435e-06 0)
(6.07485e-06 4.28073e-06 0)
(6.1997e-06 4.40849e-06 0)
(6.32473e-06 4.53781e-06 0)
(6.44998e-06 4.66882e-06 0)
(6.5755e-06 4.80168e-06 0)
(6.70131e-06 4.93655e-06 0)
(6.82739e-06 5.07357e-06 0)
(6.95371e-06 5.21296e-06 0)
(7.08012e-06 5.35491e-06 0)
(7.20451e-06 5.49926e-06 2.35306e-21)
(4.4621e-06 2.87055e-06 0)
(4.6067e-06 3.00504e-06 0)
(4.74925e-06 3.13728e-06 0)
(4.88936e-06 3.26749e-06 0)
(5.02773e-06 3.39658e-06 0)
(5.16438e-06 3.52491e-06 0)
(5.29971e-06 3.65303e-06 0)
(5.43386e-06 3.78128e-06 0)
(5.56709e-06 3.91003e-06 0)
(5.69956e-06 4.03956e-06 0)
(5.83144e-06 4.17011e-06 0)
(5.9629e-06 4.30193e-06 0)
(6.09407e-06 4.4352e-06 0)
(6.22506e-06 4.57013e-06 0)
(6.35598e-06 4.70689e-06 0)
(6.48691e-06 4.8457e-06 0)
(6.6179e-06 4.98679e-06 0)
(6.74897e-06 5.13045e-06 0)
(6.88007e-06 5.27699e-06 0)
(7.00909e-06 5.42643e-06 2.55894e-21)
(4.09889e-06 2.68561e-06 0)
(4.25987e-06 2.82864e-06 0)
(4.41759e-06 2.96905e-06 0)
(4.57152e-06 3.10683e-06 0)
(4.72262e-06 3.24302e-06 0)
(4.87093e-06 3.37801e-06 0)
(5.01697e-06 3.51238e-06 0)
(5.16095e-06 3.64653e-06 0)
(5.30322e-06 3.78087e-06 0)
(5.444e-06 3.91573e-06 0)
(5.58357e-06 4.05139e-06 0)
(5.72213e-06 4.18813e-06 0)
(5.85989e-06 4.32617e-06 0)
(5.99704e-06 4.46575e-06 0)
(6.13375e-06 4.6071e-06 0)
(6.27015e-06 4.75046e-06 0)
(6.40637e-06 4.89613e-06 0)
(6.5425e-06 5.0445e-06 0)
(6.67861e-06 5.19594e-06 0)
(6.8128e-06 5.35064e-06 2.79574e-21)
(3.73145e-06 2.4815e-06 0)
(3.9086e-06 2.63459e-06 0)
(4.08144e-06 2.78452e-06 0)
(4.24931e-06 2.93119e-06 0)
(4.4133e-06 3.07569e-06 0)
(4.57354e-06 3.2185e-06 0)
(4.73057e-06 3.36023e-06 0)
(4.88471e-06 3.50134e-06 0)
(5.03635e-06 3.64227e-06 0)
(5.18579e-06 3.7834e-06 0)
(5.33337e-06 3.92506e-06 0)
(5.47934e-06 4.06755e-06 0)
(5.62399e-06 4.21114e-06 0)
(5.76756e-06 4.35609e-06 0)
(5.91029e-06 4.50266e-06 0)
(6.05237e-06 4.65114e-06 0)
(6.19401e-06 4.80185e-06 0)
(6.33539e-06 4.95525e-06 0)
(6.4767e-06 5.11176e-06 0)
(6.61648e-06 5.27178e-06 3.055e-21)
(3.36442e-06 2.26059e-06 0)
(3.55699e-06 2.42496e-06 0)
(3.74441e-06 2.58544e-06 0)
(3.92603e-06 2.74218e-06 0)
(4.10282e-06 2.89606e-06 0)
(4.27504e-06 3.04775e-06 0)
(4.4432e-06 3.19782e-06 0)
(4.60767e-06 3.34682e-06 0)
(4.76887e-06 3.49524e-06 0)
(4.92716e-06 3.64349e-06 0)
(5.08292e-06 3.79194e-06 0)
(5.23648e-06 3.94094e-06 0)
(5.38816e-06 4.09078e-06 0)
(5.53828e-06 4.24174e-06 0)
(5.68713e-06 4.3941e-06 0)
(5.83497e-06 4.54819e-06 0)
(5.98211e-06 4.70434e-06 0)
(6.12879e-06 4.86302e-06 0)
(6.27535e-06 5.02469e-06 0)
(6.42104e-06 5.18995e-06 3.32722e-21)
(3.03836e-06 2.05936e-06 0)
(3.2425e-06 2.2335e-06 0)
(3.44093e-06 2.40266e-06 0)
(3.63326e-06 2.56797e-06 0)
(3.82011e-06 2.72999e-06 0)
(4.00191e-06 2.8895e-06 0)
(4.17907e-06 3.04704e-06 0)
(4.35196e-06 3.20316e-06 0)
(4.521e-06 3.35834e-06 0)
(4.68657e-06 3.51303e-06 0)
(4.84905e-06 3.66761e-06 0)
(5.00883e-06 3.82243e-06 0)
(5.16625e-06 3.97779e-06 0)
(5.32168e-06 4.13399e-06 0)
(5.47545e-06 4.2913e-06 0)
(5.62789e-06 4.45004e-06 0)
(5.77937e-06 4.61054e-06 0)
(5.93021e-06 4.77323e-06 0)
(6.08088e-06 4.93852e-06 0)
(6.23141e-06 5.10728e-06 3.56462e-21)
(6.2349e-06 3.52208e-06 -2.75856e-21)
(6.30707e-06 3.64369e-06 -2.74098e-21)
(6.38486e-06 3.76339e-06 -2.72359e-21)
(6.46773e-06 3.88181e-06 -2.70638e-21)
(6.55514e-06 3.99946e-06 -2.68938e-21)
(6.64659e-06 4.11674e-06 -2.6726e-21)
(6.74164e-06 4.23402e-06 -2.65602e-21)
(6.83989e-06 4.35159e-06 -2.63966e-21)
(6.94096e-06 4.46969e-06 -2.6235e-21)
(7.04452e-06 4.58854e-06 -2.60754e-21)
(7.15026e-06 4.7083e-06 -2.59177e-21)
(7.25788e-06 4.82912e-06 -2.5762e-21)
(7.3671e-06 4.95111e-06 -2.56082e-21)
(7.47765e-06 5.07437e-06 -2.54564e-21)
(7.58924e-06 5.19893e-06 -2.53068e-21)
(7.7016e-06 5.32481e-06 -2.51595e-21)
(7.81442e-06 5.45194e-06 -2.50149e-21)
(7.92739e-06 5.58015e-06 -2.48734e-21)
(8.04013e-06 5.70917e-06 -2.47358e-21)
(8.07788e-06 5.78924e-06 -2.59867e-22)
(6.01833e-06 3.46682e-06 0)
(6.09666e-06 3.58586e-06 0)
(6.17953e-06 3.70324e-06 0)
(6.26648e-06 3.81961e-06 0)
(6.35716e-06 3.93549e-06 0)
(6.45119e-06 4.05126e-06 0)
(6.54824e-06 4.16725e-06 0)
(6.64801e-06 4.28376e-06 0)
(6.7502e-06 4.401e-06 0)
(6.85455e-06 4.51918e-06 0)
(6.96082e-06 4.63845e-06 0)
(7.06876e-06 4.75895e-06 0)
(7.17814e-06 4.8808e-06 0)
(7.28876e-06 5.00406e-06 0)
(7.4004e-06 5.12879e-06 0)
(7.51285e-06 5.25499e-06 0)
(7.6259e-06 5.38258e-06 0)
(7.73936e-06 5.51142e-06 0)
(7.85299e-06 5.64122e-06 0)
(7.96617e-06 5.77125e-06 1.96158e-21)
(5.7605e-06 3.39212e-06 0)
(5.84836e-06 3.51037e-06 0)
(5.9395e-06 3.62705e-06 0)
(6.03355e-06 3.74285e-06 0)
(6.13034e-06 3.85828e-06 0)
(6.22961e-06 3.97374e-06 0)
(6.33117e-06 4.08956e-06 0)
(6.43481e-06 4.20603e-06 0)
(6.54035e-06 4.32337e-06 0)
(6.64762e-06 4.44177e-06 0)
(6.75643e-06 4.5614e-06 0)
(6.86664e-06 4.68239e-06 0)
(6.97809e-06 4.80486e-06 0)
(7.09062e-06 4.92888e-06 0)
(7.20409e-06 5.0545e-06 0)
(7.31836e-06 5.18175e-06 0)
(7.43327e-06 5.31057e-06 0)
(7.54866e-06 5.44086e-06 0)
(7.66431e-06 5.5724e-06 0)
(7.77906e-06 5.70452e-06 1.9895e-21)
(5.47044e-06 3.29527e-06 0)
(5.57017e-06 3.41476e-06 0)
(5.67186e-06 3.53264e-06 0)
(5.7752e-06 3.64957e-06 0)
(5.88021e-06 3.76613e-06 0)
(5.98673e-06 3.8827e-06 0)
(6.09472e-06 3.99965e-06 0)
(6.20406e-06 4.11727e-06 0)
(6.31469e-06 4.2358e-06 0)
(6.42652e-06 4.35544e-06 0)
(6.53945e-06 4.47637e-06 0)
(6.65342e-06 4.59872e-06 0)
(6.76834e-06 4.72263e-06 0)
(6.88413e-06 4.84818e-06 0)
(7.00071e-06 4.97545e-06 0)
(7.11798e-06 5.10449e-06 0)
(7.23583e-06 5.23531e-06 0)
(7.35415e-06 5.3679e-06 0)
(7.47269e-06 5.50216e-06 0)
(7.58987e-06 5.63761e-06 2.06335e-21)
(5.15343e-06 3.17622e-06 0)
(5.2669e-06 3.29882e-06 0)
(5.38098e-06 3.41968e-06 0)
(5.49539e-06 3.53939e-06 0)
(5.61035e-06 3.6586e-06 0)
(5.72577e-06 3.77767e-06 0)
(5.84177e-06 3.89703e-06 0)
(5.95832e-06 4.01698e-06 0)
(6.07547e-06 4.1378e-06 0)
(6.19321e-06 4.25969e-06 0)
(6.31156e-06 4.38286e-06 0)
(6.43051e-06 4.50747e-06 0)
(6.55005e-06 4.63365e-06 0)
(6.67016e-06 4.76153e-06 0)
(6.79084e-06 4.89122e-06 0)
(6.91203e-06 5.02282e-06 0)
(7.03368e-06 5.15639e-06 0)
(7.15569e-06 5.29205e-06 0)
(7.27787e-06 5.42984e-06 0)
(7.39829e-06 5.56945e-06 2.18586e-21)
(4.81547e-06 3.03445e-06 0)
(4.94406e-06 3.16208e-06 0)
(5.0719e-06 3.28775e-06 0)
(5.1987e-06 3.4119e-06 0)
(5.3249e-06 3.5353e-06 0)
(5.45048e-06 3.65832e-06 0)
(5.5757e-06 3.78142e-06 0)
(5.70062e-06 3.90493e-06 0)
(5.82539e-06 4.02916e-06 0)
(5.9501e-06 4.15435e-06 0)
(6.07485e-06 4.28073e-06 0)
(6.1997e-06 4.40849e-06 0)
(6.32473e-06 4.53781e-06 0)
(6.44998e-06 4.66882e-06 0)
(6.5755e-06 4.80168e-06 0)
(6.70131e-06 4.93655e-06 0)
(6.82739e-06 5.07357e-06 0)
(6.95371e-06 5.21296e-06 0)
(7.08012e-06 5.35491e-06 0)
(7.20451e-06 5.49926e-06 2.35306e-21)
(4.4621e-06 2.87055e-06 0)
(4.6067e-06 3.00504e-06 0)
(4.74925e-06 3.13728e-06 0)
(4.88936e-06 3.26749e-06 0)
(5.02773e-06 3.39658e-06 0)
(5.16438e-06 3.52491e-06 0)
(5.29971e-06 3.65303e-06 0)
(5.43386e-06 3.78128e-06 0)
(5.56709e-06 3.91003e-06 0)
(5.69956e-06 4.03956e-06 0)
(5.83144e-06 4.17011e-06 0)
(5.9629e-06 4.30193e-06 0)
(6.09407e-06 4.4352e-06 0)
(6.22506e-06 4.57013e-06 0)
(6.35598e-06 4.70689e-06 0)
(6.48691e-06 4.8457e-06 0)
(6.6179e-06 4.98679e-06 0)
(6.74897e-06 5.13045e-06 0)
(6.88007e-06 5.27699e-06 0)
(7.00909e-06 5.42643e-06 2.55894e-21)
(4.09889e-06 2.68561e-06 0)
(4.25987e-06 2.82864e-06 0)
(4.41759e-06 2.96905e-06 0)
(4.57152e-06 3.10683e-06 0)
(4.72262e-06 3.24302e-06 0)
(4.87093e-06 3.37801e-06 0)
(5.01697e-06 3.51238e-06 0)
(5.16095e-06 3.64653e-06 0)
(5.30322e-06 3.78087e-06 0)
(5.444e-06 3.91573e-06 0)
(5.58357e-06 4.05139e-06 0)
(5.72213e-06 4.18813e-06 0)
(5.85989e-06 4.32617e-06 0)
(5.99704e-06 4.46575e-06 0)
(6.13375e-06 4.6071e-06 0)
(6.27015e-06 4.75046e-06 0)
(6.40637e-06 4.89613e-06 0)
(6.5425e-06 5.0445e-06 0)
(6.67861e-06 5.19594e-06 0)
(6.8128e-06 5.35064e-06 2.79574e-21)
(3.73145e-06 2.4815e-06 0)
(3.9086e-06 2.63459e-06 0)
(4.08144e-06 2.78452e-06 0)
(4.24931e-06 2.93119e-06 0)
(4.4133e-06 3.07569e-06 0)
(4.57354e-06 3.2185e-06 0)
(4.73057e-06 3.36023e-06 0)
(4.88471e-06 3.50134e-06 0)
(5.03635e-06 3.64227e-06 0)
(5.18579e-06 3.7834e-06 0)
(5.33337e-06 3.92506e-06 0)
(5.47934e-06 4.06755e-06 0)
(5.62399e-06 4.21114e-06 0)
(5.76756e-06 4.35609e-06 0)
(5.91029e-06 4.50266e-06 0)
(6.05237e-06 4.65114e-06 0)
(6.19401e-06 4.80185e-06 0)
(6.33539e-06 4.95525e-06 0)
(6.4767e-06 5.11176e-06 0)
(6.61648e-06 5.27178e-06 3.055e-21)
(3.36442e-06 2.26059e-06 0)
(3.55699e-06 2.42496e-06 0)
(3.74441e-06 2.58544e-06 0)
(3.92603e-06 2.74218e-06 0)
(4.10282e-06 2.89606e-06 0)
(4.27504e-06 3.04775e-06 0)
(4.4432e-06 3.19782e-06 0)
(4.60767e-06 3.34682e-06 0)
(4.76887e-06 3.49524e-06 0)
(4.92716e-06 3.64349e-06 0)
(5.08292e-06 3.79194e-06 0)
(5.23648e-06 3.94094e-06 0)
(5.38816e-06 4.09078e-06 0)
(5.53828e-06 4.24174e-06 0)
(5.68713e-06 4.3941e-06 0)
(5.83497e-06 4.54819e-06 0)
(5.98211e-06 4.70434e-06 0)
(6.12879e-06 4.86302e-06 0)
(6.27535e-06 5.02469e-06 0)
(6.42104e-06 5.18995e-06 3.32722e-21)
(3.03836e-06 2.05936e-06 0)
(3.2425e-06 2.2335e-06 0)
(3.44093e-06 2.40266e-06 0)
(3.63326e-06 2.56797e-06 0)
(3.82011e-06 2.72999e-06 0)
(4.00191e-06 2.8895e-06 0)
(4.17907e-06 3.04704e-06 0)
(4.35196e-06 3.20316e-06 0)
(4.521e-06 3.35834e-06 0)
(4.68657e-06 3.51303e-06 0)
(4.84905e-06 3.66761e-06 0)
(5.00883e-06 3.82243e-06 0)
(5.16625e-06 3.97779e-06 0)
(5.32168e-06 4.13399e-06 0)
(5.47545e-06 4.2913e-06 0)
(5.62789e-06 4.45004e-06 0)
(5.77937e-06 4.61054e-06 0)
(5.93021e-06 4.77323e-06 0)
(6.08088e-06 4.93852e-06 0)
(6.23141e-06 5.10728e-06 3.56462e-21)
(2.55495e-06 1.72438e-06 0)
(2.80081e-06 1.92069e-06 0)
(3.00894e-06 2.09892e-06 0)
(3.21129e-06 2.27201e-06 0)
(3.40778e-06 2.44156e-06 0)
(3.59877e-06 2.60792e-06 0)
(3.78465e-06 2.77177e-06 0)
(3.96581e-06 2.93363e-06 0)
(4.14256e-06 3.09396e-06 0)
(4.31525e-06 3.25319e-06 0)
(4.48425e-06 3.41173e-06 0)
(4.64992e-06 3.56991e-06 0)
(4.81262e-06 3.72806e-06 0)
(4.97273e-06 3.88647e-06 0)
(5.13058e-06 4.04538e-06 0)
(5.28656e-06 4.20507e-06 0)
(5.44101e-06 4.3658e-06 0)
(5.59434e-06 4.52786e-06 0)
(5.74691e-06 4.6916e-06 0)
(5.8993e-06 4.85736e-06 0)
(6.05189e-06 5.02596e-06 3.70851e-21)
(2.38095e-06 1.62286e-06 0)
(2.61862e-06 1.81642e-06 0)
(2.82525e-06 1.99492e-06 0)
(3.02685e-06 2.16924e-06 0)
(3.22314e-06 2.34061e-06 0)
(3.41441e-06 2.50918e-06 0)
(3.60088e-06 2.67544e-06 0)
(3.78283e-06 2.83982e-06 0)
(3.9605e-06 3.00269e-06 0)
(4.13417e-06 3.16441e-06 0)
(4.30417e-06 3.32531e-06 0)
(4.4708e-06 3.48568e-06 0)
(4.63441e-06 3.64578e-06 0)
(4.79534e-06 3.80586e-06 0)
(4.95393e-06 3.96614e-06 0)
(5.11055e-06 4.12683e-06 0)
(5.26555e-06 4.28814e-06 0)
(5.41936e-06 4.4503e-06 0)
(5.57238e-06 4.61357e-06 0)
(5.72521e-06 4.77816e-06 0)
(5.87828e-06 4.94463e-06 3.78347e-21)
(2.22664e-06 1.52545e-06 0)
(2.45535e-06 1.7161e-06 0)
(2.65825e-06 1.89406e-06 0)
(2.85721e-06 2.06886e-06 0)
(3.05163e-06 2.24141e-06 0)
(3.2417e-06 2.41166e-06 0)
(3.42743e-06 2.57991e-06 0)
(3.60898e-06 2.74649e-06 0)
(3.78649e-06 2.91165e-06 0)
(3.9602e-06 3.07566e-06 0)
(4.13036e-06 3.23878e-06 0)
(4.29725e-06 3.40122e-06 0)
(4.46116e-06 3.5632e-06 0)
(4.62241e-06 3.7249e-06 0)
(4.78131e-06 3.8865e-06 0)
(4.93823e-06 4.04814e-06 0)
(5.09351e-06 4.20999e-06 0)
(5.24758e-06 4.37218e-06 0)
(5.40085e-06 4.53488e-06 0)
(5.55396e-06 4.69814e-06 0)
(5.70732e-06 4.86228e-06 3.82994e-21)
(2.08924e-06 1.43294e-06 0)
(2.30842e-06 1.62005e-06 0)
(2.50628e-06 1.79673e-06 0)
(2.70126e-06 1.97137e-06 0)
(2.89252e-06 2.14452e-06 0)
(3.08017e-06 2.31596e-06 0)
(3.264e-06 2.48583e-06 0)
(3.44408e-06 2.65427e-06 0)
(3.62049e-06 2.82145e-06 0)
(3.79339e-06 2.98753e-06 0)
(3.96297e-06 3.15267e-06 0)
(4.12945e-06 3.31704e-06 0)
(4.29309e-06 3.48077e-06 0)
(4.45417e-06 3.64399e-06 0)
(4.61298e-06 3.80682e-06 0)
(4.76985e-06 3.96935e-06 0)
(4.92514e-06 4.13166e-06 0)
(5.07922e-06 4.29382e-06 0)
(5.23256e-06 4.45585e-06 0)
(5.38583e-06 4.61769e-06 0)
(5.53932e-06 4.77941e-06 3.84593e-21)
(1.9664e-06 1.34552e-06 0)
(2.1759e-06 1.52877e-06 0)
(2.3678e-06 1.70361e-06 0)
(2.55778e-06 1.87751e-06 0)
(2.74486e-06 2.05072e-06 0)
(2.92904e-06 2.22287e-06 0)
(3.10997e-06 2.39391e-06 0)
(3.28769e-06 2.56384e-06 0)
(3.46217e-06 2.73271e-06 0)
(3.6335e-06 2.90058e-06 0)
(3.80181e-06 3.06751e-06 0)
(3.9673e-06 3.2336e-06 0)
(4.13015e-06 3.39892e-06 0)
(4.29062e-06 3.56353e-06 0)
(4.44896e-06 3.72748e-06 0)
(4.60549e-06 3.8908e-06 0)
(4.76052e-06 4.0535e-06 0)
(4.91442e-06 4.21555e-06 0)
(5.06764e-06 4.37684e-06 0)
(5.22081e-06 4.53726e-06 0)
(5.37419e-06 4.69662e-06 3.83005e-21)
(1.85567e-06 1.26309e-06 0)
(2.0556e-06 1.44224e-06 0)
(2.24099e-06 1.61483e-06 0)
(2.42527e-06 1.78754e-06 0)
(2.60738e-06 1.96037e-06 0)
(2.78728e-06 2.13279e-06 0)
(2.96455e-06 2.30461e-06 0)
(3.13915e-06 2.47567e-06 0)
(3.31098e-06 2.6459e-06 0)
(3.4801e-06 2.81527e-06 0)
(3.64657e-06 2.98374e-06 0)
(3.81053e-06 3.15133e-06 0)
(3.97214e-06 3.31804e-06 0)
(4.1316e-06 3.48386e-06 0)