/*--------------------------------*- C++ -*----------------------------------*\
  =========                 |
  \\      /  F ield         | OpenFOAM: The Open Source CFD Toolbox
   \\    /   O peration     | Website:  https://openfoam.org
    \\  /    A nd           | Version:  9
     \\/     M anipulation  |
\*---------------------------------------------------------------------------*/
FoamFile
{
    format      ascii;
    class       volSymmTensorField;
    location    "5";
    object      sigma;
}
// * * * * * * * * * * * * * * * * * * * * * * * * * * * * * * * * * * * * * //

dimensions      [1 -1 -2 0 0 0 0];

internalField   nonuniform List<symmTensor> 
1000
(
(618991 -422527 -2.23475e-10 356091 -3.08215e-10 85166.8)
(725240 -323845 -1.86207e-10 192540 -2.38496e-10 84114.2)
(778188 -247806 -1.50191e-10 115296 -1.85956e-10 84218.2)
(799129 -190547 -1.18468e-10 56321.1 -1.43257e-10 80576.5)
(805206 -144851 -8.98044e-11 21559.9 -1.08518e-10 77020.6)
(800939 -109026 -6.8736e-11 -3910.78 -8.226e-11 74013.4)
(792507 -80029.2 -5.24142e-11 -20356 -6.19109e-11 71870.1)
(780085 -56893.7 -4.02734e-11 -32120.5 -4.63179e-11 70052)
(767479 -37647.2 -3.05039e-11 -39833.1 -3.3778e-11 68694.1)
(750666 -21512.6 -2.33128e-11 -47182.7 -2.36992e-11 67131)
(785697 -470517 -2.49308e-10 360158 -3.40051e-10 101287)
(854417 -334321 -1.88304e-10 203483 -2.45552e-10 97503.5)
(879862 -238614 -1.34329e-10 132295 -1.76851e-10 93740.8)
(879814 -169965 -9.27725e-11 75998 -1.24982e-10 87415.8)
(871587 -117898 -6.24106e-11 43626.8 -8.75249e-11 83544.5)
(855568 -78846.9 -4.11963e-11 19163.8 -6.02538e-11 80127)
(837477 -48331.2 -2.54556e-11 3398.41 -3.98045e-11 77611.9)
(816993 -25003.7 -1.44755e-11 -8789.31 -2.47262e-11 75340.5)
(796827 -6075.14 -6.09244e-12 -16204.4 -1.3078e-11 73640.6)
(774246 9198.44 -3.77996e-13 -26132.3 -3.76771e-12 71445.6)
(965633 -501003 -2.6673e-10 347058 -3.59806e-10 117580)
(982911 -334857 -1.76345e-10 209346 -2.40537e-10 107491)
(976776 -223212 -1.09278e-10 150803 -1.6048e-10 101165)
(954770 -145332 -6.54168e-11 100853 -1.05109e-10 94694.4)
(930322 -88567 -3.46601e-11 73076.6 -6.64583e-11 90673.9)
(901267 -47451.9 -1.42032e-11 50893.4 -3.91986e-11 86930.7)
(872902 -16512.8 1.96348e-13 36677.4 -1.95262e-11 84110.1)
(843891 6246.65 9.4822e-12 24697 -5.57754e-12 81433.4)
(816687 23984.4 1.60242e-11 17655.5 4.63716e-12 79415)
(787971 38574.4 2.03281e-11 6179.08 1.31472e-11 76705.5)
(1.14853e+06 -511047 -2.5729e-10 321229 -3.55758e-10 127749)
(1.10968e+06 -323720 -1.49422e-10 211741 -2.22588e-10 114261)
(1.07032e+06 -201308 -8.07306e-11 170957 -1.40283e-10 108724)
(1.02356e+06 -117521 -3.70109e-11 130635 -8.42255e-11 102346)
(980950 -58379.8 -7.57521e-12 109110 -4.62731e-11 98261.8)
(937857 -16850.1 1.09609e-11 90056.4 -2.02995e-11 94229.9)
(898598 13271.9 2.31594e-11 77563.5 -2.29758e-12 91078.5)
(861014 34714.1 3.02824e-11 65841.4 1.00158e-11 87990.4)
(827000 50539.3 3.45669e-11 58601.3 1.84046e-11 85581.1)
(793383 63496.5 3.70794e-11 46351.9 2.55029e-11 82505.3)
(1.32916e+06 -494076 -2.18789e-10 284166 -3.24819e-10 132186)
(1.23333e+06 -298898 -1.14589e-10 211747 -1.95576e-10 120757)
(1.15821e+06 -172470 -4.87746e-11 193249 -1.16228e-10 116373)
(1.08461e+06 -87143.6 -8.18413e-12 165010 -6.28321e-11 110241)
(1.02264e+06 -28748.8 1.78347e-11 151129 -2.79063e-11 106170)
(964948 11015.1 3.30252e-11 135738 -4.77069e-12 101860)
(914804 38741.5 4.20504e-11 124985 1.05147e-11 98359)
(869158 57635.1 4.63307e-11 113411 2.04344e-11 94853.6)
(828670 70557.9 4.77896e-11 105150 2.6465e-11 91950.5)
(789430 80977.5 5.13203e-11 91909.5 3.36527e-11 87207.3)
(1.5021e+06 -450565 -1.65211e-10 241826 -2.76371e-10 135924)
(1.35114e+06 -259812 -7.18956e-11 210974 -1.59536e-10 127058)
(1.23937e+06 -136799 -1.36293e-11 218589 -8.85753e-11 124175)
(1.13753e+06 -55249.5 2.03553e-11 204086 -4.16697e-11 118359)
(1.0554e+06 -1305.74 4.05542e-11 198331 -1.23458e-11 114273)
(983098 34094.1 5.07937e-11 186490 6.2447e-12 109635)
(922435 57577.4 5.55565e-11 176835 1.76961e-11 105693)
(868164 72446.7 5.94043e-11 164683 2.63764e-11 100427)
(820737 81501.4 6.24929e-11 154923 3.25713e-11 95128)
(777627 88969.4 6.38895e-11 140268 3.78297e-11 89858.1)
(1.65596e+06 -377851 -9.66589e-11 198820 -2.10156e-10 139030)
(1.45745e+06 -203086 -2.0122e-11 212006 -1.13014e-10 133264)
(1.30887e+06 -92948.4 2.47754e-11 248363 -5.70161e-11 132082)
(1.17869e+06 -22187.6 4.78185e-11 247769 -2.12683e-11 126504)
(1.07721e+06 22431.5 5.9311e-11 249369 -6.14006e-13 122276)
(991317 50265.2 6.2768e-11 239629 1.15655e-11 117128)
(919836 67120.1 6.76978e-11 229857 2.13749e-11 110445)
(858390 76976.1 7.03519e-11 216110 2.81775e-11 103474)
(807064 82221.5 7.061e-11 204040 3.18831e-11 97572.2)
(761554 86715 6.98744e-11 187981 3.51892e-11 91925.7)
(1.80203e+06 -276558 -1.15615e-11 167872 -1.27077e-10 143698)
(1.55371e+06 -126118 4.27105e-11 225920 -5.54329e-11 140911)
(1.36626e+06 -40682.5 6.66186e-11 290366 -2.23244e-11 141082)
(1.20856e+06 9788.32 7.29361e-11 299534 -3.4781e-12 135114)
(1.08911e+06 39649.3 7.25318e-11 304047 5.5383e-12 130165)
(990603 56492.4 7.27723e-11 293137 1.29124e-11 122130)
(911208 65768.5 7.48856e-11 280574 1.9276e-11 113484)
(845816 70861.5 7.4055e-11 264154 2.29624e-11 105867)
(791958 72903.4 7.17686e-11 249029 2.46016e-11 99446)
(744947 74864 6.91697e-11 231410 2.62548e-11 93504)
(1.91865e+06 -135116 9.39854e-11 163532 -2.29981e-11 150890)
(1.61721e+06 -28827.8 1.1331e-10 270978 9.22599e-12 151229)
(1.39144e+06 13140.9 1.04608e-10 353228 8.25091e-12 151194)
(1.21335e+06 32129.7 8.82725e-11 360184 4.77249e-12 143492)
(1.08388e+06 43033.9 7.68156e-11 358083 2.55632e-12 136119)
(978958 47606 7.46792e-11 340644 5.86441e-12 124542)
(897572 50512.4 7.19028e-11 322667 8.10837e-12 115212)
(831102 51997.9 6.81814e-11 302430 9.47897e-12 107156)
(776623 52188.5 6.42075e-11 284089 9.95925e-12 100406)
(729198 52708.7 6.04813e-11 265109 1.06841e-11 94302.7)
(2.07189e+06 94532.6 2.61199e-10 272653 1.29596e-10 175771)
(1.64812e+06 101679 2.00519e-10 412273 8.2057e-11 172810)
(1.39301e+06 63521.9 1.37256e-10 454142 3.01709e-11 164996)
(1.20944e+06 40373.4 9.37063e-11 433104 1.54368e-12 152826)
(1.07693e+06 32711.6 7.82364e-11 407522 -5.48698e-12 139123)
(972539 29259.3 6.89668e-11 376865 -7.21496e-12 126492)
(891745 29204.4 6.29795e-11 350388 -6.74422e-12 116534)
(825475 29731.1 5.79543e-11 325761 -5.90947e-12 108149)
(770917 30100.2 5.36522e-11 304719 -5.24713e-12 101185)
(723190 30561.2 4.98017e-11 285236 -4.55038e-12 95013.1)
(-3198.38 1389.19 -2.98236e-11 -1674.87 -1.82834e-11 1405.2)
(1046.99 -2982.76 -3.21337e-11 362.367 -2.1238e-11 1929.08)
(20445.4 -10541.2 -3.66582e-11 -941.845 -2.62161e-11 3646.02)
(52477.7 -16753.3 -4.00583e-11 -2091.55 -3.02834e-11 6628.61)
(90063.8 -20674.5 -4.18332e-11 -2740.37 -3.28286e-11 10219.9)
(129806 -22952.9 -4.24871e-11 -3068.81 -3.42836e-11 14065.6)
(168866 -23902.5 -4.22875e-11 -3156.42 -3.486e-11 17878)
(206323 -24051.4 -4.15896e-11 -3044.28 -3.49096e-11 21557.4)
(240696 -23461.5 -4.05058e-11 -3002.76 -3.44699e-11 24937.4)
(272806 -23011.7 -3.94791e-11 -2489.97 -3.41376e-11 28130.2)
(3102.5 -2951.49 -3.2275e-11 -894.273 -2.11849e-11 2034.32)
(28919.6 -19366.5 -3.98239e-11 12424.8 -3.23965e-11 5405.73)
(66755.6 -37978.2 -5.05086e-11 13309 -4.47646e-11 8974.83)
(107240 -52393.8 -5.92768e-11 9527.85 -5.42241e-11 12491.8)
(147939 -61410.5 -6.46846e-11 5674.68 -6.00847e-11 16084.9)
(186704 -66548.2 -6.76557e-11 2172.36 -6.33719e-11 19558.7)
(222633 -68518.1 -6.85868e-11 -570.078 -6.45701e-11 22848.4)
(255945 -68563.7 -6.82466e-11 -2538.61 -6.45082e-11 25962.7)
(285283 -66766.8 -6.67959e-11 -4239.65 -6.32305e-11 28728.5)
(313194 -65355.7 -6.53713e-11 -4435.46 -6.22471e-11 31465.8)
(10626.3 -17271.8 -3.9114e-11 11076.1 -3.09951e-11 3531.94)
(56612.4 -49815.4 -5.58595e-11 27155.4 -5.29888e-11 8912.34)
(109446 -72982.7 -6.94403e-11 25789.2 -6.83183e-11 13727.8)
(158139 -88590.9 -7.97007e-11 16336.9 -7.84284e-11 17600.2)
(202829 -97317.5 -8.56935e-11 7243.73 -8.39675e-11 21184.8)
(242185 -101515 -8.87864e-11 -711.522 -8.65233e-11 24384.8)
(276661 -102199 -8.94938e-11 -6838.2 -8.67876e-11 27286.3)
(307410 -100734 -8.86654e-11 -11287.6 -8.56647e-11 29975.4)
(333037 -97283.1 -8.65325e-11 -14673.3 -8.32511e-11 32266.3)
(357942 -94415.8 -8.44014e-11 -15729.2 -8.12816e-11 34659.1)
(26501.7 -40166.4 -4.84365e-11 39674.4 -4.6895e-11 7030.84)
(94094.3 -86696.3 -7.5037e-11 46012.4 -7.79492e-11 13623.9)
(159196 -111107 -9.00681e-11 38912.7 -9.39559e-11 19187.3)
(214856 -124793 -9.99629e-11 23422.5 -1.02634e-10 23300.1)
(262837 -130572 -1.04841e-10 9438.86 -1.06091e-10 26864.4)
(302770 -131751 -1.06716e-10 -2691.2 -1.06537e-10 29833.8)
(336016 -129646 -1.06243e-10 -12121.5 -1.04868e-10 32391.8)
(364554 -125608 -1.0427e-10 -19134.2 -1.01974e-10 34695.9)
(386774 -119907 -1.0112e-10 -24468.6 -9.802e-11 36528.2)
(409029 -115127 -9.80385e-11 -26687 -9.47527e-11 38593.3)
(53849.7 -72810.3 -6.13474e-11 82212.5 -6.96006e-11 12617.2)
(144486 -126961 -9.57538e-11 66749.9 -1.0519e-10 19707.9)
(219722 -148903 -1.10735e-10 49155.1 -1.19292e-10 25485.6)
(280127 -157953 -1.18885e-10 25975.6 -1.24696e-10 29524.3)
(329420 -158635 -1.21383e-10 6884.91 -1.24635e-10 32881.7)
(368536 -155164 -1.21001e-10 -9113.08 -1.21894e-10 35525.7)
(399640 -149100 -1.18558e-10 -21350.8 -1.17525e-10 37702.2)
(425359 -141645 -1.14845e-10 -30416.9 -1.1231e-10 39610.4)
(443892 -133242 -1.10323e-10 -37219.6 -1.06527e-10 40998.5)
(463277 -126129 -1.05974e-10 -40237.9 -1.0169e-10 42746.7)
(96354.6 -116025 -7.88083e-11 135435 -9.95776e-11 20392.8)
(209377 -167851 -1.16212e-10 89647.6 -1.32878e-10 27372.6)
(292544 -182936 -1.28938e-10 58547.3 -1.42085e-10 32966.3)
(355285 -185027 -1.34063e-10 26951 -1.42652e-10 36664.8)
(403767 -179287 -1.33349e-10 3062.96 -1.38202e-10 39645.8)
(440364 -170380 -1.30153e-10 -16182 -1.31766e-10 41853.9)
(468035 -159865 -1.25359e-10 -30606.6 -1.24385e-10 43575.7)
(489915 -148685 -1.1965e-10 -41204.9 -1.16659e-10 45031.3)
(504130 -137493 -1.13659e-10 -49132.3 -1.08996e-10 45941)
(520019 -127911 -1.07927e-10 -52665.5 -1.02508e-10 47334.5)
(157076 -169358 -1.01469e-10 193206 -1.36377e-10 30190.8)
(288520 -207611 -1.35562e-10 113215 -1.59809e-10 36498.8)
(376445 -211110 -1.43372e-10 67245.8 -1.60942e-10 41545.5)
(438629 -203966 -1.44155e-10 26950.7 -1.55153e-10 44624.1)
(483946 -190748 -1.39555e-10 -1342.39 -1.45622e-10 47039.8)
(516092 -175938 -1.33214e-10 -23329 -1.35197e-10 48666.9)
(538954 -160858 -1.25924e-10 -39312.1 -1.24744e-10 49848.5)
(555827 -146044 -1.18208e-10 -50873.7 -1.14581e-10 50779.9)
(565075 -132273 -1.10812e-10 -59429.2 -1.05193e-10 51183.1)
(576579 -120317 -1.03727e-10 -63195.5 -9.71237e-11 52155.4)
(238783 -230850 -1.29015e-10 249550 -1.78549e-10 41845.1)
(381242 -244640 -1.52963e-10 136582 -1.84896e-10 46971.6)
(469552 -232053 -1.52982e-10 76702.4 -1.74987e-10 51166.7)
(527875 -213653 -1.48114e-10 28441.2 -1.61519e-10 53380.3)
(567693 -192270 -1.39128e-10 -3512.57 -1.46469e-10 55066.9)
(593715 -171560 -1.2955e-10 -27456.6 -1.32076e-10 56009.3)
(610460 -152139 -1.19841e-10 -44442.9 -1.18717e-10 56562.5)
(621037 -134064 -1.10314e-10 -56583.3 -1.06376e-10 56868.6)
(624627 -118148 -1.01789e-10 -65704.9 -9.55532e-11 56697.7)
(630639 -104181 -9.35276e-11 -69534.1 -8.61216e-11 57132.9)
(343117 -296896 -1.60146e-10 298416 -2.2355e-10 55091.9)
(486234 -277401 -1.67714e-10 158298 -2.07085e-10 58568.2)
(569396 -245150 -1.57347e-10 87471.3 -1.83826e-10 61637.2)
(620136 -214058 -1.45733e-10 32952 -1.61765e-10 62768.4)
(651961 -184256 -1.32063e-10 -1486.17 -1.41061e-10 63574.7)
(669528 -157847 -1.19353e-10 -26966.5 -1.22846e-10 63633.8)
(677914 -134691 -1.04528e-10 -44280.7 -1.05155e-10 62325.4)
(680828 -114189 -9.15948e-11 -56600 -8.99278e-11 61162.4)
(678408 -96782.5 -8.13703e-11 -65745.4 -7.75696e-11 60101)
(678052 -81286.5 -7.19385e-11 -70496.7 -6.68018e-11 59683.4)
(470380 -362697 -1.92629e-10 335056 -2.68069e-10 69649.3)
(601695 -304383 -1.79088e-10 177282 -2.25345e-10 71046)
(673168 -250363 -1.56379e-10 100315 -1.87456e-10 72740.8)
(711934 -205906 -1.37299e-10 41941.1 -1.56417e-10 72551.5)
(731958 -167869 -1.15765e-10 6497.43 -1.28297e-10 71113.6)
(738298 -136474 -9.57548e-11 -19266.7 -1.04029e-10 68535.2)
(738132 -110135 -7.97782e-11 -36716.4 -8.4615e-11 66637)
(733395 -87959.9 -6.70196e-11 -48794 -6.89639e-11 65147.5)
(725547 -69985.2 -5.73104e-11 -58552.2 -5.66243e-11 63744.8)
(718638 -54435 -4.88634e-11 -62020.9 -4.65287e-11 63167.5)
(301525 -21376.9 -3.78679e-11 -2494.11 -3.30085e-11 30963.9)
(326811 -19109.5 -3.58449e-11 -1955.52 -3.14754e-11 33509.9)
(350031 -17117.1 -3.40588e-11 -1561.46 -3.01249e-11 35839.2)
(370881 -15304.2 -3.24505e-11 -1267.42 -2.8895e-11 37926.4)
(389717 -13619 -3.09644e-11 -978.905 -2.7753e-11 39814.3)
(406573 -12106.3 -2.96385e-11 -765.997 -2.67267e-11 41500.3)
(421692 -10718.2 -2.8428e-11 -564.238 -2.57856e-11 43013.6)
(435153 -9464.32 -2.73429e-11 -408.14 -2.49351e-11 44359.6)
(447129 -8314.24 -2.63564e-11 -270.944 -2.41556e-11 45557.1)
(457700 -7260.1 -2.54627e-11 -163.693 -2.3441e-11 46613.7)
(466980 -6279.74 -2.46464e-11 -77.4676 -2.2777e-11 47541.1)
(475029 -5359.24 -2.38958e-11 -14.71 -2.21541e-11 48345.4)
(481907 -4480.84 -2.31994e-11 27.6594 -2.15603e-11 49032.9)
(487653 -3632.11 -2.25481e-11 49.0034 -2.09874e-11 49607.4)
(492281 -2802.49 -2.19353e-11 48.3662 -2.04283e-11 50070.4)
(495824 -1990.37 -2.13582e-11 29.7832 -1.98817e-11 50425.5)
(498267 -1206.59 -2.0825e-11 -8.02009 -1.93552e-11 50670.9)
(499726 -495.232 -2.03559e-11 -34.4611 -1.88787e-11 50819.9)
(500190 55.0878 -2.0002e-11 -26.7093 -1.85116e-11 50872.2)
(500139 178.703 -1.98792e-11 260.638 -1.84361e-11 50890.7)
(335613 -60919.1 -6.23499e-11 -5719.6 -5.92302e-11 33614.9)
(354072 -54909.4 -5.82067e-11 -5634.76 -5.52027e-11 35498.6)
(371942 -49581.3 -5.4442e-11 -5186.11 -5.16385e-11 37344.9)
(387884 -44595.7 -5.0965e-11 -4946.87 -4.83004e-11 38982.3)
(402698 -39913.8 -4.76669e-11 -4503.42 -4.5171e-11 40521.2)
(416030 -35671.1 -4.46965e-11 -4198.87 -4.23329e-11 41899.4)
(428224 -31740 -4.19344e-11 -3838.57 -3.97052e-11 43166.7)
(439188 -28162.8 -3.94318e-11 -3559.51 -3.73133e-11 44303.2)
(449096 -24860.2 -3.71248e-11 -3292.34 -3.51057e-11 45332.3)
(457953 -21818.2 -3.50105e-11 -3083.04 -3.30716e-11 46250.8)
(465852 -18981.6 -3.30502e-11 -2907.72 -3.11749e-11 47070.6)
(472825 -16318.6 -3.12242e-11 -2778.17 -2.93939e-11 47794.1)
(478928 -13786.7 -2.95037e-11 -2682.39 -2.77009e-11 48428.1)
(484195 -11356.8 -2.78682e-11 -2613.05 -2.60762e-11 48977.1)
(488653 -9005.68 -2.63e-11 -2553.05 -2.45052e-11 49445.2)
(492350 -6734.11 -2.47925e-11 -2464.59 -2.29887e-11 49839.9)
(495278 -4567.44 -2.33543e-11 -2300.96 -2.1545e-11 50163.9)
(497540 -2602.03 -2.20225e-11 -1932.69 -2.0241e-11 50436)
(499023 -968.844 -2.08538e-11 -1196.49 -1.9168e-11 50656.3)
(500000 -116.637 -2.00501e-11 361.305 -1.86354e-11 50881.4)
(374794 -87794.8 -8.02071e-11 -17479 -7.68061e-11 36251)
(386415 -79649.1 -7.48387e-11 -17181.8 -7.137e-11 37504.5)
(399041 -72310.5 -6.9764e-11 -15717.6 -6.64973e-11 38937.3)
(409929 -65475.7 -6.51173e-11 -14734.2 -6.19518e-11 40157.1)
(420619 -58954.4 -6.06019e-11 -13330.8 -5.7625e-11 41386.2)
(430229 -53013.8 -5.6519e-11 -12225.3 -5.36795e-11 42480)
(439316 -47448.8 -5.26727e-11 -11062.2 -4.99867e-11 43522.7)
(447571 -42350.9 -4.91662e-11 -10094.6 -4.66016e-11 44463.7)
(455213 -37611.6 -4.5909e-11 -9206.85 -4.34541e-11 45334.3)
(462150 -33228.4 -4.29135e-11 -8476.48 -4.05413e-11 46119.7)
(468473 -29133 -4.01297e-11 -7864.94 -3.78183e-11 46832.6)
(474170 -25291.3 -3.7539e-11 -7386.77 -3.52623e-11 47471)
(479289 -21653.4 -3.5105e-11 -7018.4 -3.28402e-11 48042)
(483848 -18184.6 -3.28021e-11 -6740.82 -3.0529e-11 48549.2)
(487867 -14854.5 -3.06054e-11 -6512.94 -2.83103e-11 48998.1)
(491384 -11652.2 -2.84941e-11 -6259.47 -2.61777e-11 49398.3)
(494368 -8586.72 -2.64584e-11 -5873.05 -2.41405e-11 49755)
(496892 -5707.5 -2.44908e-11 -5134.08 -2.2236e-11 50091.5)
(498713 -3092.75 -2.25956e-11 -3732.81 -2.05242e-11 50407)
(500079 -874.629 -2.0762e-11 -1126.72 -1.91053e-11 50766.2)
(420402 -106650 -9.28981e-11 -29046.4 -8.90339e-11 39621.8)
(424809 -97347.1 -8.69902e-11 -28951.5 -8.28324e-11 40165.5)
(432059 -88741.4 -8.1111e-11 -26716.5 -7.7141e-11 41144.7)
(437544 -80867.7 -7.58623e-11 -25329.9 -7.19201e-11 41877.4)
(443826 -73199.5 -7.05992e-11 -23160.1 -6.68534e-11 42746)
(449347 -66212.1 -6.58463e-11 -21427.2 -6.2231e-11 43499)
(454993 -59586.5 -6.12963e-11 -19565.7 -5.78526e-11 44269.9)
(460192 -53485.6 -5.71269e-11 -17979 -5.38179e-11 44970)
(465240 -47773.7 -5.32214e-11 -16503.2 -5.00399e-11 45642.5)
(469939 -42467.9 -4.96134e-11 -15256 -4.65277e-11 46258.5)
(474383 -37495.6 -4.62474e-11 -14188.3 -4.32338e-11 46832.1)
(478512 -32826.6 -4.31103e-11 -13322.6 -4.01378e-11 47355.8)
(482355 -28408.5 -4.01625e-11 -12628.6 -3.72049e-11 47835.6)
(485905 -24202.7 -3.73775e-11 -12079.9 -3.4411e-11 48272.9)
(489158 -20171.2 -3.47219e-11 -11621.6 -3.17313e-11 48672.3)
(492131 -16285.6 -3.21614e-11 -11159.2 -2.9149e-11 49042.8)
(494751 -12526.8 -2.96667e-11 -10562.1 -2.66551e-11 49387.8)
(497071 -8870.04 -2.71802e-11 -9587.53 -2.42385e-11 49731.2)
(498757 -5339.06 -2.46738e-11 -7920.58 -2.19228e-11 50064.3)
(500114 -1685.54 -2.18964e-11 -5015.25 -1.95547e-11 50461.6)
(469176 -116197 -1.00061e-10 -42727.3 -9.50069e-11 43245.1)
(466113 -106881 -9.43392e-11 -42881.5 -8.88011e-11 43037.3)
(468120 -97777.7 -8.80888e-11 -39601.7 -8.28099e-11 43588.2)
(468112 -89741 -8.27778e-11 -37757.4 -7.74988e-11 43819.4)
(469998 -81675.4 -7.72098e-11 -34678 -7.21947e-11 44331.5)
(471347 -74356.1 -7.22144e-11 -32190.8 -6.73746e-11 44737)
(473470 -67312.5 -6.73405e-11 -29493.3 -6.2742e-11 45231.5)
(475491 -60789.6 -6.285e-11 -27144.4 -5.84483e-11 45683.4)
(477806 -54630.4 -5.86043e-11 -24943.4 -5.4393e-11 46148.7)
(480110 -48875.4 -5.46612e-11 -23047.3 -5.06002e-11 46584.8)
(482498 -43456.8 -5.09662e-11 -21404.7 -4.70251e-11 47006.1)
(484864 -38351.7 -4.75133e-11 -20047.1 -4.36525e-11 47399.6)
(487217 -33511.1 -4.42668e-11 -18943 -4.04501e-11 47769.5)
(489521 -28893 -4.11971e-11 -18065.4 -3.73905e-11 48114.6)
(491751 -24451.4 -3.82653e-11 -17353.9 -3.44451e-11 48437.7)
(493897 -20133 -3.54241e-11 -16712.2 -3.158e-11 48745.9)
(495864 -15891 -3.26236e-11 -16007.3 -2.87676e-11 49040.5)
(497681 -11617.6 -2.97595e-11 -15010.7 -2.59414e-11 49343.2)
(498998 -7306.88 -2.67904e-11 -13447.7 -2.3104e-11 49640.8)
(500123 -2391.55 -2.32785e-11 -10834.2 -1.98889e-11 50007.1)
(520341 -117042 -1.0154e-10 -55130.3 -9.52087e-11 47298.3)
(509504 -108932 -9.68552e-11 -56058.8 -8.97985e-11 46255.3)
(506392 -100069 -9.07113e-11 -51855.2 -8.39965e-11 46372.8)
(500802 -92649.8 -8.58662e-11 -49795.9 -7.91097e-11 46066.2)
(498304 -84840.2 -8.04347e-11 -46015.4 -7.39986e-11 46199.5)
(495436 -77782.8 -7.55923e-11 -42928.9 -6.93727e-11 46234.7)
(493974 -70870.7 -7.07642e-11 -39546.5 -6.4849e-11 46428.9)
(492741 -64415.6 -6.62754e-11 -36531.1 -6.06206e-11 46612.2)
(492215 -58261.6 -6.19858e-11 -33677.1 -5.6588e-11 46849.1)
(492001 -52463.3 -5.79674e-11 -31165.5 -5.27842e-11 47086.3)
(492189 -46968.3 -5.41791e-11 -28958.8 -4.91745e-11 47335.9)
(492631 -41760.3 -5.06212e-11 -27101 -4.57476e-11 47580.5)
(493318 -36798.2 -4.72639e-11 -25571.1 -4.24765e-11 47821.2)
(494185 -32039.1 -4.40807e-11 -24352.7 -3.9333e-11 48053.2)
(495190 -27432 -4.10318e-11 -23397.2 -3.62847e-11 48276.8)
(496295 -22902.9 -3.80586e-11 -22624.3 -3.32839e-11 48495.4)
(497405 -18382.5 -3.51035e-11 -21924.3 -3.0287e-11 48708.7)
(498515 -13692.8 -3.20251e-11 -21118.9 -2.71798e-11 48932)
(499337 -8814.84 -2.87842e-11 -19998 -2.39551e-11 49153.5)
(500098 -2933.99 -2.48086e-11 -18192.3 -2.00782e-11 49432.8)
(571470 -109187 -9.72399e-11 -65349.8 -8.96652e-11 51613.6)
(552893 -103549 -9.4494e-11 -67743.1 -8.58789e-11 49671.4)
(545025 -95710.6 -8.90117e-11 -63072.9 -8.07769e-11 49346.9)
(534044 -89678.2 -8.51489e-11 -61053.8 -7.68204e-11 48493.1)
(527316 -82837.3 -8.03416e-11 -56856.2 -7.23703e-11 48232.8)
(520387 -76611.9 -7.60189e-11 -53255.3 -6.83166e-11 47900.2)
(515401 -70367.1 -7.15849e-11 -49288.8 -6.42558e-11 47786.3)
(510982 -64422.4 -6.73773e-11 -45639.9 -6.03866e-11 47700.3)
(507621 -58675.9 -6.33002e-11 -42165.1 -5.66442e-11 47702.3)
(504882 -53186.3 -5.94293e-11 -39054.1 -5.30635e-11 47734.5)
(502821 -47934.1 -5.57499e-11 -36299 -4.96314e-11 47803.2)
(501272 -42912.6 -5.22703e-11 -33954.3 -4.6343e-11 47887.9)
(500198 -38095.3 -4.89747e-11 -32017.4 -4.31803e-11 47985.5)
(499515 -33440.9 -4.58378e-11 -30486.7 -4.01162e-11 48088.4)
(499167 -28898.8 -4.28252e-11 -29331.7 -3.71177e-11 48194)
(499095 -24379.6 -3.98737e-11 -28502.3 -3.41263e-11 48301.4)
(499219 -19799.1 -3.69206e-11 -27923.8 -3.10879e-11 48409.3)
(499492 -14928.2 -3.38066e-11 -27488.2 -2.78526e-11 48524.2)
(499749 -9747.37 -3.05004e-11 -27058.8 -2.44107e-11 48640.4)
(500051 -3274.9 -2.63549e-11 -26427.8 -2.01129e-11 48791.1)
(620271 -93189.9 -8.73029e-11 -71821.3 -7.87883e-11 56080)
(594688 -91273.2 -8.73281e-11 -76101.9 -7.74468e-11 53264)
(582506 -85316 -8.31531e-11 -71712 -7.35974e-11 52473.9)
(566672 -81168.9 -8.06114e-11 -69968 -7.08974e-11 51102.1)
(555914 -75920.5 -7.69182e-11 -66003.7 -6.75085e-11 50411)
(545285 -70982 -7.34526e-11 -62268.4 -6.43203e-11 49711.4)
(536906 -65898.3 -6.97835e-11 -58119.8 -6.10421e-11 49265.8)
(529464 -60892.8 -6.61664e-11 -54113.2 -5.78112e-11 48900.4)
(523333 -55952.7 -6.25815e-11 -50218.9 -5.46197e-11 48654.1)
(518119 -51126.9 -5.90975e-11 -46628 -5.14958e-11 48473.1)
(513821 -46432.4 -5.57336e-11 -43385.9 -4.845e-11 48353.6)
(510272 -41876 -5.25095e-11 -40573.6 -4.5485e-11 48273)
(507409 -37450.1 -4.94275e-11 -38223.7 -4.25952e-11 48222.5)
(505131 -33124.3 -4.64765e-11 -36366 -3.97599e-11 48190.5)
(503376 -28854.1 -4.36284e-11 -35003.6 -3.69493e-11 48171)
(502062 -24546.1 -4.08279e-11 -34132 -3.41015e-11 48157.5)
(501140 -20112.6 -3.80152e-11 -33721.9 -3.11585e-11 48148.3)
(500514 -15296.1 -3.50295e-11 -33755.4 -2.79498e-11 48138.3)
(500182 -10084.8 -3.18525e-11 -34166.8 -2.44686e-11 48132.6)
(499982 -3405.99 -2.78171e-11 -34946.6 -2.00009e-11 48127.9)
(664096 -71125.7 -6.79135e-11 -72986.7 -6.09878e-11 58807.6)
(632746 -73417.8 -7.43684e-11 -79698 -6.44203e-11 56349.4)
(616922 -70406.6 -7.41123e-11 -77694.1 -6.34766e-11 55555.4)
(597314 -68488.9 -7.31114e-11 -76397.8 -6.22566e-11 53754.1)
(582823 -65448.5 -7.09754e-11 -73073.3 -6.03287e-11 52623)
(569087 -62068.9 -6.85428e-11 -69314.9 -5.81842e-11 51603.1)
(557630 -58390.1 -6.58013e-11 -65093.9 -5.58479e-11 50845.7)
(547491 -54515 -6.29077e-11 -60853.2 -5.33797e-11 50221)
(538819 -50551.4 -5.99386e-11 -56678.6 -5.08485e-11 49736.2)
(531305 -46561.3 -5.69715e-11 -52766.8 -4.82921e-11 49345)
(524887 -42596.6 -5.40541e-11 -49197.7 -4.57432e-11 49034.6)
(519408 -38682.9 -5.122e-11 -46072.3 -4.32164e-11 48781.6)
(514786 -34827.9 -4.84858e-11 -43448.8 -4.07158e-11 48573.4)
(510916 -31013.3 -4.58528e-11 -41386.4 -3.8228e-11 48395.3)
(507735 -27201.8 -4.3304e-11 -39922.3 -3.57273e-11 48238.7)
(505148 -23304.8 -4.07941e-11 -39100.4 -3.31539e-11 48091.9)
(503149 -19235.6 -3.82717e-11 -38943.8 -3.04494e-11 47953.6)
(501587 -14732.6 -3.55899e-11 -39527.7 -2.74377e-11 47806)
(500651 -9789.46 -3.27426e-11 -40862.6 -2.41146e-11 47667)
(499915 -3317.12 -2.90924e-11 -43158.2 -1.97498e-11 47490.9)
(700466 -43131.7 -4.48806e-11 -70549.5 -3.96281e-11 61317.9)
(668847 -48370.8 -5.31741e-11 -75768.4 -4.52047e-11 58998.5)
(648588 -49586.4 -5.71571e-11 -78237.8 -4.7461e-11 57654.8)
(627313 -49954.7 -6.07524e-11 -78798.8 -4.94619e-11 56518.6)
(609068 -49771.3 -6.13748e-11 -77515.2 -4.97439e-11 55030.4)
(592503 -48746.2 -6.065e-11 -74874.5 -4.91456e-11 53620.8)
(578000 -47120.3 -5.93597e-11 -71319.1 -4.81657e-11 52490.5)
(565150 -44996.6 -5.76529e-11 -67317.1 -4.68625e-11 51562.1)
(553943 -42495.1 -5.56395e-11 -63091.1 -4.53103e-11 50816.3)
(544144 -39737.3 -5.34474e-11 -58926.6 -4.35838e-11 50206.7)
(535650 -36809.9 -5.116e-11 -54991.3 -4.17373e-11 49709.3)
(528296 -33781.2 -4.88496e-11 -51451.3 -3.98125e-11 49294.4)
(521980 -30690.8 -4.65627e-11 -48422.5 -3.78334e-11 48942.7)
(516576 -27548.7 -4.43245e-11 -46014.7 -3.58038e-11 48633.2)
(512018 -24339.8 -4.21413e-11 -44313.2 -3.37119e-11 48353.1)
(508189 -20994.2 -3.99896e-11 -43422.9 -3.1509e-11 48083.6)
(505126 -17439.7 -3.78362e-11 -43424 -2.91453e-11 47823.1)
(502628 -13433.9 -3.55622e-11 -44494.9 -2.64547e-11 47540.7)
(501082 -8980.82 -3.31781e-11 -46725.4 -2.3438e-11 47267.6)
(499819 -3043.3 -3.01185e-11 -50541.2 -1.93947e-11 46916.8)
(721483 -20043.2 -2.72282e-11 -62988.3 -2.34158e-11 63658.3)
(692321 -22706.3 -3.35496e-11 -68474 -2.70468e-11 61462.2)
(669092 -27992.1 -4.05497e-11 -73901.3 -3.19122e-11 59532.6)
(646958 -30415.8 -4.55716e-11 -76270 -3.51398e-11 58092)
(627463 -32095.5 -4.96894e-11 -76460.1 -3.78986e-11 57074.3)
(609352 -32967.4 -5.04839e-11 -75015.4 -3.86066e-11 55438.8)
(593353 -33066.1 -5.04435e-11 -72345.5 -3.87571e-11 54074.4)
(578882 -32568.5 -4.98958e-11 -69034.4 -3.85232e-11 52915.7)
(566071 -31550.9 -4.89213e-11 -65303.4 -3.79501e-11 51957.9)
(554684 -30139 -4.76547e-11 -61465.8 -3.71151e-11 51152.5)
(544664 -28422.2 -4.61851e-11 -57727.4 -3.60726e-11 50476.7)
(535859 -26480.7 -4.46004e-11 -54290.8 -3.48719e-11 49899.4)
(528183 -24368.3 -4.29585e-11 -51310.5 -3.35449e-11 49399.6)
(521514 -22113.3 -4.13059e-11 -48938 -3.21072e-11 48953.5)
(515803 -19718.6 -3.9665e-11 -47302.1 -3.05579e-11 48546.1)
(510923 -17141.1 -3.80383e-11 -46560.2 -2.8865e-11 48153.7)
(506958 -14330.3 -3.64134e-11 -46848.5 -2.6991e-11 47774.2)
(503658 -11097.9 -3.47209e-11 -48426.8 -2.48052e-11 47365.6)
(501565 -7460.29 -3.29862e-11 -51461.3 -2.23136e-11 46967.8)
(499793 -2519.84 -3.07681e-11 -56567.5 -1.89051e-11 46456.8)
(711293 2993.65 -1.4522e-11 -54278.8 -1.00409e-11 64593.4)
(688088 -167.419 -2.02911e-11 -65870.1 -1.27926e-11 61898.4)
(666711 -6666.49 -2.77499e-11 -71563 -1.82719e-11 60010)
(646416 -10888.8 -3.36019e-11 -74831.2 -2.24291e-11 58520)
(628313 -14185.3 -3.84555e-11 -75493.8 -2.60558e-11 57471.6)
(611290 -16630.5 -4.01699e-11 -74491.8 -2.7732e-11 55852.2)
(596017 -18234.2 -4.11315e-11 -72305.8 -2.88728e-11 54504.8)
(581978 -19144.8 -4.1522e-11 -69420.6 -2.95664e-11 53340)
(569344 -19474.5 -4.14442e-11 -66060.9 -2.98822e-11 52356)
(557931 -19327.7 -4.10178e-11 -62536.6 -2.98827e-11 51509.6)
(547729 -18796.5 -4.03336e-11 -59057.9 -2.96243e-11 50782.8)
(538627 -17958.2 -3.94778e-11 -55837.8 -2.91539e-11 50147.4)
(530576 -16870.8 -3.85137e-11 -53045.5 -2.85059e-11 49584.8)
(523483 -15571.7 -3.74947e-11 -50851.4 -2.77015e-11 49072.7)
(517328 -14074.7 -3.64541e-11 -49406 -2.67465e-11 48597.1)
(512006 -12364.8 -3.5415e-11 -48896.7 -2.56265e-11 48133.8)
(507637 -10406.7 -3.43797e-11 -49491.1 -2.43143e-11 47681.6)
(503973 -8083.45 -3.33304e-11 -51492.3 -2.27247e-11 47194.5)
(501660 -5434.75 -3.23142e-11 -55125.8 -2.08782e-11 46718)
(499699 -1812.36 -3.10569e-11 -61063.9 -1.83287e-11 46109.7)
(703575 26109 -1.35786e-12 -44074.7 3.42607e-12 65845.4)
(682117 21006.1 -8.07277e-12 -57571.9 -2.42552e-13 62964.6)
(663915 13279.3 -1.58044e-11 -64579.9 -6.11165e-12 61047.5)
(645183 7609.62 -2.23213e-11 -69306.4 -1.09264e-11 59427)
(628368 2903.44 -2.71011e-11 -71203.4 -1.4771e-11 57998.4)
(612252 -875.698 -2.98078e-11 -71305.4 -1.73088e-11 56368.1)
(597551 -3770.96 -3.17124e-11 -70040.6 -1.92878e-11 54991.5)
(583876 -5939.9 -3.3005e-11 -67927.6 -2.0801e-11 53788.9)
(571423 -7484.21 -3.37837e-11 -65199 -2.19113e-11 52760.5)
(560048 -8500.26 -3.41648e-11 -62189.3 -2.26742e-11 51865.3)
(549773 -9072.36 -3.4237e-11 -59122.1 -2.31416e-11 51087.2)
(540511 -9274.96 -3.40868e-11 -56232.7 -2.33569e-11 50399.1)
(532238 -9168.32 -3.3783e-11 -53710.9 -2.33563e-11 49783)
(524882 -8798.27 -3.33863e-11 -51749.9 -2.31659e-11 49216.7)
(518439 -8191.29 -3.29429e-11 -50527.8 -2.2799e-11 48685.8)
(512832 -7359.53 -3.24955e-11 -50252.3 -2.22592e-11 48166.5)
(508191 -6285.89 -3.20645e-11 -51137 -2.15296e-11 47655.4)
(504286 -4942.43 -3.16852e-11 -53473.6 -2.05851e-11 47108.1)
(501834 -3350 -3.13976e-11 -57518.6 -1.94331e-11 46574.4)
(499678 -1095 -3.10966e-11 -64071 -1.77805e-11 45884.5)
(689608 44211.6 7.7101e-12 -35338.9 1.32093e-11 66527.9)
(670948 38933 1.30817e-12 -50382.4 9.84089e-12 63584.3)
(655753 30825.7 -6.19465e-12 -58299.2 4.08155e-12 61694.2)
(639037 24450.6 -1.2275e-11 -63993.2 -5.69362e-13 59840.5)
(623925 18790.7 -1.65567e-11 -66709.5 -4.29762e-12 58086.5)
(609141 14022.1 -1.99875e-11 -67646.6 -7.47318e-12 56511.4)
(595473 10090.7 -2.26345e-11 -67105.6 -1.01242e-11 55168.8)
(582601 6863.93 -2.46725e-11 -65623.3 -1.23266e-11 53984.5)
(570747 4271.36 -2.6182e-11 -63447.4 -1.41211e-11 52960.6)
(559801 2227.23 -2.72732e-11 -60917.4 -1.55573e-11 52059)
(549814 659.531 -2.80276e-11 -58263.3 -1.66779e-11 51266.4)
(540727 -501.78 -2.8529e-11 -55727.6 -1.75234e-11 50557.4)
(532539 -1315.37 -2.8846e-11 -53508.2 -1.81289e-11 49916.1)
(525201 -1836.15 -2.90479e-11 -51811.9 -1.85255e-11 49321.3)
(518728 -2097.68 -2.91841e-11 -50822.8 -1.87318e-11 48759.7)
(513067 -2151.94 -2.93273e-11 -50775.3 -1.8777e-11 48207.7)
(508346 -1968.59 -2.9487e-11 -51868.2 -1.8636e-11 47662.8)
(504404 -1660.82 -2.97905e-11 -54428.6 -1.83763e-11 47083)
(501908 -1107.29 -3.02093e-11 -58828.2 -1.79082e-11 46506.1)
(499662 -300.388 -3.08614e-11 -65676.7 -1.72135e-11 45768.3)
(671331 59176.9 1.60725e-11 -26788.1 2.17409e-11 66256.7)
(655491 53852.9 9.89128e-12 -42443.6 1.85382e-11 63440.2)
(643440 45779.3 3.24375e-12 -50866.7 1.33397e-11 61520.6)
(628968 39087.6 -2.28357e-12 -57383.5 9.01358e-12 59525.5)
(615993 32917.7 -6.97748e-12 -60953.9 4.96851e-12 57909.6)
(602789 27491.3 -1.0928e-11 -62764.8 1.37732e-12 56415)
(590499 22799.5 -1.41434e-11 -62987.1 -1.76034e-12 55140.3)
(578716 18753 -1.67822e-11 -62192.2 -4.49143e-12 54000.7)
(567760 15312.8 -1.88994e-11 -60622 -6.83526e-12 53008.7)
(557530 12409.1 -2.0598e-11 -58623.2 -8.83053e-12 52126.9)
(548113 9985.57 -2.19488e-11 -56428.1 -1.05098e-11 51345.2)
(539473 7980.47 -2.30304e-11 -54285.8 -1.19076e-11 50640.4)