/*--------------------------------*- C++ -*----------------------------------*\
  =========                 |
  \\      /  F ield         | OpenFOAM: The Open Source CFD Toolbox
   \\    /   O peration     | Website:  https://openfoam.org
    \\  /    A nd           | Version:  9
     \\/     M anipulation  |
\*---------------------------------------------------------------------------*/
FoamFile
{
    format      ascii;
    class       volScalarField;
    location    "5";
    object      sigmaEq;
}
// * * * * * * * * * * * * * * * * * * * * * * * * * * * * * * * * * * * * * //

dimensions      [1 -1 -2 0 0 0 0];

internalField   nonuniform List<scalar> 
1000
(
865638
817258
803254
802034
797910
791706
783262
772556
761687
748207
1.01115e+06
916102
871765
850728
834123
819115
803929
788287
772111
756492
1.15337e+06
1.01191e+06
935502
893217
862338
836985
814048
792424
771131
751997
1.29052e+06
1.1035e+06
995126
929951
883122
846225
814685
786634
760326
737868
1.41643e+06
1.18864e+06
1.04904e+06
960108
896225
846873
806260
771679
740365
713799
1.53036e+06
1.26697e+06
1.097e+06
983789
902045
839763
789917
748306
711775
681648
1.62551e+06
1.33384e+06
1.13465e+06
997841
898998
824441
765661
717865
677832
644877
1.71464e+06
1.38954e+06
1.15992e+06
1.00155e+06
887572
802837
737542
685944
643665
608582
1.77695e+06
1.41081e+06
1.15281e+06
981235
861808
773876
707442
654960
612348
576331
1.85681e+06
1.38261e+06
1.11743e+06
950646
838464
754469
690588
639113
596969
560446
4721.23
5342.41
26715
58480.9
94128.2
131351
167719
202545
234547
264357
6243.38
39526
86220.6
132295
173725
210788
243362
272694
297890
321851
30800.5
95826
155346
208507
253246
290601
321241
347221
367664
387406
75160.7
165732
232946
288774
333535
369465
397628
420466
436909
453243
139922
245499
316555
372225
414505
447193
471755
490825
503205
516096
225059
331951
402233
455426
493634
521914
542058
556817
565023
574267
328689
423525
487764
536024
568788
591764
606966
617036
621008
626297
448214
518998
571454
612000
638083
655189
665124
670136
670014
670939
580107
617290
652429
682370
700402
710604
714398
714104
709967
706858
720636
717251
729906
745996
753745
755628
753244
747589
740654
732299
291112
314294
335776
355173
372728
388503
402669
415316
426580
436541
445295
452899
459407
464853
469251
472629
474972
476375
476809
476585
340238
354020
367926
380731
392792
403934
414247
423680
432293
440081
447087
453324
458820
463590
467641
470991
473597
475478
476417
476392
398513
403537
409914
415816
421887
427768
433578
439143
444494
449542
454292
458703
462771
466478
469799
472712
475110
476921
477712
477382
458234
455788
455601
455280
455759
456542
457864
459447
461354
463424
465651
467945
470274
472582
474808
476887
478657
480004
480407
479811
515686
506948
501145
495431
490998
487154
484319
482106
480649
479736
479366
479418
479844
480558
481472
482492
483431
484155
484161
483434
569043
555033
544513
534152
525534
517624
511111
505454
500881
497137
494240
492053
490522
489549
489038
488880
488901
488966
488683
488031
616847
598558
584415
570155
558119
546698
536969
528239
520828
514468
509191
504862
501427
498784
496844
495499
494614
494062
493622
493223
657939
636325
619689
602209
587559
573360
560997
549711
539834
531147
523685
517344
512082
507813
504469
501956
500204
499098
498628
498644
691877
667331
650047
630249
613519
597111
582458
569003
556990
546287
536910
528787
521885
516137
511507
507921
505390
503811
503410
503934
718166
692303
674795
654860
636704
619094
602672
587396
573445
560826
549585
539697
531157
523923
517992
513318
509992
507938
507622
508709
730267
705964
687789
668366
649947
631948
615028
599029
584238
570666
558413
547493
537936
529739
522941
517531
513681
511330
511135
512690
713619
698889
682170
664949
648109
631449
615616
600436
586223
573014
560950
550077
540466
532149
525209
519674
515773
513478
513581
515608
700661
688355
674906
659745
644773
629509
614722
600361
586749
573965
562174
551453
541901
533582
526610
521051
517174
514962
515286
517609
684062
675015
664408
651400
638296
624514
610942
597586
584793
572664
561385
551055
541795
533692
526878
521459
517686
515635
516197
518675
664512
658122
650345
639601
628627
616533
604453
592326
580582
569327
558776
549044
540269
532564
526049
520906
517226
515568
515384
518802
642981
639147
633929
625435
616498
606191
595697
584944
574403
564189
554541
545584
537476
530328
524303
519503
516238
514559
515215
517582
620362
618722
615709
609321
602351
593859
585006
575722
566499
557458
548854
540819
533518
527068
521629
517300
514369
512816
513412
515612
597109
597335
596260
591816
586678
579941
572718
564945
557108
549336
541884
534888
528515
522877
518128
514348
511793
510448
510956
512822
573481
575264
575858
573178
569740
564692
559074
552831
546428
539995
533782
527921
522576
517849
513880
510731
508610
507481
507879
509353
549598
552675
554716
553635
551772
548340
544292
539581
534644
529602
524694
520048
515813
512083
508973
506531
504903
504041
504323
505358
525457
529616
532915
533295
532910
531035
528533
525361
521916
518313
514768
511402
508348
505687
503510
501844
500772
500228
500419
501022
500962
506053
510478
512224
513255
512907
511947
510331
508413
506293
504167
502138
500324
498792
497608
496781
496331
496169
496327
496542
475933
481877
487357
490432
492870
494059
494669
494653
494313
493732
493078
492440
491915
491561
491418
491480
491711
492001
492208
492116
450149
456954
463495
467935
471828
474617
476869
478524
479834
480860
481738
482540
483346
484200
485127
486108
487067
487872
488227
487939
423332
431107
438812
444738
450214
454730
458745
462186
465248
467965
470444
472736
474903
476980
478981
480883
482586
483945
484551
484203
395276
404260
413336
420968
428230
434664
440612
445985
450921
455427
459577
463401
466947
470238
473285
476069
478488
480400
481339
481070
365736
376327
387125
396804
406154
414769
422875
430366
437323
443730
449626
455023
459951
464426
468456
472032
475074
477460
478763
478698
334923
347684
360677
372823
384615
395700
406193
415977
425084
433475
441164
448149
454439
460042
464961
469196
472700
475396
476975
477153
303082
318812
334649
349791
364443
378311
391425
403663
415026
425467
434982
443555
451182
457854
463556
468281
471992
474680
476209
476515
272253
291732
310971
329460
347219
363995
379781
394463
408035
420451
431709
441787
450669
458325
464711
469787
473477
475810
476741
476666
529634
545345
576502
612295
649514
682807
709453
726429
734664
732368
501353
516380
545730
580212
617583
652754
683324
706281
719887
721735
475848
490324
517822
550169
585834
620196
651307
677022
696573
706725
452438
466639
492806
523535
557937
591729
622995
649725
670951
686560
430438
444417
469345
498370
531153
563870
594823
622468
644815
663987
409708
423599
447595
475214
506521
538045
568135
595857
618319
639626
389836
403672
426868
453205
483090
513409
542550
570122
592440
614709
370709
384525
407073
432297
460860
489937
517961
545006
566982
589560
352126
365915
387894
412113
439451
467322
494230
520550
542064
564466
334012
347740
369194
392475
418647
445309
471084
496523
517516
539478
316298
329895
350805
373156
398186
423635
448283
472741
493163
514526
298996
312343
332617
353972
377820
402011
425513
448926
468748
489437
282194
295093
314521
334710
357255
380106
402427
424750
443957
463955
266083
278203
296418
315151
336181
357560
378638
399843
418440
437775
251088
261829
278145
294924
314105
333842
353618
373714
391755
410521
237815
246045
259432
273619
290542
308448
326878
345917
363518
381869
227537
231050
239567
250163
264364
280342
297524
315719
333155
351404
221121
215792
217378
223628
234863
248973
265176
282892
300596
319179
221815
198410
189235
190353
199157
212247
228397
246559
265400
285123
220458
168376
152636
149515
157526
170893
188310
208178
229299
251190
)
;

boundaryField
{
    left
    {
        type            calculated;
        value           nonuniform List<scalar> 
30
(
525766
497399
471825
448327
426268
405500
385627
366546
348066
330125
312673
295738
279430
263975
249847
237857
229729
228270
242228
276821
1.96178e+06
1.34516e+06
1.08417e+06
931309
828761
748765
686821
635916
593887
556959
)
;
    }
    right
    {
        type            calculated;
        value           nonuniform List<scalar> 
30
(
476483
476393
477334
479744
483362
487976
493201
498671
504010
508853
512853
515833
517843
518910
518853
517759
515793
512965
509452
505410
501030
496509
492050
487854
484112
480988
478643
477132
476528
476557
)
;
    }
    down
    {
        type            calculated;
        value           nonuniform List<scalar> 
30
(
3510.03
1662.73
19207.5
50231.9
86380
124457
161784
197495
230296
260730
288155
312067
334069
353852
371714
387718
402067
414854
426231
436281
445104
452764
459315
464793
469214
472607
474958
476364
476805
476632
)
;
    }
    up
    {
        type            calculated;
        value           nonuniform List<scalar> 
30
(
213281
166611
152160
149071
156950
170173
187495
207317
228421
250334
271433
291002
310344
328922
346769
363622
379479
394223
407849
420314
431612
441724
450634
458312
464713
469796
473486
475815
476738
476692
)
;
    }
    hole
    {
        type            calculated;
        value           nonuniform List<scalar> 
20
(
862038
1.0117e+06
1.15737e+06
1.297e+06
1.42567e+06
1.54133e+06
1.63741e+06
1.72748e+06
1.79062e+06
1.86219e+06
2101.27
2560.92
14268.8
53411.6
115939
201575
307593
430845
567205
712458
)
;
    }
    frontAndBack
    {
        type            empty;
    }
}


// ************************************************************************* //
