/*--------------------------------*- C++ -*----------------------------------*\
  =========                 |
  \\      /  F ield         | OpenFOAM: The Open Source CFD Toolbox
   \\    /   O peration     | Website:  https://openfoam.org
    \\  /    A nd           | Version:  9
     \\/     M anipulation  |
\*---------------------------------------------------------------------------*/
FoamFile
{
    format      ascii;
    class       volVectorField;
    location    "1";
    object      D;
}
// * * * * * * * * * * * * * * * * * * * * * * * * * * * * * * * * * * * * * //

dimensions      [0 1 0 0 0 0 0];

internalField   nonuniform List<vector> 
1000
(
(6.76094e-07 2.26579e-07 0)
(6.30878e-07 2.50333e-07 0)
(5.97988e-07 2.70338e-07 0)
(5.74224e-07 2.85977e-07 0)
(5.57268e-07 2.99485e-07 0)
(5.45308e-07 3.11111e-07 0)
(5.37213e-07 3.21593e-07 0)
(5.32075e-07 3.31141e-07 0)
(5.29181e-07 3.40054e-07 0)
(5.28165e-07 3.48505e-07 0)
(6.09265e-07 2.04271e-07 0)
(5.62316e-07 2.21535e-07 0)
(5.28394e-07 2.36689e-07 0)
(5.03991e-07 2.48394e-07 0)
(4.86604e-07 2.58683e-07 0)
(4.74296e-07 2.67534e-07 0)
(4.65865e-07 2.75568e-07 0)
(4.6035e-07 2.82918e-07 0)
(4.57017e-07 2.8974e-07 0)
(4.55372e-07 2.96397e-07 0)
(5.41012e-07 1.8192e-07 0)
(4.93636e-07 1.92267e-07 0)
(4.59609e-07 2.02368e-07 0)
(4.35261e-07 2.1009e-07 0)
(4.1797e-07 2.17214e-07 0)
(4.0573e-07 2.23405e-07 0)
(3.97289e-07 2.29149e-07 0)
(3.91666e-07 2.3447e-07 0)
(3.88121e-07 2.39401e-07 0)
(3.86136e-07 2.44342e-07 0)
(4.71681e-07 1.59884e-07 0)
(4.25243e-07 1.63164e-07 0)
(3.92102e-07 1.68195e-07 0)
(3.68556e-07 1.72017e-07 0)
(3.51935e-07 1.76126e-07 0)
(3.40208e-07 1.79846e-07 0)
(3.32117e-07 1.83513e-07 0)
(3.26673e-07 1.87018e-07 0)
(3.2318e-07 1.90292e-07 0)
(3.2107e-07 1.93699e-07 0)
(4.01446e-07 1.38495e-07 0)
(3.57354e-07 1.34844e-07 0)
(3.26137e-07 1.35005e-07 0)
(3.04196e-07 1.35179e-07 0)
(2.88855e-07 1.36566e-07 0)
(2.78112e-07 1.38116e-07 0)
(2.70731e-07 1.40012e-07 0)
(2.65747e-07 1.41989e-07 0)
(2.62525e-07 1.43896e-07 0)
(2.6048e-07 1.46005e-07 0)
(3.30607e-07 1.17907e-07 0)
(2.9016e-07 1.07743e-07 0)
(2.61933e-07 1.03507e-07 0)
(2.42432e-07 1.00493e-07 0)
(2.29002e-07 9.96178e-08 0)
(2.1971e-07 9.94278e-08 0)
(2.13383e-07 9.99547e-08 0)
(2.09115e-07 1.00768e-07 0)
(2.06353e-07 1.01656e-07 0)
(2.04527e-07 1.02774e-07 0)
(2.58896e-07 9.81058e-08 0)
(2.23504e-07 8.2154e-08 0)
(1.99416e-07 7.4329e-08 0)
(1.83249e-07 6.88812e-08 0)
(1.72377e-07 6.64115e-08 0)
(1.64985e-07 6.50551e-08 0)
(1.60021e-07 6.47001e-08 0)
(1.56682e-07 6.47691e-08 0)
(1.54523e-07 6.5015e-08 0)
(1.53035e-07 6.54766e-08 0)
(1.86816e-07 7.85295e-08 0)
(1.57656e-07 5.79807e-08 0)
(1.38944e-07 4.79614e-08 0)
(1.26972e-07 4.12439e-08 0)
(1.19199e-07 3.81009e-08 0)
(1.14024e-07 3.63004e-08 0)
(1.10606e-07 3.56199e-08 0)
(1.08309e-07 3.53946e-08 0)
(1.06822e-07 3.53804e-08 0)
(1.05744e-07 3.55286e-08 0)
(1.12757e-07 5.72437e-08 0)
(9.21654e-08 3.45244e-08 0)
(8.0329e-08 2.46749e-08 0)
(7.33021e-08 1.85453e-08 0)
(6.90396e-08 1.59198e-08 0)
(6.62488e-08 1.44729e-08 0)
(6.44461e-08 1.39753e-08 0)
(6.32118e-08 1.38145e-08 0)
(6.23991e-08 1.38121e-08 0)
(6.17586e-08 1.38919e-08 0)
(3.88542e-08 2.99778e-08 0)
(2.93071e-08 1.27062e-08 0)
(2.56661e-08 6.63852e-09 0)
(2.37398e-08 3.58792e-09 0)
(2.26211e-08 2.53892e-09 0)
(2.18392e-08 2.06605e-09 0)
(2.13281e-08 2.00249e-09 0)
(2.09529e-08 2.04507e-09 0)
(2.06963e-08 2.1259e-09 0)
(2.04695e-08 2.215e-09 0)
(1.19239e-06 3.67194e-07 0)
(1.1904e-06 4.13006e-07 0)
(1.18903e-06 4.55688e-07 0)
(1.18906e-06 4.94761e-07 0)
(1.19084e-06 5.30628e-07 0)
(1.1945e-06 5.63734e-07 0)
(1.20006e-06 5.94597e-07 0)
(1.2074e-06 6.23665e-07 0)
(1.21647e-06 6.5129e-07 0)
(1.22702e-06 6.77867e-07 0)
(1.15499e-06 3.64201e-07 0)
(1.14967e-06 4.09882e-07 0)
(1.14605e-06 4.52046e-07 0)
(1.14444e-06 4.90335e-07 0)
(1.14502e-06 5.25242e-07 0)
(1.14768e-06 5.57244e-07 0)
(1.15234e-06 5.86905e-07 0)
(1.15877e-06 6.147e-07 0)
(1.16689e-06 6.40998e-07 0)
(1.17638e-06 6.66246e-07 0)
(1.11532e-06 3.58095e-07 0)
(1.10606e-06 4.03661e-07 0)
(1.09938e-06 4.44969e-07 0)
(1.09535e-06 4.82024e-07 0)
(1.09402e-06 5.15577e-07 0)
(1.09508e-06 5.46169e-07 0)
(1.09833e-06 5.74406e-07 0)
(1.10344e-06 6.0077e-07 0)
(1.11029e-06 6.25642e-07 0)
(1.11845e-06 6.49483e-07 0)
(1.07245e-06 3.49203e-07 0)
(1.05877e-06 3.94553e-07 0)
(1.04852e-06 4.3481e-07 0)
(1.04163e-06 4.70357e-07 0)
(1.03796e-06 5.0228e-07 0)
(1.03703e-06 5.31202e-07 0)
(1.03854e-06 5.57785e-07 0)
(1.04205e-06 5.82513e-07 0)
(1.04741e-06 6.05785e-07 0)
(1.05408e-06 6.28056e-07 0)
(1.02589e-06 3.3761e-07 0)
(1.00735e-06 3.82381e-07 0)
(9.93297e-07 4.21255e-07 0)
(9.83386e-07 4.54945e-07 0)
(9.7724e-07 4.8492e-07 0)
(9.74201e-07 5.11884e-07 0)
(9.73873e-07 5.36566e-07 0)
(9.75708e-07 5.59447e-07 0)
(9.7953e-07 5.80945e-07 0)
(9.84665e-07 6.01486e-07 0)
(9.75573e-07 3.23586e-07 0)
(9.51898e-07 3.67159e-07 0)
(9.33958e-07 4.04249e-07 0)
(9.21032e-07 4.35765e-07 0)
(9.12434e-07 4.63527e-07 0)
(9.07321e-07 4.88299e-07 0)
(9.05182e-07 5.10876e-07 0)
(9.05376e-07 5.31724e-07 0)
(9.07684e-07 5.51291e-07 0)
(9.11335e-07 5.69946e-07 0)
(9.21621e-07 3.07343e-07 0)
(8.92743e-07 3.48888e-07 0)
(8.71e-07 3.83684e-07 0)
(8.55198e-07 4.12676e-07 0)
(8.44301e-07 4.37971e-07 0)
(8.37262e-07 4.60346e-07 0)
(8.33448e-07 4.80648e-07 0)
(8.32129e-07 4.99319e-07 0)
(8.33034e-07 5.16827e-07 0)
(8.35328e-07 5.33479e-07 0)
(8.64319e-07 2.89186e-07 0)
(8.30417e-07 3.2774e-07 0)
(8.05117e-07 3.59676e-07 0)
(7.86687e-07 3.85799e-07 0)
(7.73732e-07 4.08402e-07 0)
(7.64991e-07 4.2822e-07 0)
(7.59701e-07 4.46127e-07 0)
(7.57056e-07 4.62516e-07 0)
(7.56719e-07 4.77879e-07 0)
(7.57836e-07 4.92424e-07 0)
(8.04027e-07 2.69428e-07 0)
(7.65553e-07 3.0398e-07 0)
(7.37106e-07 3.32469e-07 0)
(7.1641e-07 3.55383e-07 0)
(7.01717e-07 3.75095e-07 0)
(6.91558e-07 3.92236e-07 0)
(6.85038e-07 4.07668e-07 0)
(6.81294e-07 4.21734e-07 0)
(6.79894e-07 4.3489e-07 0)
(6.80051e-07 4.473e-07 0)
(7.41148e-07 2.4843e-07 0)
(6.98821e-07 2.78009e-07 0)
(6.67794e-07 3.02497e-07 0)
(6.45286e-07 3.21897e-07 0)
(6.29237e-07 3.38561e-07 0)
(6.17984e-07 3.52952e-07 0)
(6.10513e-07 3.65895e-07 0)
(6.0592e-07 3.77634e-07 0)
(6.03673e-07 3.8862e-07 0)
(6.03149e-07 3.98757e-07 0)
(1.23963e-06 7.03432e-07 0)
(1.25411e-06 7.28804e-07 0)
(1.26971e-06 7.5377e-07 0)
(1.28629e-06 7.7845e-07 0)
(1.30377e-06 8.02966e-07 0)
(1.32205e-06 8.27391e-07 0)
(1.34105e-06 8.5181e-07 0)
(1.3607e-06 8.76276e-07 0)
(1.38092e-06 9.00845e-07 0)
(1.40165e-06 9.25559e-07 0)
(1.42283e-06 9.50455e-07 0)
(1.44441e-06 9.75565e-07 0)
(1.46632e-06 1.00091e-06 0)
(1.48852e-06 1.02652e-06 0)
(1.51096e-06 1.05241e-06 0)
(1.53359e-06 1.07857e-06 0)
(1.55635e-06 1.10501e-06 0)
(1.5792e-06 1.13171e-06 0)
(1.6021e-06 1.15862e-06 0)
(1.625e-06 1.18566e-06 0)
(1.18953e-06 6.90846e-07 0)
(1.20579e-06 7.15796e-07 0)
(1.22293e-06 7.40365e-07 0)
(1.2408e-06 7.64692e-07 0)
(1.25938e-06 7.88909e-07 0)
(1.27858e-06 8.13081e-07 0)
(1.29836e-06 8.37292e-07 0)
(1.31866e-06 8.61594e-07 0)
(1.33942e-06 8.86041e-07 0)
(1.36061e-06 9.1067e-07 0)
(1.38217e-06 9.3552e-07 0)
(1.40407e-06 9.60617e-07 0)
(1.42627e-06 9.85989e-07 0)
(1.44872e-06 1.01165e-06 0)
(1.47139e-06 1.03763e-06 0)
(1.49425e-06 1.06392e-06 0)
(1.51726e-06 1.09051e-06 0)
(1.54038e-06 1.1174e-06 0)
(1.56358e-06 1.14453e-06 0)
(1.58681e-06 1.17184e-06 0)
(1.13232e-06 6.73356e-07 0)
(1.15089e-06 6.9835e-07 0)
(1.17009e-06 7.22975e-07 0)
(1.18973e-06 7.4735e-07 0)
(1.20988e-06 7.71633e-07 0)
(1.23044e-06 7.95876e-07 0)
(1.25141e-06 8.20178e-07 0)
(1.27275e-06 8.44583e-07 0)
(1.29444e-06 8.69151e-07 0)
(1.31644e-06 8.9392e-07 0)
(1.33873e-06 9.18927e-07 0)
(1.36128e-06 9.44203e-07 0)
(1.38407e-06 9.69773e-07 0)
(1.40707e-06 9.95658e-07 0)
(1.43026e-06 1.02187e-06 0)
(1.45363e-06 1.04843e-06 0)
(1.47713e-06 1.07533e-06 0)
(1.50075e-06 1.10257e-06 0)
(1.52446e-06 1.13012e-06 0)
(1.54819e-06 1.15794e-06 0)
(1.06887e-06 6.51345e-07 0)
(1.09017e-06 6.76744e-07 0)
(1.11186e-06 7.01789e-07 0)
(1.1337e-06 7.26536e-07 0)
(1.15582e-06 7.51191e-07 0)
(1.17812e-06 7.75784e-07 0)
(1.20066e-06 8.00432e-07 0)
(1.22339e-06 8.25179e-07 0)
(1.24633e-06 8.50088e-07 0)
(1.26946e-06 8.75201e-07 0)
(1.29277e-06 9.00559e-07 0)
(1.31626e-06 9.26193e-07 0)
(1.33991e-06 9.52133e-07 0)
(1.36372e-06 9.78401e-07 0)
(1.38767e-06 1.00502e-06 0)
(1.41176e-06 1.03201e-06 0)
(1.43596e-06 1.05937e-06 0)
(1.46027e-06 1.08712e-06 0)
(1.48464e-06 1.11525e-06 0)
(1.50903e-06 1.14377e-06 0)
(1.00054e-06 6.2439e-07 0)
(1.02489e-06 6.50604e-07 0)
(1.04942e-06 6.76485e-07 0)
(1.07376e-06 7.01973e-07 0)
(1.09816e-06 7.27345e-07 0)
(1.1225e-06 7.52603e-07 0)
(1.14688e-06 7.77887e-07 0)
(1.17128e-06 8.0324e-07 0)
(1.19573e-06 8.28736e-07 0)
(1.22023e-06 8.54419e-07 0)
(1.24479e-06 8.80337e-07 0)
(1.26943e-06 9.06524e-07 0)
(1.29415e-06 9.33015e-07 0)
(1.31895e-06 9.59839e-07 0)
(1.34383e-06 9.87022e-07 0)
(1.36881e-06 1.01459e-06 0)
(1.39386e-06 1.04257e-06 0)
(1.41899e-06 1.07098e-06 0)
(1.44417e-06 1.09986e-06 0)
(1.46935e-06 1.12922e-06 0)
(9.28444e-07 5.92649e-07 0)
(9.56092e-07 6.20059e-07 0)
(9.83699e-07 6.47164e-07 0)
(1.01077e-06 6.7374e-07 0)
(1.03768e-06 7.00151e-07 0)
(1.06428e-06 7.26376e-07 0)
(1.09073e-06 7.52574e-07 0)
(1.117e-06 7.78792e-07 0)
(1.14315e-06 8.05114e-07 0)
(1.16921e-06 8.3159e-07 0)
(1.19521e-06 8.58273e-07 0)
(1.22117e-06 8.85205e-07 0)
(1.24711e-06 9.12427e-07 0)
(1.27305e-06 9.39974e-07 0)
(1.29901e-06 9.6788e-07 0)
(1.32499e-06 9.96179e-07 0)
(1.35101e-06 1.02491e-06 0)
(1.37706e-06 1.05411e-06 0)
(1.40315e-06 1.08385e-06 0)
(1.42923e-06 1.11416e-06 0)
(8.53786e-07 5.56179e-07 0)
(8.84841e-07 5.8517e-07 0)
(9.15681e-07 6.13875e-07 0)
(9.45634e-07 6.41894e-07 0)
(9.75207e-07 6.69662e-07 0)
(1.00423e-06 6.97152e-07 0)
(1.03289e-06 7.24535e-07 0)
(1.06118e-06 7.51872e-07 0)
(1.08919e-06 7.79254e-07 0)
(1.11695e-06 8.06742e-07 0)
(1.14451e-06 8.34396e-07 0)
(1.17191e-06 8.62267e-07 0)
(1.19918e-06 8.904e-07 0)
(1.22637e-06 9.18837e-07 0)
(1.25349e-06 9.47622e-07 0)
(1.28057e-06 9.76795e-07 0)
(1.30764e-06 1.00641e-06 0)
(1.3347e-06 1.03652e-06 0)
(1.36176e-06 1.06721e-06 0)
(1.38882e-06 1.09854e-06 0)
(7.77685e-07 5.15308e-07 0)
(8.12156e-07 5.46241e-07 0)
(8.46265e-07 5.76849e-07 0)
(8.79171e-07 6.06637e-07 0)
(9.11475e-07 6.36046e-07 0)
(9.43007e-07 6.65088e-07 0)
(9.73974e-07 6.93918e-07 0)
(1.00439e-06 7.22623e-07 0)
(1.03435e-06 7.51295e-07 0)
(1.06391e-06 7.80009e-07 0)
(1.09313e-06 8.08832e-07 0)
(1.12206e-06 8.37824e-07 0)
(1.15075e-06 8.67037e-07 0)
(1.17925e-06 8.96521e-07 0)
(1.2076e-06 9.26327e-07 0)
(1.23584e-06 9.56504e-07 0)
(1.264e-06 9.87114e-07 0)
(1.29212e-06 1.01822e-06 0)
(1.32021e-06 1.04994e-06 0)
(1.3483e-06 1.08232e-06 0)
(7.01282e-07 4.70419e-07 0)
(7.39082e-07 5.03675e-07 0)
(7.76374e-07 5.36419e-07 0)
(8.12248e-07 5.68279e-07 0)
(8.47275e-07 5.99566e-07 0)
(8.81347e-07 6.30386e-07 0)
(9.14647e-07 6.60879e-07 0)
(9.47225e-07 6.91158e-07 0)
(9.7918e-07 7.21323e-07 0)
(1.01058e-06 7.51459e-07 0)
(1.0415e-06 7.81641e-07 0)
(1.07201e-06 8.11935e-07 0)
(1.10216e-06 8.42399e-07 0)
(1.13202e-06 8.7309e-07 0)
(1.16164e-06 9.04061e-07 0)
(1.19107e-06 9.3537e-07 0)
(1.22036e-06 9.67084e-07 0)
(1.24955e-06 9.99274e-07 0)
(1.27869e-06 1.03206e-06 0)
(1.30784e-06 1.06552e-06 0)
(6.25474e-07 4.22202e-07 0)
(6.66427e-07 4.58017e-07 0)
(7.06568e-07 4.92966e-07 0)
(7.45339e-07 5.27119e-07 0)
(7.83038e-07 5.60536e-07 0)
(8.19664e-07 5.93378e-07 0)
(8.55332e-07 6.25765e-07 0)
(8.90116e-07 6.57826e-07 0)
(9.24108e-07 6.89672e-07 0)
(9.57392e-07 7.21401e-07 0)
(9.9005e-07 7.531e-07 0)
(1.02216e-06 7.84842e-07 0)
(1.0538e-06 8.16695e-07 0)
(1.08503e-06 8.48719e-07 0)
(1.11593e-06 8.80973e-07 0)
(1.14655e-06 9.13518e-07 0)
(1.17697e-06 9.46422e-07 0)
(1.20724e-06 9.7976e-07 0)
(1.23743e-06 1.01365e-06 0)
(1.26764e-06 1.04818e-06 0)
(5.67005e-07 3.86067e-07 0)
(6.09707e-07 4.23741e-07 0)
(6.51343e-07 4.59937e-07 0)
(6.91685e-07 4.95397e-07 0)
(7.30901e-07 5.30116e-07 0)
(7.68994e-07 5.64246e-07 0)
(8.06068e-07 5.97901e-07 0)
(8.4218e-07 6.3119e-07 0)
(8.77422e-07 6.64217e-07 0)
(9.1187e-07 6.97075e-07 0)
(9.45606e-07 7.29845e-07 0)
(9.78711e-07 7.62599e-07 0)
(1.01126e-06 7.95402e-07 0)
(1.04333e-06 8.28312e-07 0)
(1.07499e-06 8.61386e-07 0)
(1.10632e-06 8.9468e-07 0)
(1.13739e-06 9.28258e-07 0)
(1.16827e-06 9.62187e-07 0)
(1.19904e-06 9.96575e-07 0)
(1.22984e-06 1.03149e-06 0)
(5.27998e-07 3.64479e-07 0)
(5.70703e-07 4.02148e-07 0)
(6.1235e-07 4.3864e-07 0)
(6.52823e-07 4.74499e-07 0)
(6.92237e-07 5.09713e-07 0)
(7.3058e-07 5.44385e-07 0)
(7.67938e-07 5.78606e-07 0)
(8.04351e-07 6.12464e-07 0)
(8.39897e-07 6.46045e-07 0)
(8.74641e-07 6.79427e-07 0)
(9.08658e-07 7.1268e-07 0)
(9.4202e-07 7.45869e-07 0)
(9.74801e-07 7.7905e-07 0)
(1.00707e-06 8.12276e-07 0)
(1.03891e-06 8.45596e-07 0)
(1.07039e-06 8.7906e-07 0)
(1.10158e-06 9.1272e-07 0)
(1.13257e-06 9.46633e-07 0)
(1.16343e-06 9.80882e-07 0)
(1.19434e-06 1.01552e-06 0)
(4.93567e-07 3.43754e-07 0)
(5.35502e-07 3.81311e-07 0)
(5.76722e-07 4.17908e-07 0)
(6.16883e-07 4.5401e-07 0)
(6.56135e-07 4.89578e-07 0)
(6.94405e-07 5.24679e-07 0)
(7.31765e-07 5.59378e-07 0)
(7.68231e-07 5.93736e-07 0)
(8.03866e-07 6.27822e-07 0)
(8.3872e-07 6.61694e-07 0)
(8.72858e-07 6.95411e-07 0)
(9.06343e-07 7.29023e-07 0)
(9.39242e-07 7.62577e-07 0)
(9.71626e-07 7.96118e-07 0)
(1.00356e-06 8.29684e-07 0)
(1.03513e-06 8.63314e-07 0)
(1.06639e-06 8.97049e-07 0)
(1.09746e-06 9.30932e-07 0)
(1.12838e-06 9.65013e-07 0)
(1.15936e-06 9.99327e-07 0)
(4.62709e-07 3.23796e-07 0)
(5.03638e-07 3.61049e-07 0)
(5.44116e-07 3.97612e-07 0)
(5.83677e-07 4.33856e-07 0)
(6.22486e-07 4.69695e-07 0)
(6.6042e-07 5.05157e-07 0)
(6.97542e-07 5.40276e-07 0)
(7.33843e-07 5.75089e-07 0)
(7.69371e-07 6.09641e-07 0)
(8.04163e-07 6.43973e-07 0)
(8.38271e-07 6.78128e-07 0)
(8.71749e-07 7.12145e-07 0)
(9.04657e-07 7.46059e-07 0)
(9.37059e-07 7.79903e-07 0)
(9.69018e-07 8.13705e-07 0)
(1.00061e-06 8.47495e-07 0)
(1.0319e-06 8.81293e-07 0)
(1.06299e-06 9.15134e-07 0)
(1.09395e-06 9.49035e-07 0)
(1.12497e-06 9.83004e-07 0)
(4.35068e-07 3.04815e-07 0)
(4.74765e-07 3.41652e-07 0)
(5.14249e-07 3.78062e-07 0)
(5.52966e-07 4.14326e-07 0)
(5.91096e-07 4.50323e-07 0)
(6.28476e-07 4.86047e-07 0)
(6.65155e-07 5.21501e-07 0)
(7.01103e-07 5.56696e-07 0)
(7.36355e-07 5.91654e-07 0)
(7.70932e-07 6.26396e-07 0)
(8.04876e-07 6.6095e-07 0)
(8.3823e-07 6.9534e-07 0)
(8.71047e-07 7.29589e-07 0)
(9.03381e-07 7.63716e-07 0)
(9.35293e-07 7.97741e-07 0)
(9.66849e-07 8.31676e-07 0)
(9.98123e-07 8.65531e-07 0)
(1.02918e-06 8.99318e-07 0)
(1.06017e-06 9.3301e-07 0)
(1.09121e-06 9.66625e-07 0)
(4.10111e-07 2.868e-07 0)
(4.48454e-07 3.23116e-07 0)
(4.86777e-07 3.5927e-07 0)
(5.24485e-07 3.95457e-07 0)
(5.61758e-07 4.3152e-07 0)
(5.98408e-07 4.67424e-07 0)
(6.34476e-07 5.03137e-07 0)
(6.69912e-07 5.38647e-07 0)
(7.04741e-07 5.73951e-07 0)
(7.3897e-07 6.09053e-07 0)
(7.7263e-07 6.43962e-07 0)
(8.05755e-07 6.78688e-07 0)
(8.38389e-07 7.1324e-07 0)
(8.7058e-07 7.47626e-07 0)
(9.0238e-07 7.81851e-07 0)
(9.33853e-07 8.15915e-07 0)
(9.65059e-07 8.49813e-07 0)
(9.96093e-07 8.83526e-07 0)
(1.02701e-06 9.17024e-07 0)
(1.05799e-06 9.50303e-07 0)
(3.87407e-07 2.69763e-07 0)
(4.24318e-07 3.05498e-07 0)
(4.61363e-07 3.41322e-07 0)
(4.97939e-07 3.77347e-07 0)
(5.34219e-07 4.13392e-07 0)
(5.70005e-07 4.49392e-07 0)
(6.05326e-07 4.85288e-07 0)
(6.40122e-07 5.21042e-07 0)
(6.74405e-07 5.56629e-07 0)
(7.08173e-07 5.92034e-07 0)
(7.41447e-07 6.27248e-07 0)
(7.74252e-07 6.62266e-07 0)
(8.06623e-07 6.97084e-07 0)
(8.38601e-07 7.31697e-07 0)
(8.70232e-07 7.66098e-07 0)
(9.01572e-07 8.00273e-07 0)
(9.32674e-07 8.342e-07 0)
(9.63625e-07 8.67851e-07 0)
(9.94469e-07 9.01161e-07 0)
(1.02538e-06 9.34105e-07 0)
(3.66531e-07 2.53663e-07 0)
(4.01973e-07 2.88777e-07 0)
(4.3767e-07 3.24215e-07 0)
(4.73031e-07 3.60015e-07 0)
(5.08222e-07 3.95973e-07 0)
(5.43042e-07 4.32002e-07 0)
(5.77511e-07 4.68013e-07 0)
(6.11563e-07 5.03945e-07 0)
(6.45201e-07 5.39754e-07 0)
(6.78415e-07 5.75405e-07 0)
(7.11217e-07 6.10872e-07 0)
(7.43625e-07 6.46137e-07 0)
(7.75664e-07 6.8118e-07 0)
(8.0737e-07 7.15987e-07 0)
(8.3878e-07 7.50535e-07 0)
(8.69944e-07 7.84801e-07 0)
(9.00905e-07 8.18749e-07 0)
(9.31741e-07 8.52332e-07 0)
(9.62489e-07 8.85469e-07 0)
(9.93299e-07 9.18115e-07 0)
(3.47105e-07 2.38452e-07 0)
(3.81064e-07 2.72935e-07 0)
(4.1537e-07 3.07953e-07 0)
(4.49462e-07 3.43481e-07 0)
(4.83496e-07 3.79299e-07 0)
(5.17274e-07 4.15297e-07 0)
(5.50813e-07 4.51361e-07 0)
(5.84041e-07 4.87411e-07 0)
(6.16956e-07 5.23382e-07 0)
(6.49541e-07 5.59223e-07 0)
(6.81802e-07 5.94891e-07 0)
(7.13749e-07 6.30354e-07 0)
(7.45401e-07 6.65581e-07 0)
(7.76785e-07 7.00544e-07 0)
(8.07932e-07 7.35211e-07 0)
(8.38882e-07 7.69548e-07 0)
(8.69672e-07 8.03505e-07 0)
(9.00367e-07 8.37028e-07 0)
(9.30993e-07 8.70012e-07 0)
(9.61676e-07 9.02401e-07 0)
(3.28778e-07 2.24072e-07 0)
(3.61253e-07 2.5793e-07 0)
(3.94148e-07 2.92513e-07 0)
(4.26937e-07 3.27739e-07 0)
(4.59768e-07 3.63377e-07 0)
(4.92453e-07 3.99295e-07 0)
(5.25003e-07 4.3536e-07 0)
(5.57348e-07 4.71474e-07 0)
(5.89482e-07 5.07553e-07 0)
(6.21381e-07 5.43529e-07 0)
(6.53046e-07 5.79347e-07 0)
(6.84482e-07 6.1496e-07 0)
(7.15701e-07 6.50327e-07 0)
(7.46724e-07 6.85409e-07 0)
(7.77573e-07 7.20165e-07 0)
(8.0828e-07 7.54552e-07 0)
(8.38875e-07 7.8851e-07 0)
(8.69405e-07 8.21976e-07 0)
(8.99892e-07 8.54835e-07 0)
(9.30428e-07 8.87019e-07 0)
(3.11228e-07 2.10465e-07 0)
(3.42226e-07 2.43723e-07 0)
(3.73699e-07 2.77871e-07 0)
(4.05166e-07 3.12778e-07 0)
(4.36764e-07 3.48208e-07 0)
(4.68319e-07 3.84008e-07 0)
(4.99842e-07 4.20029e-07 0)
(5.31263e-07 4.56157e-07 0)
(5.62572e-07 4.92292e-07 0)
(5.93744e-07 5.28353e-07 0)
(6.24776e-07 5.64271e-07 0)
(6.55664e-07 5.99988e-07 0)
(6.86418e-07 6.35451e-07 0)
(7.17049e-07 6.70615e-07 0)
(7.47574e-07 7.05429e-07 0)
(7.78017e-07 7.39843e-07 0)
(8.08396e-07 7.73794e-07 0)
(8.38747e-07 8.07212e-07 0)
(8.6908e-07 8.39975e-07 0)
(8.99454e-07 8.72013e-07 0)
(2.94154e-07 1.97585e-07 0)
(3.23679e-07 2.30277e-07 0)
(3.53726e-07 2.63998e-07 0)
(3.83858e-07 2.98582e-07 0)
(4.14206e-07 3.33783e-07 0)
(4.44612e-07 3.69435e-07 0)
(4.75082e-07 4.05374e-07 0)
(5.05554e-07 4.41473e-07 0)
(5.36013e-07 4.77617e-07 0)
(5.66433e-07 5.13714e-07 0)
(5.96806e-07 5.49684e-07 0)
(6.27124e-07 5.85458e-07 0)
(6.57391e-07 6.20976e-07 0)
(6.87612e-07 6.56183e-07 0)
(7.17796e-07 6.91024e-07 0)
(7.47959e-07 7.25445e-07 0)
(7.7811e-07 7.59379e-07 0)
(8.0827e-07 7.92757e-07 0)
(8.38441e-07 8.25457e-07 0)
(8.68646e-07 8.57409e-07 0)
(2.77265e-07 1.85386e-07 0)
(3.05317e-07 2.17553e-07 0)
(3.33933e-07 2.50867e-07 0)
(3.62725e-07 2.85128e-07 0)
(3.91815e-07 3.20087e-07 0)
(4.2106e-07 3.55567e-07 0)
(4.50468e-07 3.91391e-07 0)
(4.79979e-07 4.2742e-07 0)
(5.09578e-07 4.63531e-07 0)
(5.39235e-07 4.9962e-07 0)
(5.6894e-07 5.35596e-07 0)
(5.9868e-07 5.71384e-07 0)
(6.28452e-07 6.06915e-07 0)
(6.58254e-07 6.42128e-07 0)
(6.88091e-07 6.76966e-07 0)
(7.17967e-07 7.11371e-07 0)
(7.47885e-07 7.45279e-07 0)
(7.7785e-07 7.78622e-07 0)
(8.07855e-07 8.11289e-07 0)
(8.3789e-07 8.43216e-07 0)
(2.60273e-07 1.73852e-07 0)
(2.86845e-07 2.05537e-07 0)
(3.14025e-07 2.38461e-07 0)
(3.41474e-07 2.72403e-07 0)
(3.69303e-07 3.0711e-07 0)
(3.97389e-07 3.42395e-07 0)
(4.25737e-07 3.78073e-07 0)
(4.54291e-07 4.13996e-07 0)
(4.83033e-07 4.50032e-07 0)
(5.11934e-07 4.86068e-07 0)
(5.40976e-07 5.22007e-07 0)
(5.70144e-07 5.57765e-07 0)
(5.99426e-07 5.9327e-07 0)
(6.28816e-07 6.28454e-07 0)
(6.58308e-07 6.63259e-07 0)
(6.879e-07 6.97626e-07 0)
(7.17587e-07 7.31496e-07 0)
(7.47359e-07 7.64808e-07 0)
(7.77201e-07 7.97468e-07 0)
(8.07073e-07 8.29425e-07 0)
(2.4288e-07 1.62949e-07 0)
(2.67957e-07 1.94194e-07 0)
(2.93692e-07 2.26748e-07 0)
(3.19798e-07 2.60377e-07 0)
(3.46373e-07 2.94822e-07 0)
(3.73311e-07 3.29892e-07 0)
(4.00613e-07 3.65395e-07 0)
(4.28228e-07 4.01177e-07 0)
(4.56136e-07 4.37099e-07 0)
(4.84302e-07 4.73042e-07 0)
(5.12705e-07 5.08903e-07 0)
(5.41323e-07 5.44592e-07 0)
(5.70138e-07 5.80032e-07 0)
(5.99135e-07 6.15154e-07 0)
(6.28301e-07 6.49897e-07 0)
(6.57623e-07 6.84205e-07 0)
(6.87089e-07 7.18024e-07 0)
(7.16679e-07 7.51305e-07 0)
(7.46367e-07 7.83976e-07 0)
(7.76092e-07 8.16007e-07 0)
(2.24778e-07 1.52714e-07 0)
(2.48337e-07 1.83548e-07 0)
(2.72617e-07 2.15742e-07 0)
(2.97384e-07 2.49053e-07 0)
(3.22718e-07 2.8322e-07 0)
(3.48531e-07 3.18049e-07 0)
(3.74818e-07 3.53344e-07 0)
(4.01529e-07 3.88947e-07 0)
(4.2864e-07 4.24713e-07 0)
(4.56113e-07 4.60521e-07 0)
(4.83919e-07 4.96262e-07 0)
(5.12029e-07 5.31843e-07 0)
(5.40416e-07 5.67183e-07 0)
(5.69056e-07 6.0221e-07 0)
(5.97928e-07 6.36864e-07 0)
(6.27009e-07 6.71091e-07 0)
(6.56278e-07 7.04844e-07 0)
(6.85704e-07 7.38088e-07 0)
(7.15255e-07 7.7078e-07 0)
(7.44853e-07 8.02916e-07 0)
(2.05609e-07 1.43092e-07 0)
(2.27622e-07 1.73542e-07 0)
(2.5044e-07 2.05381e-07 0)
(2.73878e-07 2.38367e-07 0)
(2.97998e-07 2.72239e-07 0)
(3.22724e-07 3.06801e-07 0)
(3.48043e-07 3.41856e-07 0)
(3.73906e-07 3.77244e-07 0)
(4.00281e-07 4.12818e-07 0)
(4.27123e-07 4.48452e-07 0)
(4.54397e-07 4.84036e-07 0)
(4.82063e-07 5.19474e-07 0)
(5.10085e-07 5.54682e-07 0)
(5.38429e-07 5.89588e-07 0)
(5.6706e-07 6.2413e-07 0)
(5.95947e-07 6.58257e-07 0)
(6.25057e-07 6.9193e-07 0)
(6.54352e-07 7.25128e-07 0)
(6.8379e-07 7.57839e-07 0)
(7.13291e-07 7.90089e-07 0)
(1.85018e-07 1.34237e-07 0)
(2.05457e-07 1.64292e-07 0)
(2.26809e-07 1.95751e-07 0)
(2.4894e-07 2.28379e-07 0)
(2.71887e-07 2.61915e-07 0)
(2.95581e-07 2.96164e-07 0)
(3.20001e-07 3.30931e-07 0)
(3.45091e-07 3.66053e-07 0)
(3.70811e-07 4.01385e-07 0)
(3.97109e-07 4.36798e-07 0)
(4.23938e-07 4.72182e-07 0)
(4.51248e-07 5.07437e-07 0)
(4.78991e-07 5.4248e-07 0)
(5.0712e-07 5.77237e-07 0)
(5.35589e-07 6.11645e-07 0)
(5.64351e-07 6.45656e-07 0)
(5.93363e-07 6.79237e-07 0)
(6.22574e-07 7.12377e-07 0)
(6.51937e-07 7.45093e-07 0)
(6.81372e-07 7.77445e-07 0)
(1.62487e-07 1.25933e-07 0)
(1.81329e-07 1.55587e-07 0)
(2.01233e-07 1.86649e-07 0)
(2.221e-07 2.18893e-07 0)
(2.43941e-07 2.52063e-07 0)
(2.66689e-07 2.85966e-07 0)
(2.90306e-07 3.20409e-07 0)
(3.14732e-07 3.55231e-07 0)
(3.39913e-07 3.90285e-07 0)
(3.65785e-07 4.25444e-07 0)
(3.9229e-07 4.60596e-07 0)
(4.19365e-07 4.95642e-07 0)
(4.4695e-07 5.30497e-07 0)
(4.74984e-07 5.65086e-07 0)
(5.03404e-07 5.99347e-07 0)
(5.3215e-07 6.33233e-07 0)
(5.61159e-07 6.66713e-07 0)
(5.90367e-07 6.99786e-07 0)
(6.19714e-07 7.32487e-07 0)
(6.49122e-07 7.64909e-07 0)
(1.3772e-07 1.18672e-07 0)
(1.54957e-07 1.47829e-07 0)
(1.73446e-07 1.78395e-07 0)
(1.93111e-07 2.10158e-07 0)
(2.13933e-07 2.42869e-07 0)
(2.35837e-07 2.76336e-07 0)
(2.58771e-07 3.10371e-07 0)
(2.82658e-07 3.44813e-07 0)
(3.07431e-07 3.79517e-07 0)
(3.33014e-07 4.14357e-07 0)
(3.59333e-07 4.49219e-07 0)
(3.86314e-07 4.84007e-07 0)
(4.13881e-07 5.18633e-07 0)
(4.41959e-07 5.53026e-07 0)
(4.7047e-07 5.87122e-07 0)
(4.99333e-07 6.20875e-07 0)
(5.28467e-07 6.54257e-07 0)
(5.57784e-07 6.87265e-07 0)
(5.87204e-07 7.19939e-07 0)
(6.16632e-07 7.5238e-07 0)
(1.9789e-08 2.11729e-09 0)
(5.97722e-08 1.31025e-08 0)
(1.02261e-07 3.35994e-08 0)
(1.47797e-07 6.2238e-08 0)
(1.97253e-07 9.82427e-08 0)
(2.50907e-07 1.40333e-07 0)
(3.08976e-07 1.87139e-07 0)
(3.71362e-07 2.37227e-07 0)
(4.37882e-07 2.89144e-07 0)
(5.08186e-07 3.41702e-07 0)
(1.86412e-08 1.89308e-09 0)
(5.63464e-08 1.1768e-08 0)
(9.63126e-08 3.03848e-08 0)
(1.38959e-07 5.66326e-08 0)
(1.85083e-07 8.99261e-08 0)
(2.3494e-07 1.29188e-07 0)
(2.88751e-07 1.7323e-07 0)
(3.46427e-07 2.20786e-07 0)
(4.07756e-07 2.70463e-07 0)
(4.72373e-07 3.21316e-07 0)
(1.76094e-08 1.62843e-09 0)
(5.32725e-08 1.04176e-08 0)
(9.10057e-08 2.72764e-08 0)
(1.3109e-07 5.12921e-08 0)
(1.74236e-07 8.20249e-08 0)
(2.20659e-07 1.18562e-07 0)
(2.70597e-07 1.59867e-07 0)
(3.24012e-07 2.0485e-07 0)
(3.8083e-07 2.52247e-07 0)
(4.40652e-07 3.01386e-07 0)
(1.66652e-08 1.32093e-09 0)
(5.0472e-08 9.06172e-09 0)
(8.62287e-08 2.43331e-08 0)
(1.2409e-07 4.63643e-08 0)
(1.6469e-07 7.48225e-08 0)
(2.08186e-07 1.08921e-07 0)
(2.54801e-07 1.47733e-07 0)
(3.0447e-07 1.90286e-07 0)
(3.57208e-07 2.35382e-07 0)
(4.12531e-07 2.82437e-07 0)
(1.57825e-08 9.67655e-10 0)
(4.78578e-08 7.65294e-09 0)
(8.18002e-08 2.14192e-08 0)
(1.17647e-07 4.16012e-08 0)
(1.55966e-07 6.79457e-08 0)
(1.96863e-07 9.9766e-08 0)
(2.40556e-07 1.36235e-07 0)
(2.86955e-07 1.76488e-07 0)
(3.36167e-07 2.1943e-07 0)
(3.87557e-07 2.64469e-07 0)
(1.49538e-08 5.74421e-10 0)
(4.5408e-08 6.20063e-09 0)
(7.76797e-08 1.85502e-08 0)
(1.117e-07 3.70354e-08 0)
(1.47981e-07 6.14598e-08 0)
(1.86569e-07 9.12096e-08 0)
(2.27674e-07 1.2553e-07 0)
(2.71164e-07 1.63625e-07 0)
(3.17232e-07 2.04498e-07 0)
(3.65143e-07 2.47518e-07 0)
(1.41627e-08 1.39354e-10 0)
(4.30708e-08 4.6835e-09 0)
(7.37682e-08 1.5665e-08 0)
(1.06092e-07 3.25535e-08 0)
(1.40507e-07 5.51945e-08 0)
(1.77008e-07 8.30309e-08 0)
(2.158e-07 1.15371e-07 0)
(2.56712e-07 1.51472e-07 0)
(2.99996e-07 1.90433e-07 0)
(3.44844e-07 2.31553e-07 0)
(1.34028e-08 -3.31887e-10 0)
(4.08264e-08 3.10824e-09 0)
(7.00279e-08 1.27658e-08 0)
(1.00759e-07 2.81526e-08 0)
(1.33445e-07 4.91433e-08 0)
(1.68032e-07 7.522e-08 0)
(2.0472e-07 1.0574e-07 0)
(2.43309e-07 1.39995e-07 0)
(2.84087e-07 1.77172e-07 0)
(3.26224e-07 2.16515e-07 0)
(1.26645e-08 -8.3955e-10 0)
(3.86459e-08 1.46628e-09 0)
(6.64049e-08 9.82521e-09 0)
(9.56166e-08 2.37807e-08 0)
(1.26671e-07 4.32274e-08 0)
(1.59477e-07 6.76757e-08 0)
(1.94226e-07 9.65233e-08 0)
(2.30699e-07 1.29084e-07 0)
(2.69201e-07 1.6462e-07 0)
(3.08913e-07 2.02333e-07 0)
(1.19421e-08 -1.38007e-09 0)
(3.65126e-08 -2.39149e-10 0)
(6.28676e-08 6.84079e-09 0)
(9.06114e-08 1.94273e-08 0)
(1.20104e-07 3.74265e-08 0)
(1.51222e-07 6.0366e-08 0)
(1.8415e-07 8.76738e-08 0)
(2.18662e-07 1.18679e-07 0)
(2.55064e-07 1.52706e-07 0)
(2.92577e-07 1.88931e-07 0)
(1.123e-08 -1.95313e-09 0)
(3.44094e-08 -2.01198e-09 0)
(5.93844e-08 3.79934e-09 0)
(8.56917e-08 1.50678e-08 0)
(1.13664e-07 3.17029e-08 0)
(1.43155e-07 5.32415e-08 0)
(1.74341e-07 7.91324e-08 0)
(2.07003e-07 1.08715e-07 0)
(2.41435e-07 1.41362e-07 0)
(2.76917e-07 1.7624e-07 0)
(1.05243e-08 -2.55765e-09 0)
(3.23256e-08 -3.8523e-09 0)
(5.59336e-08 6.97263e-10 0)
(8.08186e-08 1.06951e-08 0)
(1.07288e-07 2.6044e-08 0)
(1.3518e-07 4.62821e-08 0)
(1.64667e-07 7.08693e-08 0)
(1.95544e-07 9.9153e-08 0)
(2.2809e-07 1.30542e-07 0)
(2.61658e-07 1.64206e-07 0)
(9.82252e-09 -3.19502e-09 0)
(3.02565e-08 -5.76555e-09 0)
(5.2501e-08 -2.47535e-09 0)
(7.59609e-08 6.29605e-09 0)
(1.00919e-07 2.04327e-08 0)
(1.27209e-07 3.94654e-08 0)
(1.55002e-07 6.28565e-08 0)
(1.84118e-07 8.9958e-08 0)
(2.1482e-07 1.20204e-07 0)
(2.46536e-07 1.5278e-07 0)
(9.12461e-09 -3.87055e-09 0)
(2.82049e-08 -7.75808e-09 0)
(4.90817e-08 -5.72139e-09 0)
(7.10962e-08 1.87504e-09 0)
(9.45084e-08 1.48777e-08 0)
(1.1916e-07 3.28008e-08 0)
(1.45226e-07 5.50995e-08 0)
(1.72563e-07 8.11289e-08 0)
(2.01416e-07 1.10343e-07 0)
(2.31298e-07 1.41944e-07 0)
(8.43662e-09 -4.5939e-09 0)
(2.61954e-08 -9.84698e-09 0)
(4.56934e-08 -9.05632e-09 0)
(6.62193e-08 -2.57852e-09 0)
(8.80153e-08 9.37298e-09 0)
(1.10951e-07 2.62826e-08 0)
(1.35214e-07 4.75904e-08 0)
(1.60707e-07 7.26524e-08 0)
(1.87662e-07 1.00936e-07 0)
(2.15676e-07 1.31671e-07 0)
(7.77173e-09 -5.39835e-09 0)
(2.42683e-08 -1.20566e-08 0)
(4.23662e-08 -1.24736e-08 0)
(6.13306e-08 -7.02405e-09 0)
(8.14006e-08 3.98106e-09 0)
(1.02498e-07 1.9984e-08 0)
(1.24837e-07 4.04034e-08 0)
(1.48373e-07 6.45973e-08 0)
(1.73332e-07 9.20459e-08 0)
(1.99397e-07 1.22007e-07 0)
(7.17877e-09 -6.32354e-09 0)
(2.25501e-08 -1.44366e-08 0)
(3.92043e-08 -1.60062e-08 0)
(5.64745e-08 -1.14845e-08 0)
(7.46377e-08 -1.31224e-09 0)
(9.3706e-08 1.38908e-08 0)
(1.13937e-07 3.35207e-08 0)
(1.35345e-07 5.69382e-08 0)
(1.58154e-07 8.36368e-08 0)
(1.82134e-07 1.12908e-07 0)
(6.76143e-09 -7.54017e-09 0)
(2.11867e-08 -1.70627e-08 0)
(3.63082e-08 -1.95818e-08 0)
(5.16722e-08 -1.57809e-08 0)
(6.76789e-08 -6.27871e-09 0)
(8.4462e-08 8.24937e-09 0)
(1.02343e-07 2.71857e-08 0)
(1.21399e-07 4.99054e-08 0)
(1.41854e-07 7.59191e-08 0)
(1.63563e-07 1.04558e-07 0)
(7.0257e-09 -9.17438e-09 0)
(2.07237e-08 -2.00301e-08 0)
(3.40249e-08 -2.3269e-08 0)
(4.70444e-08 -2.00156e-08 0)
(6.04685e-08 -1.10419e-08 0)
(7.4583e-08 2.91159e-09 0)
(8.9775e-08 2.12307e-08 0)
(1.06175e-07 4.33131e-08 0)
(1.24007e-07 6.86938e-08 0)
(1.43193e-07 9.67444e-08 0)
(9.04187e-09 -1.2131e-08 0)
(2.15038e-08 -2.34048e-08 0)
(3.25178e-08 -2.65958e-08 0)
(4.25734e-08 -2.3458e-08 0)
(5.2923e-08 -1.48248e-08 0)
(6.39294e-08 -1.35239e-09 0)
(7.6058e-08 1.63884e-08 0)
(8.94616e-08 3.7848e-08 0)
(1.0437e-07 6.25921e-08 0)
(1.20744e-07 9.00404e-08 0)
)
;

boundaryField
{
    left
    {
        type            fixedDisplacement;
        value           uniform (0 0 0);
    }
    right
    {
        type            solidTraction;
        tractionSeries  
{
        file            "$FOAM_CASE/constant/timeVsTraction";
        outOfBounds     clamp;
}
        pressure        uniform 0;
        secondOrder     false;
        setEffectiveTraction false;
        relaxationFactor 1;
        value           nonuniform List<vector> 
30
(
(1.6364e-06 1.19915e-06 3.33628e-21)
(1.59828e-06 1.18547e-06 3.35236e-21)
(1.55981e-06 1.17188e-06 3.39587e-21)
(1.5209e-06 1.15814e-06 3.46681e-21)
(1.48155e-06 1.14408e-06 3.56379e-21)
(1.44185e-06 1.12957e-06 3.6856e-21)
(1.40193e-06 1.11452e-06 3.83023e-21)
(1.36198e-06 1.09887e-06 3.99564e-21)
(1.32215e-06 1.08265e-06 4.1795e-21)
(1.28263e-06 1.06587e-06 4.37912e-21)
(1.24525e-06 1.04937e-06 4.49997e-21)
(1.20981e-06 1.03314e-06 4.51707e-21)
(1.17487e-06 1.01668e-06 4.5292e-21)
(1.1405e-06 1.00005e-06 4.53655e-21)
(1.10674e-06 9.83378e-07 4.53818e-21)
(1.0735e-06 9.6677e-07 4.53434e-21)
(1.04085e-06 9.50288e-07 4.52581e-21)
(1.00872e-06 9.3405e-07 4.51269e-21)
(9.77029e-07 9.18127e-07 4.49582e-21)
(9.45705e-07 9.02584e-07 4.47586e-21)
(9.14647e-07 8.87468e-07 4.45363e-21)
(8.83752e-07 8.7281e-07 4.43017e-21)
(8.52908e-07 8.58619e-07 4.40662e-21)
(8.22009e-07 8.44885e-07 4.38407e-21)
(7.90952e-07 8.31573e-07 4.3634e-21)
(7.5965e-07 8.18626e-07 4.34582e-21)
(7.28039e-07 8.0597e-07 4.33202e-21)