/*--------------------------------*- C++ -*----------------------------------*\
  =========                 |
  \\      /  F ield         | OpenFOAM: The Open Source CFD Toolbox
   \\    /   O peration     | Website:  https://openfoam.org
    \\  /    A nd           | Version:  9
     \\/     M anipulation  |
\*---------------------------------------------------------------------------*/
FoamFile
{
    format      ascii;
    class       volScalarField;
    location    "1";
    object      epsilonEq;
}
// * * * * * * * * * * * * * * * * * * * * * * * * * * * * * * * * * * * * * //

dimensions      [0 0 0 0 0 0 0];

internalField   nonuniform List<scalar> 
1000
(
6.81849e-07
6.47016e-07
6.3694e-07
6.41696e-07
6.42289e-07
6.40898e-07
6.36409e-07
6.296e-07
6.22002e-07
6.12527e-07
7.94745e-07
7.21301e-07
6.85729e-07
6.7469e-07
6.6484e-07
6.56443e-07
6.46708e-07
6.364e-07
6.24736e-07
6.14438e-07
9.0509e-07
7.92867e-07
7.29902e-07
7.00863e-07
6.78855e-07
6.6215e-07
6.46277e-07
6.31564e-07
6.16101e-07
6.03735e-07
1.01072e-06
8.60823e-07
7.6958e-07
7.20836e-07
6.85173e-07
6.59104e-07
6.36463e-07
6.17052e-07
5.97912e-07
5.83362e-07
1.10833e-06
9.23535e-07
8.03994e-07
7.34442e-07
6.83924e-07
6.47585e-07
6.17689e-07
5.93298e-07
5.70699e-07
5.53823e-07
1.19836e-06
9.80498e-07
8.32653e-07
7.41639e-07
6.75437e-07
6.28311e-07
5.90939e-07
5.61525e-07
5.3568e-07
5.16412e-07
1.27573e-06
1.02796e-06
8.51498e-07
7.39377e-07
6.5806e-07
6.00822e-07
5.56718e-07
5.22885e-07
4.94447e-07
4.72999e-07
1.34842e-06
1.06388e-06
8.56962e-07
7.25885e-07
6.31731e-07
5.6665e-07
5.17784e-07
4.81065e-07
4.51276e-07
4.2834e-07
1.39873e-06
1.0674e-06
8.30114e-07
6.87745e-07
5.90288e-07
5.24221e-07
4.75624e-07
4.39202e-07
4.10129e-07
3.86866e-07
1.4418e-06
1.00624e-06
7.66492e-07
6.32937e-07
5.48456e-07
4.89914e-07
4.46766e-07
4.13142e-07
3.85924e-07
3.6279e-07
2.27972e-09
5.20984e-09
2.42342e-08
5.0685e-08
7.97641e-08
1.09808e-07
1.39003e-07
1.6683e-07
1.92385e-07
2.16066e-07
6.07056e-09
3.39459e-08
7.26417e-08
1.10762e-07
1.44594e-07
1.74666e-07
2.00914e-07
2.24401e-07
2.44564e-07
2.63514e-07
2.81594e-08
8.12501e-08
1.30057e-07
1.74282e-07
2.11174e-07
2.41845e-07
2.66776e-07
2.87699e-07
3.04085e-07
3.19596e-07
6.49394e-08
1.38991e-07
1.94024e-07
2.40665e-07
2.77808e-07
3.07607e-07
3.30762e-07
3.49308e-07
3.62594e-07
3.75381e-07
1.17087e-07
2.04026e-07
2.62658e-07
3.09664e-07
3.4507e-07
3.72493e-07
3.92905e-07
4.08525e-07
4.18634e-07
4.28654e-07
1.84419e-07
2.73237e-07
3.31916e-07
3.77571e-07
4.09988e-07
4.34098e-07
4.51126e-07
4.634e-07
4.70266e-07
4.77374e-07
2.65561e-07
3.45466e-07
3.99923e-07
4.42371e-07
4.70798e-07
4.90958e-07
5.04184e-07
5.12836e-07
5.16438e-07
5.20469e-07
3.58563e-07
4.19719e-07
4.65048e-07
5.02017e-07
5.25423e-07
5.41115e-07
5.50346e-07
5.5526e-07
5.55879e-07
5.56658e-07
4.60829e-07
4.95292e-07
5.26545e-07
5.5549e-07
5.72693e-07
5.83386e-07
5.88358e-07
5.8953e-07
5.87311e-07
5.85282e-07
5.69608e-07
5.71368e-07
5.83889e-07
6.02037e-07
6.11622e-07
6.1654e-07
6.16936e-07
6.14003e-07
6.09891e-07
6.03402e-07
2.37394e-07
2.55732e-07
2.72737e-07
2.88114e-07
3.02016e-07
3.14526e-07
3.25755e-07
3.3579e-07
3.44732e-07
3.52648e-07
3.59611e-07
3.65669e-07
3.70862e-07
3.75216e-07
3.78741e-07
3.81456e-07
3.83351e-07
3.84487e-07
3.84847e-07
3.84625e-07
2.78177e-07
2.88863e-07
2.99652e-07
3.09678e-07
3.19085e-07
3.27828e-07
3.35909e-07
3.43323e-07
3.50096e-07
3.56233e-07
3.6176e-07
3.66692e-07
3.71045e-07
3.74829e-07
3.78048e-07
3.80703e-07
3.82756e-07
3.84181e-07
3.84788e-07
3.8445e-07
3.28265e-07
3.31683e-07
3.36068e-07
3.40298e-07
3.44603e-07
3.48893e-07
3.53137e-07
3.57261e-07
3.6125e-07
3.65048e-07
3.68645e-07
3.72014e-07
3.75142e-07
3.78009e-07
3.8059e-07
3.82848e-07
3.84679e-07
3.85968e-07
3.86323e-07
3.85513e-07
3.79084e-07
3.76441e-07
3.75305e-07
3.74406e-07
3.74001e-07
3.74031e-07
3.74488e-07
3.75261e-07
3.76337e-07
3.77618e-07
3.79077e-07
3.80649e-07
3.82299e-07
3.83975e-07
3.85618e-07
3.87155e-07
3.88432e-07
3.893e-07
3.89288e-07
3.88186e-07
4.27975e-07
4.20342e-07
4.1446e-07
4.09151e-07
4.04602e-07
4.00764e-07
3.97706e-07
3.9527e-07
3.93491e-07
3.92236e-07
3.91486e-07
3.91153e-07
3.91185e-07
3.9151e-07
3.92046e-07
3.92696e-07
3.93284e-07
3.93647e-07
3.93332e-07
3.92167e-07
4.72829e-07
4.61222e-07
4.5141e-07
4.42404e-07
4.34386e-07
4.27195e-07
4.21065e-07
4.15746e-07
4.11346e-07
4.07703e-07
4.04818e-07
4.0259e-07
4.00969e-07
3.99874e-07
3.99218e-07
3.98898e-07
3.98751e-07
3.98624e-07
3.98156e-07
3.97196e-07
5.12566e-07
4.97972e-07
4.85177e-07
4.73124e-07
4.62347e-07
4.52292e-07
4.43503e-07
4.35615e-07
4.28831e-07
4.22984e-07
4.18093e-07
4.14061e-07
4.10841e-07
4.08352e-07
4.06518e-07
4.05239e-07
4.0439e-07
4.0384e-07
4.03373e-07
4.02834e-07
5.46085e-07
5.29402e-07
5.14792e-07
5.00229e-07
4.87432e-07
4.75152e-07
4.64256e-07
4.54275e-07
4.45456e-07
4.37664e-07
4.30936e-07
4.25208e-07
4.20449e-07
4.16598e-07
4.136e-07
4.11379e-07
4.09867e-07
4.0896e-07
4.08619e-07
4.08675e-07
5.73284e-07
5.54737e-07
5.40152e-07
5.23837e-07
5.09493e-07
4.95404e-07
4.8264e-07
4.70859e-07
4.60271e-07
4.50807e-07
4.42489e-07
4.3528e-07
4.29162e-07
4.24094e-07
4.20051e-07
4.16983e-07
4.14891e-07
4.13707e-07
4.13583e-07
4.14326e-07
5.93534e-07
5.73694e-07
5.60071e-07
5.43906e-07
5.28942e-07
5.14074e-07
5.00009e-07
4.8679e-07
4.74617e-07
4.63554e-07
4.53662e-07
4.44955e-07
4.37442e-07
4.31114e-07
4.25979e-07
4.2202e-07
4.19314e-07
4.17831e-07
4.17928e-07
4.19401e-07
6.01382e-07
5.82798e-07
5.69335e-07
5.54125e-07
5.39187e-07
5.24335e-07
5.10011e-07
4.96353e-07
4.8359e-07
4.71821e-07
4.61153e-07
4.51636e-07
4.4332e-07
4.36227e-07
4.30409e-07
4.25886e-07
4.22806e-07
4.21175e-07
4.21507e-07
4.23596e-07
5.85926e-07
5.76377e-07
5.64042e-07
5.5083e-07
5.37341e-07
5.23719e-07
5.10381e-07
4.97476e-07
4.85254e-07
4.73843e-07
4.63379e-07
4.53942e-07
4.45617e-07
4.38461e-07
4.3256e-07
4.27974e-07
4.24903e-07
4.23386e-07
4.24058e-07
4.26682e-07
5.73494e-07
5.66243e-07
5.56796e-07
5.45478e-07
5.33732e-07
5.21423e-07
5.09168e-07
4.97088e-07
4.85495e-07
4.7453e-07
4.64367e-07
4.55114e-07
4.46884e-07
4.39763e-07
4.33869e-07
4.29296e-07
4.26286e-07
4.24886e-07
4.25805e-07
4.28792e-07
5.58687e-07
5.54327e-07
5.47239e-07
5.37764e-07
5.27683e-07
5.16711e-07
5.05608e-07
4.9447e-07
4.83652e-07
4.73306e-07
4.6363e-07
4.5475e-07
4.46801e-07
4.39891e-07
4.34155e-07
4.29721e-07
4.2682e-07
4.2558e-07
4.2675e-07
4.29935e-07
5.41823e-07
5.39743e-07
5.34881e-07
5.27341e-07
5.19036e-07
5.09569e-07
4.99782e-07
4.89757e-07
4.79887e-07
4.70333e-07
4.61314e-07
4.52974e-07
4.45461e-07
4.38905e-07
4.33438e-07
4.29244e-07
4.26444e-07
4.25526e-07
4.26112e-07
4.30035e-07
5.23877e-07
5.2383e-07
5.20971e-07
5.15249e-07
5.08617e-07
5.00636e-07
4.92184e-07
4.83334e-07
4.74499e-07
4.65846e-07
4.57611e-07
4.49942e-07
4.43005e-07
4.36927e-07
4.31871e-07
4.27967e-07
4.25489e-07
4.24569e-07
4.25787e-07
4.28859e-07
5.05166e-07
5.06792e-07
5.05682e-07
5.0166e-07
4.96618e-07
4.90113e-07
4.83014e-07
4.75393e-07
4.67667e-07
4.60008e-07
4.52657e-07
4.4577e-07
4.39515e-07
4.34022e-07
4.29453e-07
4.25926e-07
4.23705e-07
4.22841e-07
4.23968e-07
4.26853e-07
4.86069e-07
4.89083e-07
4.89497e-07
4.87011e-07
4.83432e-07
4.78336e-07
4.7256e-07
4.66176e-07
4.59596e-07
4.5299e-07
4.466e-07
4.40579e-07
4.35096e-07
4.30273e-07
4.26265e-07
4.23174e-07
4.21228e-07
4.20485e-07
4.21471e-07
4.23964e-07
4.66753e-07
4.70869e-07
4.72576e-07
4.71462e-07
4.69225e-07
4.65471e-07
4.60984e-07
4.55839e-07
4.50429e-07
4.44923e-07
4.39553e-07
4.3447e-07
4.29834e-07
4.25758e-07
4.2238e-07
4.19782e-07
4.18153e-07
4.17515e-07
4.18313e-07
4.20339e-07
4.47304e-07
4.52283e-07
4.55083e-07
4.55186e-07
4.54175e-07
4.5169e-07
4.48452e-07
4.44536e-07
4.40312e-07
4.35938e-07
4.31637e-07
4.27549e-07
4.23822e-07
4.20559e-07
4.17873e-07
4.15827e-07
4.14553e-07
4.14055e-07
4.14642e-07
4.16122e-07
4.2769e-07
4.33331e-07
4.37052e-07
4.38241e-07
4.38364e-07
4.37088e-07
4.35071e-07
4.32382e-07
4.29361e-07
4.26154e-07
4.22964e-07
4.19922e-07
4.1716e-07
4.14767e-07
4.12832e-07
4.11393e-07
4.10527e-07
4.10202e-07
4.10585e-07
4.11502e-07
4.07818e-07
4.13973e-07
4.18485e-07
4.20665e-07
4.2186e-07
4.2176e-07
4.20953e-07
4.19502e-07
4.17707e-07
4.157e-07
4.13665e-07
4.11716e-07
4.09968e-07
4.08495e-07
4.07362e-07
4.06585e-07
4.06181e-07
4.06084e-07
4.06305e-07
4.06679e-07
3.87494e-07
3.94076e-07
3.99303e-07
4.02432e-07
4.04681e-07
4.05763e-07
4.0619e-07
4.0601e-07
4.05485e-07
4.04727e-07
4.03893e-07
4.03083e-07
4.02394e-07
4.01883e-07
4.01596e-07
4.01527e-07
4.01642e-07
4.01837e-07
4.01968e-07
4.01866e-07
3.66533e-07
3.73524e-07
3.79453e-07
3.83548e-07
3.86886e-07
3.89198e-07
3.90916e-07
3.92071e-07
3.92879e-07
3.9343e-07
3.93851e-07
3.94226e-07
3.94631e-07
3.95115e-07
3.95702e-07
3.96373e-07
3.97054e-07
3.97609e-07
3.97749e-07
3.97277e-07
3.44606e-07
3.52085e-07
3.58795e-07
3.63959e-07
3.68496e-07
3.72152e-07
3.75273e-07
3.77868e-07
3.80105e-07
3.82045e-07
3.8379e-07
3.85399e-07
3.86934e-07
3.88431e-07
3.89902e-07
3.91324e-07
3.92598e-07
3.93566e-07
3.93828e-07
3.93137e-07
3.2159e-07
3.2974e-07
3.37398e-07
3.43812e-07
3.49722e-07
3.54885e-07
3.59559e-07
3.63726e-07
3.67503e-07
3.70924e-07
3.74057e-07
3.76943e-07
3.79626e-07
3.82133e-07
3.84472e-07
3.86621e-07
3.88479e-07
3.89883e-07
3.90375e-07
3.8964e-07
2.97032e-07
3.06208e-07
3.15138e-07
3.23121e-07
3.30689e-07
3.37617e-07
3.44064e-07
3.49988e-07
3.55454e-07
3.60469e-07
3.65071e-07
3.69282e-07
3.73128e-07
3.76629e-07
3.79792e-07
3.82602e-07
3.84979e-07
3.8678e-07
3.87574e-07
3.86985e-07
2.71417e-07
2.82096e-07
2.92705e-07
3.02618e-07
3.12156e-07
3.211e-07
3.2952e-07
3.3735e-07
3.44611e-07
3.51289e-07
3.57396e-07
3.62936e-07
3.67924e-07
3.72368e-07
3.76273e-07
3.79636e-07
3.82408e-07
3.84495e-07
3.85569e-07
3.85257e-07
2.44239e-07
2.57221e-07
2.70172e-07
2.82571e-07
2.94523e-07
3.05827e-07
3.16483e-07
3.2641e-07
3.35602e-07
3.44029e-07
3.51692e-07
3.58583e-07
3.64703e-07
3.70049e-07
3.74615e-07
3.78392e-07
3.8135e-07
3.83466e-07
3.8459e-07
3.84566e-07
2.18663e-07
2.346e-07
2.50342e-07
2.65483e-07
2.80008e-07
2.93716e-07
3.06585e-07
3.18529e-07
3.2954e-07
3.39587e-07
3.48671e-07
3.56783e-07
3.63915e-07
3.70055e-07
3.75172e-07
3.7924e-07
3.82203e-07
3.84083e-07
3.84827e-07
3.84708e-07
3.43252e-07
3.66376e-07
4.05821e-07
4.49253e-07
4.92462e-07
5.30497e-07
5.61297e-07
5.8339e-07
5.97095e-07
5.99948e-07
3.25137e-07
3.46701e-07
3.83107e-07
4.2416e-07
4.66428e-07
5.05221e-07
5.38435e-07
5.63942e-07
5.81652e-07
5.88614e-07
3.08913e-07
3.2948e-07
3.63355e-07
4.01809e-07
4.42077e-07
4.79843e-07
5.13341e-07
5.40787e-07
5.62212e-07
5.75431e-07
2.94071e-07
3.13971e-07
3.45751e-07
3.819e-07
4.20303e-07
4.56964e-07
4.90153e-07
5.18178e-07
5.40622e-07
5.57644e-07
2.80144e-07
2.9959e-07
3.2959e-07
3.63565e-07
3.99982e-07
4.35267e-07
4.67841e-07
4.96363e-07
5.19517e-07
5.38713e-07
2.67068e-07
2.86227e-07
3.14762e-07
3.46811e-07
3.81308e-07
4.15039e-07
4.46487e-07
4.74762e-07
4.97922e-07
5.18529e-07
2.54599e-07
2.73563e-07
3.00857e-07
3.31189e-07
3.63885e-07
3.9609e-07
4.26342e-07
4.54136e-07
4.76959e-07
4.98019e-07
2.42696e-07
2.61504e-07
2.87728e-07
3.16514e-07
3.47496e-07
3.78137e-07
4.07045e-07
4.34062e-07
4.56376e-07
4.77452e-07
2.31275e-07
2.49925e-07
2.75189e-07
3.02569e-07
3.31952e-07
3.6107e-07
3.8862e-07
4.14679e-07
4.36331e-07
4.57041e-07
2.20337e-07
2.38774e-07
2.63124e-07
2.89171e-07
3.17012e-07
3.44606e-07
3.70774e-07
3.95747e-07
4.16669e-07
4.36814e-07
2.09905e-07
2.2803e-07
2.51444e-07
2.7617e-07
3.02494e-07
3.2856e-07
3.53335e-07
3.77126e-07
3.97246e-07
4.16693e-07
2.00061e-07
2.17715e-07
2.40087e-07
2.63424e-07
2.88187e-07
3.12679e-07
3.36028e-07
3.58567e-07
3.77843e-07
3.96524e-07
1.90968e-07
2.079e-07
2.29002e-07
2.50766e-07
2.7384e-07
2.96666e-07
3.18537e-07
3.39767e-07
3.58163e-07
3.76052e-07
1.8287e-07
1.98704e-07
2.18163e-07
2.38059e-07
2.59226e-07
2.80242e-07
3.00554e-07
3.20424e-07
3.37918e-07
3.55019e-07
1.76236e-07
1.90314e-07
2.07427e-07
2.24926e-07
2.43837e-07
2.62854e-07
2.81522e-07
3.00012e-07
3.16628e-07
3.33005e-07
1.71622e-07
1.8282e-07
1.96644e-07
2.11137e-07
2.27382e-07
2.44186e-07
2.61128e-07
2.7824e-07
2.94041e-07
3.09795e-07
1.70273e-07
1.76403e-07
1.85008e-07
1.95433e-07
2.08514e-07
2.22965e-07
2.38237e-07
2.54136e-07
2.69353e-07
2.8475e-07
1.72414e-07
1.69887e-07
1.71637e-07
1.77412e-07
1.87082e-07
1.99182e-07
2.12959e-07
2.27915e-07
2.42876e-07
2.58258e-07
1.81162e-07
1.617e-07
1.52489e-07
1.52573e-07
1.59226e-07
1.69712e-07
1.82848e-07
1.97722e-07
2.13263e-07
2.29408e-07
1.84785e-07
1.41678e-07
1.26271e-07
1.21911e-07
1.27075e-07
1.37097e-07
1.50725e-07
1.66598e-07
1.83682e-07
2.01458e-07
)
;

boundaryField
{
    left
    {
        type            calculated;
        value           nonuniform List<scalar> 
30
(
3.39344e-07
3.21437e-07
3.05407e-07
2.90736e-07
2.77e-07
2.64129e-07
2.51907e-07
2.40301e-07
2.29247e-07
2.18759e-07
2.08883e-07
1.99717e-07
1.91442e-07
1.84329e-07
1.78869e-07
1.75792e-07
1.76581e-07
1.8302e-07
2.01311e-07
2.29861e-07
1.53478e-06
9.85057e-07
7.41823e-07
6.16746e-07
5.38807e-07
4.83474e-07
4.41979e-07
4.09019e-07
3.8211e-07
3.5888e-07
)
;
    }
    right
    {
        type            calculated;
        value           nonuniform List<scalar> 
30
(
3.84559e-07
3.84451e-07
3.85478e-07
3.8813e-07
3.92099e-07
3.97131e-07
4.02784e-07
4.08653e-07
4.14334e-07
4.19456e-07
4.23668e-07
4.26804e-07
4.28929e-07
4.30081e-07
4.30073e-07
4.28984e-07
4.26985e-07
4.24076e-07
4.20423e-07
4.16177e-07
4.11529e-07
4.06678e-07
4.01843e-07
3.9724e-07
3.93095e-07
3.89604e-07
3.86964e-07
3.85254e-07
3.84581e-07
3.84633e-07
)
;
    }
    down
    {
        type            calculated;
        value           nonuniform List<scalar> 
30
(
2.11685e-09
1.27662e-09
1.74227e-08
4.29693e-08
7.23935e-08
1.03151e-07
1.33199e-07
1.61844e-07
1.88121e-07
2.12463e-07
2.34378e-07
2.53473e-07
2.71011e-07
2.86781e-07
3.01006e-07
3.13753e-07
3.25179e-07
3.35363e-07
3.44427e-07
3.52437e-07
3.59475e-07
3.65589e-07
3.70824e-07
3.75206e-07
3.78746e-07
3.81465e-07
3.83353e-07
3.84481e-07
3.84844e-07
3.84718e-07
)
;
    }
    up
    {
        type            calculated;
        value           nonuniform List<scalar> 
30
(
1.82138e-07
1.40059e-07
1.2543e-07
1.20969e-07
1.25984e-07
1.35851e-07
1.49383e-07
1.65227e-07
1.82298e-07
2.00147e-07
2.17407e-07
2.33473e-07
2.49369e-07
2.64638e-07
2.79295e-07
2.93118e-07
3.06096e-07
3.18136e-07
3.29232e-07
3.39354e-07
3.48504e-07
3.5667e-07
3.63849e-07
3.70024e-07
3.75168e-07
3.79251e-07
3.82215e-07
3.84088e-07
3.84819e-07
3.84766e-07
)
;
    }
    hole
    {
        type            calculated;
        value           nonuniform List<scalar> 
20
(
6.867e-07
8.05473e-07
9.21559e-07
1.03265e-06
1.13524e-06
1.2299e-06
1.31146e-06
1.39007e-06
1.45036e-06
1.52062e-06
3.15314e-10
3.69052e-10
1.41699e-08
4.66904e-08
9.74259e-08
1.65928e-07
2.49939e-07
3.47086e-07
4.54334e-07
5.68646e-07
)
;
    }
    frontAndBack
    {
        type            empty;
    }
}


// ************************************************************************* //
