/*--------------------------------*- C++ -*----------------------------------*\
  =========                 |
  \\      /  F ield         | OpenFOAM: The Open Source CFD Toolbox
   \\    /   O peration     | Website:  https://openfoam.org
    \\  /    A nd           | Version:  9
     \\/     M anipulation  |
\*---------------------------------------------------------------------------*/
FoamFile
{
    format      ascii;
    class       volSymmTensorField;
    location    "1";
    object      epsilon;
}
// * * * * * * * * * * * * * * * * * * * * * * * * * * * * * * * * * * * * * //

dimensions      [0 0 0 0 0 0 0];

internalField   nonuniform List<symmTensor> 
1000
(
(4.21384e-07 -5.46863e-07 7.13107e-20 8.53352e-08 7.80558e-20 2.13048e-34)
(5.81175e-07 -4.21687e-07 -8.67962e-22 -1.03284e-07 4.86976e-22 0)
(6.59469e-07 -3.22952e-07 1.01266e-21 -1.93468e-07 -1.95193e-22 0)
(7.03352e-07 -2.48493e-07 2.59971e-22 -2.56778e-07 -1.86343e-22 0)
(7.24478e-07 -1.88608e-07 -1.0995e-21 -2.91851e-07 8.23897e-23 0)
(7.31545e-07 -1.41798e-07 -1.18912e-22 -3.143e-07 1.31056e-22 0)
(7.30686e-07 -1.03757e-07 -9.99028e-22 -3.26441e-07 -5.35476e-22 0)
(7.24019e-07 -7.35117e-08 6.85623e-22 -3.32632e-07 3.19712e-22 0)
(7.15379e-07 -4.83738e-08 -3.53718e-22 -3.34878e-07 -4.02832e-22 0)
(7.02826e-07 -2.74625e-08 0 -3.35202e-07 0 0)
(5.70254e-07 -6.08014e-07 7.03794e-20 2.39612e-08 9.03612e-20 1.22138e-35)
(6.94107e-07 -4.35267e-07 0 -1.4377e-07 0 0)
(7.4712e-07 -3.10557e-07 8.10735e-22 -2.1807e-07 3.85884e-22 0)
(7.71653e-07 -2.20947e-07 -1.39112e-21 -2.70813e-07 -7.41231e-22 0)
(7.77722e-07 -1.52627e-07 -5.91281e-22 -2.97437e-07 -3.56254e-22 0)
(7.72894e-07 -1.01531e-07 4.11625e-22 -3.13992e-07 4.1984e-22 0)
(7.62386e-07 -6.16362e-08 4.6082e-22 -3.21445e-07 3.08605e-22 0)
(7.48194e-07 -3.13103e-08 1.08338e-21 -3.24812e-07 6.31368e-22 0)
(7.32243e-07 -6.73446e-09 0 -3.23727e-07 0 0)
(7.15396e-07 1.29345e-08 0 -3.24289e-07 0 0)
(7.3705e-07 -6.46637e-07 6.73471e-20 -5.72962e-08 1.00792e-19 0)
(8.11064e-07 -4.34734e-07 0 -1.8952e-07 0 0)
(8.31227e-07 -2.89071e-07 7.72767e-22 -2.39987e-07 3.98833e-22 0)
(8.31824e-07 -1.87594e-07 -2.31763e-22 -2.77413e-07 8.24338e-23 0)
(8.20112e-07 -1.1331e-07 -1.13489e-23 -2.92755e-07 5.09642e-24 0)
(8.01763e-07 -5.97841e-08 -3.83788e-22 -3.01725e-07 -3.97238e-22 0)
(7.80753e-07 -1.95772e-08 5.23811e-22 -3.03479e-07 2.4154e-22 0)
(7.58419e-07 9.78803e-09 -3.88989e-22 -3.03268e-07 -2.87095e-22 0)
(7.3577e-07 3.26138e-08 -3.1307e-23 -2.99083e-07 5.46447e-23 0)
(7.1394e-07 5.11704e-08 -8.21319e-23 -2.98757e-07 -3.51138e-23 0)
(9.15534e-07 -6.57214e-07 5.90103e-20 -1.53846e-07 1.0618e-19 -6.78152e-36)
(9.29118e-07 -4.18376e-07 4.42415e-22 -2.38808e-07 -4.60036e-23 0)
(9.10463e-07 -2.58842e-07 -3.53213e-22 -2.58816e-07 -1.99075e-22 0)
(8.83332e-07 -1.5007e-07 -2.23671e-22 -2.76902e-07 4.38161e-23 0)
(8.51628e-07 -7.30831e-08 4.00736e-22 -2.78682e-07 3.87336e-22 0)
(8.18642e-07 -1.94093e-08 -4.82247e-22 -2.78922e-07 -3.18592e-22 0)
(7.86685e-07 1.94012e-08 -4.16637e-22 -2.74608e-07 -2.96259e-22 0)
(7.56336e-07 4.67278e-08 -9.28581e-22 -2.70762e-07 -6.78817e-22 0)
(7.27429e-07 6.6879e-08 -1.33188e-22 -2.64052e-07 -1.6295e-22 0)
(7.01302e-07 8.32881e-08 2.27462e-22 -2.62556e-07 2.01281e-22 0)
(1.09685e-06 -6.34812e-07 4.86853e-20 -2.5943e-07 1.06069e-19 -1.2387e-34)
(1.04443e-06 -3.83959e-07 2.31342e-26 -2.89365e-07 1.08792e-27 0)
(9.82834e-07 -2.19413e-07 -1.14341e-21 -2.73773e-07 -5.59313e-22 0)
(9.25271e-07 -1.09197e-07 1.03844e-22 -2.69345e-07 -4.11535e-24 0)
(8.72065e-07 -3.37433e-08 -1.45523e-22 -2.55814e-07 1.58156e-23 0)
(8.23867e-07 1.70925e-08 3.47361e-22 -2.46573e-07 3.20834e-22 0)
(7.81054e-07 5.23465e-08 -3.88808e-23 -2.36138e-07 1.17349e-23 0)
(7.43082e-07 7.61578e-08 3.66453e-22 -2.28857e-07 2.44543e-22 0)
(7.0878e-07 9.25657e-08 -7.94185e-23 -2.20359e-07 -1.70622e-22 0)
(6.78952e-07 1.05943e-07 -1.44961e-22 -2.17944e-07 -1.17058e-22 0)
(1.27493e-06 -5.78201e-07 3.60011e-20 -3.67072e-07 9.9642e-20 -1.29954e-34)
(1.15423e-06 -3.30037e-07 2.10948e-26 -3.37845e-07 4.44186e-27 0)
(1.04714e-06 -1.70232e-07 -1.14118e-26 -2.83055e-07 -1.7531e-27 0)
(9.57354e-07 -6.57655e-08 9.17553e-23 -2.54257e-07 1.11214e-23 0)
(8.81915e-07 2.9944e-09 -4.94808e-22 -2.2472e-07 -3.00429e-22 0)
(8.18658e-07 4.74372e-08 5.63617e-24 -2.06173e-07 -7.08014e-26 0)
(7.65627e-07 7.6784e-08 3.68279e-22 -1.90244e-07 2.49101e-22 0)
(7.20877e-07 9.55807e-08 7.83141e-22 -1.80204e-07 5.72322e-22 0)
(6.82174e-07 1.07373e-07 1.4186e-22 -1.70809e-07 1.04007e-22 0)
(6.49421e-07 1.17007e-07 -2.47712e-22 -1.67886e-07 -1.95106e-22 0)
(1.43782e-06 -4.83786e-07 2.59716e-20 -4.68196e-07 8.80085e-20 -2.79461e-34)
(1.25208e-06 -2.52615e-07 3.30836e-22 -3.79131e-07 1.32515e-22 0)
(1.09778e-06 -1.09854e-07 3.50036e-22 -2.82567e-07 1.58625e-22 0)
(9.75809e-07 -2.02515e-08 -7.54063e-23 -2.29481e-07 -2.24023e-23 0)
(8.79395e-07 3.54236e-08 3.57887e-22 -1.85267e-07 2.3915e-22 0)
(8.02914e-07 6.9322e-08 -3.29333e-22 -1.59168e-07 -2.26608e-22 0)
(7.41598e-07 9.03075e-08 9.35671e-23 -1.39507e-07 5.25373e-24 0)
(6.91739e-07 1.02713e-07 -2.93993e-22 -1.28095e-07 -1.9245e-22 0)
(6.50122e-07 1.09352e-07 -2.0314e-23 -1.1902e-07 2.80055e-24 0)
(6.15433e-07 1.1488e-07 -1.48968e-22 -1.16227e-07 -9.70303e-23 0)
(1.59032e-06 -3.51293e-07 1.58608e-20 -5.5539e-07 7.1103e-20 -1.14141e-35)
(1.33445e-06 -1.47756e-07 -8.82867e-22 -4.03077e-07 -3.16975e-22 0)
(1.13121e-06 -3.73781e-08 6.82986e-24 -2.64119e-07 3.7437e-24 0)
(9.79699e-07 2.47697e-08 1.10241e-22 -1.91215e-07 5.58015e-23 0)
(8.65767e-07 6.00828e-08 8.18226e-22 -1.37156e-07 4.06114e-22 0)
(7.79682e-07 7.95646e-08 -4.83068e-23 -1.07692e-07 -1.50238e-23 0)
(7.13089e-07 9.05918e-08 1.20266e-27 -8.75647e-08 2.33917e-28 0)
(6.6045e-07 9.61829e-08 -2.87694e-22 -7.69651e-08 -1.51459e-22 0)
(6.17642e-07 9.80469e-08 6.97313e-24 -6.96793e-08 2.20473e-25 0)
(5.82131e-07 9.98474e-08 2.15276e-23 -6.77573e-08 1.05094e-23 0)
(1.70796e-06 -1.64332e-07 6.74542e-21 -6.0654e-07 5.00297e-20 1.17163e-34)
(1.3746e-06 -1.51699e-08 -9.72376e-22 -3.83086e-07 -4.06926e-22 0)
(1.12494e-06 3.7428e-08 1.0148e-22 -2.10267e-07 8.63694e-23 0)
(9.54732e-07 5.71791e-08 9.53569e-23 -1.31562e-07 7.53555e-23 0)
(8.34915e-07 6.71414e-08 -3.9898e-23 -8.01917e-08 -2.4307e-23 0)
(7.47569e-07 7.06113e-08 3.18808e-22 -5.54191e-08 1.15515e-22 0)
(6.81497e-07 7.23628e-08 1.73811e-23 -3.99793e-08 5.28435e-24 0)
(6.29635e-07 7.24327e-08 5.1417e-22 -3.29634e-08 1.96291e-22 0)
(5.87763e-07 7.12415e-08 1.13522e-22 -2.88239e-08 4.38027e-23 0)
(5.52566e-07 7.06679e-08 6.36454e-23 -2.82962e-08 2.56016e-23 0)
(1.81255e-06 1.46699e-07 1.61097e-21 -5.59567e-07 2.82132e-20 1.21936e-34)
(1.34019e-06 1.63781e-07 -7.43399e-23 -2.52182e-07 -1.28881e-22 0)
(1.07796e-06 1.08036e-07 3.37852e-22 -1.05531e-07 1.43028e-22 0)
(9.14539e-07 6.99879e-08 1.73471e-23 -5.20352e-08 2.43778e-23 0)
(8.04616e-07 5.52232e-08 5.92746e-28 -2.44315e-08 5.51992e-28 0)
(7.23571e-07 4.70182e-08 3.23327e-22 -1.33638e-08 5.77171e-23 0)
(6.6201e-07 4.41319e-08 5.00064e-24 -7.46725e-09 1.45679e-24 0)
(6.12565e-07 4.2475e-08 2.47794e-22 -5.49462e-09 4.66889e-23 0)
(5.7215e-07 4.11827e-08 -2.73176e-24 -4.62179e-09 -1.7163e-25 0)
(5.37188e-07 4.03202e-08 -4.15997e-24 -4.95982e-09 -8.55945e-25 0)
(-2.03477e-09 1.47469e-09 3.75071e-20 4.1934e-10 2.04985e-20 1.74804e-34)
(1.85336e-09 -4.39375e-09 -2.07178e-23 1.65683e-10 1.8779e-20 1.59163e-36)
(2.10047e-08 -1.42172e-08 -2.38394e-22 -9.09705e-09 1.80381e-20 1.98304e-35)
(5.11967e-08 -2.20775e-08 -2.20477e-24 -2.29002e-08 1.82801e-20 0)
(8.5969e-08 -2.6924e-08 -3.36586e-23 -3.82403e-08 1.78861e-20 -1.58958e-36)
(1.22316e-07 -2.96819e-08 -3.26148e-22 -5.40206e-08 1.82094e-20 3.32206e-35)
(1.57824e-07 -3.07622e-08 7.09277e-23 -6.92557e-08 1.85766e-20 1.58717e-36)
(1.91676e-07 -3.08461e-08 -2.17048e-22 -8.36424e-08 1.83347e-20 3.01736e-35)
(2.22728e-07 -3.00227e-08 1.7202e-22 -9.6883e-08 1.83922e-20 -1.30936e-35)
(2.51493e-07 -2.93857e-08 5.19249e-22 -1.08803e-07 1.8296e-20 -3.94891e-35)
(3.3992e-09 -4.74372e-09 3.84593e-20 -8.9688e-10 4.83784e-21 4.79661e-35)
(2.2367e-08 -2.64836e-08 2.61614e-22 5.35728e-10 2.86954e-22 0)
(5.69653e-08 -5.04848e-08 -2.44851e-22 -1.38601e-08 -2.45864e-22 0)
(9.54423e-08 -6.88232e-08 2.40042e-24 -3.32816e-08 -2.03753e-22 0)
(1.34041e-07 -8.00997e-08 0 -5.26395e-08 0 0)
(1.70647e-07 -8.64185e-08 -3.71566e-22 -7.08764e-08 -5.48157e-23 0)
(2.0437e-07 -8.86954e-08 6.26517e-23 -8.72837e-08 3.19947e-22 0)
(2.35353e-07 -8.85397e-08 4.67833e-24 -1.01958e-07 1.72132e-23 0)
(2.62652e-07 -8.60857e-08 -2.00333e-22 -1.14854e-07 -5.8183e-22 0)
(2.87999e-07 -8.41278e-08 1.46755e-22 -1.25815e-07 2.26296e-23 0)
(5.4868e-09 -2.40565e-08 3.92352e-20 7.78525e-09 7.79712e-21 -2.13293e-36)
(4.18004e-08 -6.63939e-08 2.67585e-22 3.04967e-09 2.83465e-22 0)
(9.06434e-08 -9.61188e-08 2.7996e-22 -1.93296e-08 5.84177e-23 0)
(1.38588e-07 -1.16031e-07 1.44035e-23 -4.70989e-08 -1.96511e-22 0)
(1.82712e-07 -1.27001e-07 0 -7.26931e-08 0 0)
(2.21523e-07 -1.3216e-07 -4.15864e-22 -9.51446e-08 -1.08234e-22 0)
(2.55228e-07 -1.32786e-07 -5.67239e-22 -1.14003e-07 -1.58399e-22 0)
(2.84862e-07 -1.30662e-07 3.75282e-22 -1.29885e-07 2.29204e-22 0)
(3.09495e-07 -1.26032e-07 2.27894e-24 -1.42841e-07 7.33024e-24 0)
(3.32482e-07 -1.22138e-07 -3.37548e-22 -1.53379e-07 -2.13167e-22 0)
(8.6337e-09 -5.43191e-08 4.10758e-20 2.84194e-08 1.13051e-20 -3.76804e-35)
(6.84106e-08 -1.14226e-07 6.60198e-23 5.67189e-09 -2.38292e-22 0)
(1.30463e-07 -1.45473e-07 3.0767e-22 -2.66876e-08 5.99255e-23 0)
(1.87012e-07 -1.62992e-07 0 -6.2668e-08 0 0)
(2.35986e-07 -1.70244e-07 -5.24322e-22 -9.39814e-08 1.95738e-22 0)
(2.76932e-07 -1.71591e-07 6.33708e-24 -1.20476e-07 4.83594e-22 0)
(3.108e-07 -1.68666e-07 -2.61021e-23 -1.41865e-07 -2.59808e-22 0)
(3.39411e-07 -1.6325e-07 -7.51521e-23 -1.59209e-07 -4.01052e-22 0)
(3.61721e-07 -1.55718e-07 1.71262e-22 -1.7261e-07 5.54286e-23 0)
(3.82742e-07 -1.49349e-07 3.19688e-22 -1.8315e-07 1.19636e-22 0)
(1.67927e-08 -9.70618e-08 4.11142e-20 5.70953e-08 1.57742e-20 8.09164e-35)
(1.05873e-07 -1.66293e-07 -5.40189e-22 5.0504e-09 3.6229e-22 0)
(1.81167e-07 -1.94369e-07 -3.27595e-22 -4.08418e-08 -9.61661e-23 0)
(2.45035e-07 -2.06041e-07 -8.83683e-23 -8.57276e-08 3.545e-22 0)
(2.97221e-07 -2.06808e-07 -3.46521e-24 -1.22226e-07 2.18688e-23 0)
(3.38953e-07 -2.02235e-07 5.05064e-22 -1.51967e-07 -1.36013e-22 0)
(3.71976e-07 -1.94236e-07 2.20031e-22 -1.75099e-07 5.75816e-23 0)
(3.9882e-07 -1.84437e-07 0 -1.93227e-07 0 0)
(4.18358e-07 -1.73429e-07 -2.35008e-22 -2.0654e-07 -3.09117e-22 0)
(4.37065e-07 -1.64064e-07 9.37023e-23 -2.16673e-07 2.26459e-23 0)
(3.4572e-08 -1.53225e-07 4.45288e-20 8.935e-08 2.01615e-20 -9.2979e-35)
(1.5545e-07 -2.19075e-07 2.20415e-22 1.06969e-09 -4.29601e-22 0)
(2.43251e-07 -2.38347e-07 -2.70581e-22 -6.02332e-08 -2.91681e-22 0)
(3.12594e-07 -2.41182e-07 5.94421e-23 -1.13826e-07 -1.65088e-22 0)
(3.65974e-07 -2.33724e-07 5.72331e-22 -1.54458e-07 1.91123e-22 0)
(4.06728e-07 -2.22181e-07 -5.5207e-22 -1.86288e-07 6.19851e-23 0)
(4.37517e-07 -2.08471e-07 -6.23811e-25 -2.10149e-07 1.46649e-23 0)
(4.61479e-07 -1.93913e-07 -4.30135e-22 -2.28211e-07 -2.95995e-22 0)
(4.77543e-07 -1.79326e-07 9.05859e-25 -2.40894e-07 5.75685e-24 0)
(4.93266e-07 -1.66816e-07 -4.69628e-22 -2.50134e-07 -2.14272e-22 0)
(6.71231e-08 -2.22196e-07 5.09403e-20 1.18318e-07 2.80763e-20 -7.67608e-35)
(2.17564e-07 -2.70476e-07 1.21998e-23 -7.65257e-09 -1.84788e-23 0)
(3.15579e-07 -2.74796e-07 -8.93685e-27 -8.43475e-08 1.52626e-26 0)
(3.87923e-07 -2.65813e-07 -5.84752e-22 -1.45852e-07 -4.09402e-22 0)
(4.40247e-07 -2.48754e-07 -9.91722e-23 -1.89408e-07 2.65594e-22 0)
(4.78081e-07 -2.29677e-07 -5.35789e-22 -2.22114e-07 -2.1767e-22 0)
(5.05115e-07 -2.10102e-07 9.63155e-22 -2.45607e-07 4.28659e-22 0)
(5.24934e-07 -1.90863e-07 -1.1479e-25 -2.62699e-07 1.15223e-23 0)
(5.3676e-07 -1.72943e-07 1.89532e-22 -2.74097e-07 -1.10413e-24 0)
(5.48652e-07 -1.57394e-07 -2.56885e-22 -2.81924e-07 -1.2209e-22 0)
(1.19215e-07 -3.01409e-07 5.88482e-20 1.37557e-07 3.81383e-20 -1.27143e-34)
(2.92e-07 -3.18484e-07 3.14201e-22 -2.17011e-08 -3.75409e-22 0)
(3.95857e-07 -3.01982e-07 -1.21263e-22 -1.11103e-07 1.61667e-22 0)
(4.67869e-07 -2.78529e-07 7.41206e-23 -1.78539e-07 -1.15626e-22 0)
(5.16647e-07 -2.50935e-07 6.60787e-27 -2.234e-07 -1.29905e-26 0)
(5.49613e-07 -2.24232e-07 6.21736e-22 -2.5568e-07 5.20086e-23 0)
(5.71486e-07 -1.99095e-07 4.6585e-23 -2.77834e-07 -2.02751e-22 0)
(5.86005e-07 -1.75703e-07 -1.55152e-23 -2.9312e-07 1.66882e-22 0)
(5.93058e-07 -1.55034e-07 2.2029e-24 -3.02935e-07 8.33526e-23 0)
(6.00259e-07 -1.36851e-07 1.96379e-22 -3.08792e-07 1.83462e-22 0)
(1.94617e-07 -3.86221e-07 6.45877e-20 1.41015e-07 5.09631e-20 1.49905e-34)
(3.78228e-07 -3.61117e-07 -1.0112e-22 -4.20747e-08 6.88125e-22 0)
(4.81622e-07 -3.19109e-07 -1.17213e-26 -1.39121e-07 1.22994e-26 0)
(5.49152e-07 -2.79195e-07 8.04508e-22 -2.09423e-07 1.88371e-22 0)
(5.9165e-07 -2.40569e-07 6.145e-22 -2.53531e-07 3.06387e-22 0)
(6.178e-07 -2.06521e-07 5.54388e-22 -2.8402e-07 2.76465e-22 0)
(6.33177e-07 -1.76385e-07 -6.04908e-23 -3.03776e-07 1.74359e-22 0)
(6.41345e-07 -1.49712e-07 -6.67585e-22 -3.167e-07 -3.72534e-22 0)
(6.43239e-07 -1.26998e-07 4.09856e-22 -3.24445e-07 9.64358e-23 0)
(6.45196e-07 -1.06686e-07 1.83847e-22 -3.28857e-07 1.09106e-22 0)
(2.95373e-07 -4.70476e-07 6.88219e-20 1.24396e-07 6.37084e-20 1.98353e-35)
(4.75133e-07 -3.96281e-07 -2.03701e-22 -6.9204e-08 1.50454e-22 0)
(5.70229e-07 -3.26042e-07 -3.95091e-22 -1.66885e-07 -1.83972e-22 0)
(6.28434e-07 -2.68691e-07 1.71129e-21 -2.35989e-07 3.99754e-22 0)
(6.61656e-07 -2.19096e-07 1.04675e-23 -2.76898e-07 -1.19322e-23 0)
(6.79032e-07 -1.78232e-07 -5.45209e-22 -3.04037e-07 -3.09189e-22 0)
(6.86653e-07 -1.43869e-07 -5.84048e-22 -3.20493e-07 -9.11538e-23 0)
(6.87548e-07 -1.14884e-07 -2.2012e-22 -3.30104e-07 -1.31487e-22 0)
(6.84511e-07 -9.13829e-08 2.4322e-23 -3.36314e-07 -1.82846e-22 0)
(6.79516e-07 -7.10018e-08 1.10246e-22 -3.36837e-07 2.30901e-22 0)
(2.7739e-07 -2.7249e-08 8.25855e-22 -1.19887e-07 1.85408e-20 -1.17542e-35)
(2.99955e-07 -2.42941e-08 9.36928e-22 -1.29124e-07 1.82862e-20 -2.58315e-35)
(3.20681e-07 -2.17262e-08 5.32273e-22 -1.37694e-07 1.78275e-20 -1.50706e-35)
(3.39316e-07 -1.93955e-08 5.72509e-22 -1.45448e-07 1.80555e-20 -6.61485e-37)
(3.56126e-07 -1.72353e-08 3.38442e-22 -1.52423e-07 1.80764e-20 3.92944e-35)
(3.7119e-07 -1.53014e-08 5.9964e-22 -1.5871e-07 1.81604e-20 0)
(3.84692e-07 -1.35293e-08 5.65445e-22 -1.64336e-07 1.81463e-20 0)
(3.96727e-07 -1.193e-08 6.41424e-22 -1.69369e-07 1.82689e-20 5.10783e-37)
(4.07437e-07 -1.04644e-08 5.94145e-22 -1.73849e-07 1.81573e-20 -1.33539e-35)
(4.16903e-07 -9.12218e-09 6.93079e-22 -1.77819e-07 1.83843e-20 8.66531e-37)
(4.2522e-07 -7.8732e-09 7.22465e-22 -1.81312e-07 1.82119e-20 -4.04605e-35)
(4.32446e-07 -6.70025e-09 2.89829e-22 -1.84357e-07 1.80521e-20 1.35545e-35)
(4.38632e-07 -5.58019e-09 6.54665e-22 -1.86972e-07 1.81963e-20 -4.08688e-35)
(4.4381e-07 -4.49592e-09 -5.39387e-23 -1.89172e-07 1.76466e-20 -8.20729e-37)
(4.47994e-07 -3.43407e-09 3.02322e-22 -1.90962e-07 1.81728e-20 1.39949e-35)
(4.51207e-07 -2.39248e-09 2.42428e-22 -1.92352e-07 1.80618e-20 -3.31326e-45)
(4.53438e-07 -1.38691e-09 7.84863e-23 -1.93335e-07 1.79102e-20 -1.49499e-37)
(4.54771e-07 -4.73883e-10 2.93218e-22 -1.93928e-07 1.82019e-20 1.0728e-37)
(4.55198e-07 2.26331e-10 1.90162e-22 -1.94109e-07 1.7868e-20 -4.22816e-35)
(4.55051e-07 3.90816e-10 3.27451e-20 -1.93845e-07 1.76251e-20 -8.23305e-35)
(3.08846e-07 -7.83209e-08 3.59158e-22 -1.35695e-07 4.41359e-22 0)
(3.25568e-07 -7.04737e-08 2.32764e-22 -1.42746e-07 6.35004e-23 0)
(3.41559e-07 -6.35629e-08 1.74297e-23 -1.4924e-07 -1.01038e-22 0)
(3.55901e-07 -5.71167e-08 5.28867e-22 -1.55201e-07 4.76457e-22 0)
(3.69109e-07 -5.10781e-08 -1.01603e-22 -1.60519e-07 -2.38447e-23 0)
(3.81031e-07 -4.56227e-08 -4.31295e-22 -1.65402e-07 -4.3693e-22 0)
(3.91888e-07 -4.0573e-08 2.19869e-22 -1.69784e-07 8.10323e-23 0)
(4.01663e-07 -3.59876e-08 0 -1.73767e-07 0 0)
(4.10485e-07 -3.17582e-08 1.04773e-22 -1.7735e-07 3.69379e-23 0)
(4.18378e-07 -2.78671e-08 2.15418e-22 -1.80579e-07 8.26774e-23 0)
(4.25421e-07 -2.42399e-08 6.46127e-22 -1.83469e-07 3.32948e-22 0)
(4.31649e-07 -2.08346e-08 2.91668e-24 -1.86045e-07 3.33485e-24 0)
(4.37106e-07 -1.75951e-08 8.38237e-23 -1.88315e-07 -6.55553e-23 0)
(4.41821e-07 -1.44815e-08 1.23355e-22 -1.90288e-07 1.41129e-22 0)
(4.45815e-07 -1.14634e-08 1.2655e-22 -1.91957e-07 1.45161e-22 0)
(4.49111e-07 -8.53998e-09 -1.25364e-22 -1.93307e-07 -1.44532e-22 0)
(4.51688e-07 -5.74644e-09 -1.26074e-22 -1.94291e-07 -1.4617e-22 0)
(4.53576e-07 -3.20322e-09 -2.5319e-22 -1.94828e-07 -2.95267e-22 0)
(4.54625e-07 -1.095e-09 -1.91573e-24 -1.94732e-07 -2.09686e-24 0)
(4.54885e-07 2.50258e-11 3.31798e-20 -1.93703e-07 4.78768e-22 7.37033e-35)
(3.4853e-07 -1.13437e-07 9.82896e-23 -1.61512e-07 1.34412e-22 0)
(3.59045e-07 -1.02743e-07 1.34017e-22 -1.65698e-07 4.76764e-23 0)
(3.69942e-07 -9.31498e-08 -3.11557e-22 -1.69211e-07 -3.92317e-22 0)
(3.7949e-07 -8.42464e-08 -2.78699e-23 -1.72546e-07 7.17839e-23 0)
(3.88642e-07 -7.5766e-08 5.68248e-22 -1.75391e-07 4.72806e-22 0)
(3.96936e-07 -6.80694e-08 -4.5143e-22 -1.78116e-07 -4.30851e-22 0)
(4.04708e-07 -6.08695e-08 -1.20193e-22 -1.80569e-07 -1.39205e-22 0)
(4.11797e-07 -5.42927e-08 2.29716e-22 -1.82887e-07 2.61292e-22 0)
(4.18349e-07 -4.81873e-08 9.35023e-25 -1.85033e-07 -1.69968e-22 0)
(4.24318e-07 -4.25518e-08 -2.43072e-22 -1.87051e-07 -2.73347e-22 0)
(4.29772e-07 -3.72927e-08 2.32919e-22 -1.88937e-07 2.60989e-22 0)
(4.34713e-07 -3.23644e-08 3.59915e-22 -1.90705e-07 4.03516e-22 0)
(4.39171e-07 -2.76989e-08 2.75388e-24 -1.92349e-07 3.03537e-24 0)
(4.43158e-07 -2.3249e-08 -1.23236e-22 -1.93861e-07 -1.38964e-22 0)
(4.4668e-07 -1.89734e-08 1.21996e-22 -1.95213e-07 1.38397e-22 0)
(4.4974e-07 -1.4856e-08 1.79836e-29 -1.9635e-07 2.0029e-29 0)
(4.52272e-07 -1.09063e-08 -1.25692e-22 -1.97161e-07 -1.44387e-22 0)
(4.54243e-07 -7.18618e-09 1.70618e-23 -1.9747e-07 1.04478e-22 0)
(4.55334e-07 -3.81097e-09 -4.1311e-22 -1.96906e-07 -5.22465e-23 0)
(4.55519e-07 -9.32095e-10 3.32809e-20 -1.95053e-07 4.74232e-22 5.4944e-38)
(3.9407e-07 -1.38209e-07 0 -1.89698e-07 0 0)
(3.9815e-07 -1.25959e-07 1.4329e-22 -1.91249e-07 5.20512e-23 0)
(4.0388e-07 -1.14663e-07 1.12213e-22 -1.91937e-07 1.28243e-22 0)
(4.08417e-07 -1.04362e-07 1.23155e-22 -1.92815e-07 1.42597e-22 0)
(4.13304e-07 -9.43366e-08 0 -1.93236e-07 0 0)
(4.17688e-07 -8.5238e-08 1.65969e-23 -1.93809e-07 -7.21433e-23 0)
(4.22102e-07 -7.66202e-08 -3.68466e-22 -1.94292e-07 -2.25964e-22 0)
(4.26211e-07 -6.87115e-08 -2.35214e-22 -1.94866e-07 -2.55634e-22 0)
(4.30209e-07 -6.13191e-08 -1.32187e-22 -1.95476e-07 -6.08524e-23 0)
(4.3397e-07 -5.44694e-08 -6.71627e-25 -1.96162e-07 1.63831e-22 0)
(4.37561e-07 -4.80613e-08 -1.1623e-22 -1.9691e-07 3.62749e-23 0)
(4.4094e-07 -4.20542e-08 2.43237e-22 -1.97722e-07 1.03987e-22 0)
(4.44123e-07 -3.63748e-08 2.3087e-22 -1.9858e-07 1.09168e-23 0)
(4.47094e-07 -3.09712e-08 5.66039e-24 -1.99461e-07 8.75911e-23 0)
(4.49834e-07 -2.57907e-08 1.00035e-23 -2.00312e-07 9.28478e-23 0)
(4.52317e-07 -2.07928e-08 -1.24271e-22 -2.01053e-07 -1.3985e-22 0)
(4.54435e-07 -1.59529e-08 -2.65411e-29 -2.01539e-07 -2.98846e-29 0)
(4.5613e-07 -1.12372e-08 2.65038e-22 -2.0156e-07 3.88986e-22 0)
(4.56994e-07 -6.68697e-09 -1.35063e-23 -2.007e-07 -1.02442e-22 0)
(4.57038e-07 -1.97192e-09 3.27952e-20 -1.98533e-07 1.06275e-22 -1.06515e-34)
(4.43471e-07 -1.51027e-07 1.10552e-23 -2.21197e-07 1.79311e-22 0)
(4.40877e-07 -1.38729e-07 -1.5571e-22 -2.2005e-07 -6.78933e-23 0)
(4.41412e-07 -1.26734e-07 -3.91664e-22 -2.17677e-07 -3.19028e-22 0)
(4.40804e-07 -1.16175e-07 2.57834e-22 -2.15991e-07 1.75353e-22 0)
(4.41353e-07 -1.05567e-07 6.70959e-22 -2.1384e-07 4.40279e-22 0)
(4.41677e-07 -9.59823e-08 -1.23279e-22 -2.12094e-07 -1.28882e-22 0)
(4.42587e-07 -8.67645e-08 0 -2.10431e-07 0 0)
(4.43536e-07 -7.82585e-08 1.20055e-22 -2.09068e-07 1.24964e-22 0)
(4.44792e-07 -7.02432e-08 -3.86255e-22 -2.07949e-07 -1.64536e-22 0)
(4.46143e-07 -6.27755e-08 -2.50609e-22 -2.07108e-07 -1.84563e-22 0)
(4.47659e-07 -5.57606e-08 1.39561e-23 -2.06532e-07 -1.42969e-22 0)
(4.49259e-07 -4.91676e-08 -1.26346e-22 -2.06211e-07 -2.13808e-22 0)
(4.5094e-07 -4.29273e-08 -1.27478e-23 -2.0612e-07 2.24928e-22 0)
(4.5266e-07 -3.69819e-08 2.46934e-22 -2.06222e-07 3.48296e-22 0)
(4.5438e-07 -3.12673e-08 1.20187e-22 -2.06453e-07 5.10562e-23 0)
(4.5605e-07 -2.57128e-08 -4.56102e-24 -2.06719e-07 -8.69927e-23 0)
(4.57539e-07 -2.02546e-08 2.32974e-22 -2.06862e-07 9.54574e-23 0)
(4.58774e-07 -1.47553e-08 1.14586e-22 -2.06672e-07 4.58065e-23 0)
(4.5934e-07 -9.2104e-09 4.70357e-22 -2.05759e-07 3.71154e-22 0)
(4.59278e-07 -2.88737e-09 3.38164e-20 -2.03733e-07 1.15166e-21 1.0552e-34)
(4.94583e-07 -1.52553e-07 9.1867e-23 -2.52457e-07 1.26226e-22 0)
(4.85255e-07 -1.41795e-07 2.21265e-24 -2.49014e-07 4.8498e-24 0)
(4.80757e-07 -1.30065e-07 -2.83153e-22 -2.43759e-07 -1.96093e-22 0)
(4.7501e-07 -1.2029e-07 -6.79998e-22 -2.39713e-07 -5.08614e-22 0)
(4.71302e-07 -1.09965e-07 2.65641e-22 -2.35184e-07 1.80825e-22 0)
(4.67572e-07 -1.00672e-07 2.50066e-22 -2.31233e-07 2.48298e-22 0)
(4.64967e-07 -9.1569e-08 -1.22519e-22 -2.27532e-07 -1.21839e-22 0)
(4.62714e-07 -8.30992e-08 -1.96342e-23 -2.24281e-07 5.47998e-23 0)
(4.61147e-07 -7.50435e-08 5.37408e-22 -2.2145e-07 3.19628e-22 0)
(4.59987e-07 -6.7479e-08 -3.59278e-22 -2.19058e-07 -3.66639e-22 0)
(4.59298e-07 -6.0331e-08 -1.27798e-22 -2.17105e-07 -1.32048e-22 0)
(4.58968e-07 -5.35765e-08 3.47463e-22 -2.15574e-07 5.15146e-22 0)
(4.58981e-07 -4.71576e-08 -5.074e-22 -2.14444e-07 -1.50186e-22 0)
(4.59275e-07 -4.10157e-08 -3.61722e-22 -2.13675e-07 -3.86518e-22 0)
(4.59796e-07 -3.50801e-08 8.65239e-25 -2.13207e-07 -7.82575e-23 0)
(4.60481e-07 -2.92526e-08 -4.87365e-22 -2.12953e-07 -3.72565e-22 0)
(4.61201e-07 -2.34396e-08 -3.54796e-24 -2.1277e-07 -3.33461e-24 0)
(4.61877e-07 -1.74156e-08 4.79037e-22 -2.12479e-07 4.57752e-22 0)
(4.62166e-07 -1.11494e-08 7.56557e-24 -2.11769e-07 9.4706e-23 0)
(4.62084e-07 -3.59909e-09 3.39841e-20 -2.10308e-07 9.26553e-22 -7.64221e-37)
(5.44916e-07 -1.42784e-07 -9.62747e-23 -2.8186e-07 -1.2352e-22 0)
(5.29152e-07 -1.35285e-07 1.32994e-22 -2.76755e-07 1.21391e-22 0)
(5.20109e-07 -1.24825e-07 1.64132e-22 -2.6911e-07 8.55859e-23 0)
(5.09473e-07 -1.16824e-07 -1.29751e-22 -2.62989e-07 -1.21666e-22 0)
(5.01759e-07 -1.07706e-07 -3.07301e-22 -2.56415e-07 -1.53163e-22 0)
(4.9414e-07 -9.94482e-08 1.50018e-22 -2.504e-07 7.44333e-23 0)
(4.88104e-07 -9.11607e-08 4.24614e-22 -2.44771e-07 2.72871e-22 0)
(4.82709e-07 -8.3301e-08 -6.83152e-22 -2.39673e-07 -4.58166e-22 0)
(4.78325e-07 -7.57235e-08 -4.21379e-22 -2.35146e-07 -2.77222e-22 0)
(4.74641e-07 -6.85123e-08 6.61369e-22 -2.31204e-07 4.47335e-22 0)
(4.71704e-07 -6.16399e-08 -2.6971e-22 -2.27859e-07 -1.28618e-22 0)
(4.69385e-07 -5.5094e-08 3.57424e-22 -2.25098e-07 3.66136e-22 0)
(4.6765e-07 -4.88371e-08 3.84811e-22 -2.22903e-07 2.50346e-22 0)
(4.66425e-07 -4.28131e-08 -2.24647e-22 -2.21241e-07 -3.12933e-22 0)
(4.65651e-07 -3.69511e-08 -1.46531e-22 -2.20063e-07 7.66014e-23 0)
(4.65256e-07 -3.11343e-08 6.94558e-24 -2.19299e-07 6.40472e-24 0)
(4.65135e-07 -2.52483e-08 -5.93856e-22 -2.18843e-07 -4.93811e-22 0)
(4.65206e-07 -1.90015e-08 1.1793e-22 -2.18563e-07 1.32485e-22 0)
(4.65252e-07 -1.23527e-08 2.33764e-22 -2.18256e-07 1.8271e-22 0)
(4.65215e-07 -4.05714e-09 3.41005e-20 -2.17672e-07 9.30886e-22 -3.13148e-37)
(5.91833e-07 -1.22444e-07 1.15544e-24 -3.06822e-07 3.94077e-24 0)
(5.70389e-07 -1.19878e-07 -1.37496e-22 -3.00877e-07 -1.20929e-22 0)
(5.57571e-07 -1.11775e-07 2.94677e-23 -2.91853e-07 -3.2208e-23 0)
(5.42582e-07 -1.0621e-07 0 -2.84026e-07 0 0)
(5.31268e-07 -9.91256e-08 0 -2.76043e-07 0 0)
(5.20213e-07 -9.24822e-08 -4.11683e-22 -2.68435e-07 -3.22157e-22 0)
(5.11015e-07 -8.56497e-08 3.66302e-22 -2.61301e-07 3.41556e-22 0)
(5.02722e-07 -7.89594e-08 7.72231e-22 -2.54674e-07 6.73272e-22 0)
(4.95651e-07 -7.23851e-08 -5.84145e-22 -2.4866e-07 -5.61003e-22 0)
(4.89527e-07 -6.59927e-08 -5.11666e-22 -2.43289e-07 -4.3552e-22 0)
(4.84364e-07 -5.98043e-08 2.35973e-22 -2.38602e-07 2.34673e-22 0)
(4.80048e-07 -5.38261e-08 -2.30534e-23 -2.3461e-07 4.66971e-23 0)
(4.76531e-07 -4.80469e-08 4.03725e-22 -2.31321e-07 1.98957e-22 0)
(4.73739e-07 -4.24251e-08 6.28907e-22 -2.28723e-07 4.34455e-22 0)
(4.71612e-07 -3.6899e-08 8.58485e-24 -2.26794e-07 7.8412e-24 0)
(4.70081e-07 -3.13481e-08 2.86078e-22 -2.25496e-07 -7.92285e-23 0)
(4.69085e-07 -2.56512e-08 0 -2.24778e-07 0 0)
(4.68531e-07 -1.94815e-08 -2.40889e-22 -2.24568e-07 -1.05997e-22 0)
(4.68373e-07 -1.2796e-08 1.15894e-22 -2.24791e-07 4.88507e-23 0)
(4.6844e-07 -4.24915e-09 3.45576e-20 -2.25294e-07 1.02308e-21 -8.3155e-37)
(6.33331e-07 -9.35015e-08 -9.05611e-25 -3.25529e-07 -3.44881e-24 0)
(6.07026e-07 -9.67706e-08 1.70631e-22 -3.19339e-07 1.01824e-22 0)
(5.91574e-07 -9.27021e-08 -1.69717e-22 -3.11024e-07 -1.03214e-22 0)
(5.73226e-07 -9.00532e-08 -1.67038e-22 -3.02149e-07 -1.00515e-22 0)
(5.58665e-07 -8.58511e-08 4.58625e-22 -2.93268e-07 3.12526e-22 0)
(5.44681e-07 -8.12203e-08 3.26706e-22 -2.84353e-07 1.94721e-22 0)
(5.32592e-07 -7.61736e-08 -4.33947e-22 -2.75894e-07 -2.90101e-22 0)
(5.21709e-07 -7.09032e-08 5.76264e-23 -2.67943e-07 -6.1428e-23 0)
(5.1219e-07 -6.55547e-08 9.85289e-23 -2.60641e-07 9.13693e-23 0)
(5.03835e-07 -6.02089e-08 -5.34472e-23 -2.54045e-07 7.23795e-23 0)
(4.96609e-07 -5.49355e-08 -4.40557e-22 -2.48206e-07 -2.41023e-22 0)
(4.90414e-07 -4.97636e-08 3.94335e-24 -2.43154e-07 3.80363e-24 0)
(4.85194e-07 -4.47018e-08 -2.01597e-22 -2.38911e-07 -2.74511e-22 0)
(4.80878e-07 -3.97242e-08 -6.80906e-24 -2.3549e-07 -6.22643e-24 0)
(4.77424e-07 -3.4781e-08 2.57325e-22 -2.32899e-07 1.24916e-22 0)
(4.74763e-07 -2.9755e-08 -5.13365e-24 -2.31139e-07 -4.48402e-24 0)
(4.72892e-07 -2.4529e-08 3.13863e-22 -2.3022e-07 4.21058e-22 0)
(4.71712e-07 -1.87685e-08 -1.18468e-22 -2.30142e-07 -5.28155e-23 0)
(4.71366e-07 -1.24291e-08 -5.5519e-22 -2.30966e-07 -5.49295e-22 0)
(4.71553e-07 -4.15871e-09 3.41076e-20 -2.32651e-07 5.31677e-22 -6.28011e-35)
(6.66365e-07 -5.63706e-08 -2.17515e-23 -3.37691e-07 -1.09367e-23 0)
(6.39117e-07 -6.35254e-08 -1.82925e-22 -3.30112e-07 -1.07637e-22 0)
(6.21462e-07 -6.52101e-08 1.48548e-22 -3.24376e-07 1.16582e-22 0)
(6.01827e-07 -6.58929e-08 -3.88836e-22 -3.163e-07 -3.54116e-22 0)
(5.84635e-07 -6.55683e-08 -4.00024e-22 -3.07896e-07 -3.32473e-22 0)
(5.68386e-07 -6.40764e-08 2.36706e-22 -2.989e-07 2.44556e-22 0)
(5.53696e-07 -6.177e-08 2.05767e-22 -2.89842e-07 2.4553e-22 0)
(5.40368e-07 -5.87846e-08 3.58575e-22 -2.81001e-07 3.23165e-22 0)
(5.28467e-07 -5.53291e-08 -4.20681e-22 -2.72606e-07 -3.13828e-22 0)
(5.17898e-07 -5.15601e-08 1.03767e-24 -2.64833e-07 8.64619e-24 0)
(5.08617e-07 -4.76035e-08 -5.10948e-24 -2.57799e-07 -2.57692e-23 0)
(5.00543e-07 -4.35474e-08 -3.29014e-22 -2.51593e-07 -3.21619e-22 0)
(4.93618e-07 -3.94468e-08 0 -2.4628e-07 0 0)
(4.87772e-07 -3.53141e-08 -2.98043e-22 -2.41912e-07 -9.62534e-23 0)
(4.82974e-07 -3.11289e-08 -1.39491e-24 -2.38539e-07 -5.94992e-24 0)
(4.79162e-07 -2.68018e-08 -3.84804e-22 -2.36207e-07 -1.86758e-22 0)
(4.76389e-07 -2.22329e-08 1.0542e-22 -2.34998e-07 1.11217e-22 0)
(4.74555e-07 -1.71125e-08 2.42682e-22 -2.34984e-07 1.10652e-22 0)
(4.74006e-07 -1.14014e-08 3.01662e-24 -2.3638e-07 -2.55395e-25 0)
(4.74326e-07 -3.82806e-09 3.44167e-20 -2.39267e-07 4.85442e-22 -2.65953e-37)
(6.82513e-07 -2.57925e-08 1.88242e-22 -3.38724e-07 1.65617e-22 0)
(6.57684e-07 -2.96127e-08 -1.74076e-22 -3.32352e-07 -1.09244e-22 0)
(6.38602e-07 -3.66642e-08 -1.00883e-22 -3.28332e-07 -8.37163e-23 0)
(6.19117e-07 -4.0008e-08 1.67275e-22 -3.21782e-07 1.02061e-22 0)
(6.0107e-07 -4.23634e-08 -3.30594e-22 -3.14103e-07 -1.4964e-22 0)
(5.83942e-07 -4.34251e-08 -2.22963e-22 -3.05681e-07 -1.04936e-22 0)
(5.68146e-07 -4.34659e-08 -2.78019e-22 -2.96865e-07 -2.01549e-22 0)
(5.53581e-07 -4.2665e-08 3.34739e-23 -2.88032e-07 -2.35056e-23 0)
(5.4037e-07 -4.11827e-08 5.61965e-22 -2.79447e-07 3.57618e-22 0)
(5.28455e-07 -3.91895e-08 -1.93322e-23 -2.71335e-07 -2.07942e-23 0)
(5.17842e-07 -3.68164e-08 3.00355e-22 -2.63862e-07 1.6972e-22 0)
(5.08476e-07 -3.41734e-08 -1.48221e-23 -2.57162e-07 -1.67987e-23 0)
(5.00328e-07 -3.13366e-08 1.09773e-36 -2.51341e-07 1.11488e-36 0)
(4.93345e-07 -2.83464e-08 -1.32043e-22 -2.4649e-07 -6.55876e-23 0)
(4.87525e-07 -2.52075e-08 1.29078e-22 -2.42705e-07 6.26505e-23 0)
(4.82819e-07 -2.18663e-08 -5.79722e-24 -2.40079e-07 -8.37883e-24 0)
(4.7934e-07 -1.82524e-08 2.05121e-23 -2.38761e-07 -5.46612e-23 0)
(4.76982e-07 -1.41257e-08 1.1702e-24 -2.38887e-07 3.8927e-24 0)
(4.76256e-07 -9.45892e-09 -1.19279e-24 -2.40799e-07 1.55569e-24 0)
(4.76641e-07 -3.17237e-09 3.48008e-20 -2.44695e-07 1.83197e-22 3.09944e-37)
(6.6899e-07 4.22313e-09 1.74781e-22 -3.26361e-07 1.38128e-22 0)
(6.52429e-07 -1.69678e-10 0 -3.28174e-07 0 0)
(6.35165e-07 -8.77641e-09 -1.36356e-22 -3.25082e-07 -1.20136e-22 0)
(6.17893e-07 -1.44237e-08 1.78229e-36 -3.20111e-07 1.44213e-36 0)
(6.01422e-07 -1.88721e-08 4.08452e-37 -3.1354e-07 2.95937e-37 0)
(5.85514e-07 -2.20269e-08 1.93715e-36 -3.0604e-07 1.43903e-36 0)
(5.70585e-07 -2.40677e-08 2.97152e-36 -2.97962e-07 2.39953e-36 0)
(5.56578e-07 -2.51766e-08 -1.19485e-22 -2.89689e-07 -1.11979e-22 0)
(5.43665e-07 -2.5498e-08 0 -2.81505e-07 0 0)
(5.31839e-07 -2.51931e-08 1.14174e-22 -2.73657e-07 1.10644e-22 0)
(5.21152e-07 -2.43879e-08 -1.63483e-37 -2.66335e-07 -2.75011e-37 0)
(5.11591e-07 -2.31953e-08 -1.09827e-22 -2.59699e-07 -1.10204e-22 0)
(5.03167e-07 -2.16976e-08 1.08019e-22 -2.53884e-07 1.10266e-22 0)
(4.95863e-07 -1.99496e-08 1.55136e-36 -2.49012e-07 1.12855e-36 0)
(4.89711e-07 -1.79736e-08 -1.0513e-22 -2.45208e-07 -1.1089e-22 0)
(4.84692e-07 -1.57517e-08 -9.32014e-37 -2.42603e-07 -8.6135e-37 0)
(4.80966e-07 -1.32346e-08 1.03253e-22 -2.41388e-07 1.12202e-22 0)
(4.78441e-07 -1.02732e-08 1.02711e-22 -2.41746e-07 1.13181e-22 0)
(4.7775e-07 -6.87083e-09 -1.10875e-36 -2.44117e-07 -9.66262e-37 0)
(4.78307e-07 -2.27543e-09 3.49377e-20 -2.48731e-07 -9.81178e-37 -2.06101e-49)