/*--------------------------------*- C++ -*----------------------------------*\
  =========                 |
  \\      /  F ield         | OpenFOAM: The Open Source CFD Toolbox
   \\    /   O peration     | Website:  https://openfoam.org
    \\  /    A nd           | Version:  9
     \\/     M anipulation  |
\*---------------------------------------------------------------------------*/
FoamFile
{
    format      ascii;
    class       pointVectorField;
    location    "1";
    object      pointD;
}
// * * * * * * * * * * * * * * * * * * * * * * * * * * * * * * * * * * * * * //

dimensions      [0 1 0 0 0 0 0];

internalField   nonuniform List<vector> 
2142
(
(7.40922e-07 2.16569e-07 -1.015e-20)
(6.86739e-07 2.50836e-07 0)
(6.48873e-07 2.75293e-07 0)
(6.21325e-07 2.95176e-07 0)
(6.01505e-07 3.11479e-07 0)
(5.8745e-07 3.25527e-07 0)
(5.77755e-07 3.37887e-07 0)
(5.71431e-07 3.49065e-07 0)
(5.67712e-07 3.59362e-07 0)
(5.66042e-07 3.68983e-07 0)
(5.66393e-07 3.79432e-07 0)
(6.76989e-07 1.98671e-07 -1.12539e-20)
(6.19642e-07 2.25678e-07 0)
(5.79896e-07 2.44722e-07 0)
(5.51151e-07 2.60348e-07 0)
(5.30523e-07 2.73134e-07 0)
(5.1587e-07 2.84203e-07 0)
(5.05671e-07 2.93951e-07 0)
(4.98876e-07 3.02805e-07 0)
(4.94656e-07 3.10963e-07 0)
(4.92434e-07 3.18674e-07 0)
(4.82617e-07 3.19096e-07 0)
(6.1046e-07 1.81073e-07 -1.20338e-20)
(5.51561e-07 1.99997e-07 0)
(5.10991e-07 2.13214e-07 0)
(4.81815e-07 2.24385e-07 0)
(4.60958e-07 2.33595e-07 0)
(4.46151e-07 2.41709e-07 0)
(4.35795e-07 2.48914e-07 0)
(4.28793e-07 2.55526e-07 0)
(4.24289e-07 2.61632e-07 0)
(4.21661e-07 2.6747e-07 0)
(4.12866e-07 2.66916e-07 0)
(5.41602e-07 1.63933e-07 -1.23587e-20)
(4.82897e-07 1.74308e-07 0)
(4.4265e-07 1.81498e-07 0)
(4.13883e-07 1.88167e-07 0)
(3.93431e-07 1.93861e-07 0)
(3.78961e-07 1.99147e-07 0)
(3.68836e-07 2.03978e-07 0)
(3.61937e-07 2.08537e-07 0)
(3.5741e-07 2.12795e-07 0)
(3.54627e-07 2.16933e-07 0)
(3.4703e-07 2.15717e-07 0)
(4.70663e-07 1.47347e-07 -1.21426e-20)
(4.13935e-07 1.49097e-07 0)
(3.75211e-07 1.50302e-07 0)
(3.47749e-07 1.52599e-07 0)
(3.28386e-07 1.54972e-07 0)
(3.14778e-07 1.57664e-07 0)
(3.05293e-07 1.60372e-07 0)
(2.98818e-07 1.63133e-07 0)
(2.94532e-07 1.65799e-07 0)
(2.91814e-07 1.68473e-07 0)
(2.85472e-07 1.66885e-07 0)
(3.97974e-07 1.31308e-07 -1.13592e-20)
(3.44895e-07 1.24748e-07 0)
(3.08898e-07 1.20275e-07 0)
(2.83676e-07 1.18546e-07 0)
(2.66122e-07 1.17964e-07 0)
(2.5392e-07 1.18432e-07 0)
(2.45484e-07 1.19378e-07 0)
(2.39744e-07 1.20681e-07 0)
(2.35935e-07 1.22077e-07 0)
(2.33471e-07 1.23583e-07 0)
(2.28378e-07 1.21906e-07 0)
(3.23752e-07 1.15642e-07 -1.00387e-20)
(2.75794e-07 1.01478e-07 0)
(2.43755e-07 9.19336e-08 0)
(2.21758e-07 8.68029e-08 0)
(2.06766e-07 8.38511e-08 0)
(1.96519e-07 8.26281e-08 0)
(1.89525e-07 8.22844e-08 0)
(1.84801e-07 8.2548e-08 0)
(1.81669e-07 8.30519e-08 0)
(1.7961e-07 8.37302e-08 0)
(1.75716e-07 8.22284e-08 0)
(2.48628e-07 9.98818e-08 -8.28375e-21)
(2.0672e-07 7.91939e-08 0)
(1.79882e-07 6.56069e-08 0)
(1.62146e-07 5.81043e-08 0)
(1.5045e-07 5.36595e-08 0)
(1.42647e-07 5.1467e-08 0)
(1.3741e-07 5.04189e-08 0)
(1.33905e-07 5.01209e-08 0)
(1.31584e-07 5.01398e-08 0)
(1.30031e-07 5.03502e-08 0)
(1.27252e-07 4.92377e-08 0)
(1.73007e-07 8.26188e-08 -6.215e-21)
(1.37351e-07 5.70712e-08 0)
(1.17275e-07 4.12861e-08 0)
(1.04887e-07 3.31068e-08 0)
(9.71286e-08 2.84527e-08 0)
(9.21282e-08 2.61986e-08 0)
(8.88315e-08 2.50921e-08 0)
(8.66435e-08 2.47011e-08 0)
(8.51856e-08 2.46004e-08 0)
(8.41808e-08 2.46533e-08 0)
(8.24104e-08 2.40434e-08 0)
(1.01642e-07 6.08412e-08 -3.98438e-21)
(6.82721e-08 3.36145e-08 0)
(5.68675e-08 1.96366e-08 0)
(5.07595e-08 1.3362e-08 0)
(4.71758e-08 1.01481e-08 0)
(4.49373e-08 8.74948e-09 0)
(4.34656e-08 8.12919e-09 0)
(4.24848e-08 7.95933e-09 0)
(4.18151e-08 7.94938e-09 0)
(4.13309e-08 8.01122e-09 0)
(4.04597e-08 7.83508e-09 0)
(3.41706e-08 2.41933e-08 -1.429e-21)
(0 0 0)
(0 0 0)
(0 0 0)
(0 0 0)
(0 0 0)
(0 0 0)
(0 0 0)
(0 0 0)
(0 0 0)
(0 0 0)
(7.40922e-07 2.16569e-07 -1.015e-20)
(6.86739e-07 2.50836e-07 0)
(6.48873e-07 2.75293e-07 0)
(6.21325e-07 2.95176e-07 0)
(6.01505e-07 3.11479e-07 0)
(5.8745e-07 3.25527e-07 0)
(5.77755e-07 3.37887e-07 0)
(5.71431e-07 3.49065e-07 0)
(5.67712e-07 3.59362e-07 0)
(5.66042e-07 3.68983e-07 0)
(5.66393e-07 3.79432e-07 0)
(6.76989e-07 1.98671e-07 -1.12539e-20)
(6.19642e-07 2.25678e-07 0)
(5.79896e-07 2.44722e-07 0)
(5.51151e-07 2.60348e-07 0)
(5.30523e-07 2.73134e-07 0)
(5.1587e-07 2.84203e-07 0)
(5.05671e-07 2.93951e-07 0)
(4.98876e-07 3.02805e-07 0)
(4.94656e-07 3.10963e-07 0)
(4.92434e-07 3.18674e-07 0)
(4.82617e-07 3.19096e-07 0)
(6.1046e-07 1.81073e-07 -1.20338e-20)
(5.51561e-07 1.99997e-07 0)
(5.10991e-07 2.13214e-07 0)
(4.81815e-07 2.24385e-07 0)
(4.60958e-07 2.33595e-07 0)
(4.46151e-07 2.41709e-07 0)
(4.35795e-07 2.48914e-07 0)
(4.28793e-07 2.55526e-07 0)
(4.24289e-07 2.61632e-07 0)
(4.21661e-07 2.6747e-07 0)
(4.12866e-07 2.66916e-07 0)
(5.41602e-07 1.63933e-07 -1.23587e-20)
(4.82897e-07 1.74308e-07 0)
(4.4265e-07 1.81498e-07 0)
(4.13883e-07 1.88167e-07 0)
(3.93431e-07 1.93861e-07 0)
(3.78961e-07 1.99147e-07 0)
(3.68836e-07 2.03978e-07 0)
(3.61937e-07 2.08537e-07 0)
(3.5741e-07 2.12795e-07 0)
(3.54627e-07 2.16933e-07 0)
(3.4703e-07 2.15717e-07 0)
(4.70663e-07 1.47347e-07 -1.21426e-20)
(4.13935e-07 1.49097e-07 0)
(3.75211e-07 1.50302e-07 0)
(3.47749e-07 1.52599e-07 0)
(3.28386e-07 1.54972e-07 0)
(3.14778e-07 1.57664e-07 0)
(3.05293e-07 1.60372e-07 0)
(2.98818e-07 1.63133e-07 0)
(2.94532e-07 1.65799e-07 0)
(2.91814e-07 1.68473e-07 0)
(2.85472e-07 1.66885e-07 0)
(3.97974e-07 1.31308e-07 -1.13592e-20)
(3.44895e-07 1.24748e-07 0)
(3.08898e-07 1.20275e-07 0)
(2.83676e-07 1.18546e-07 0)
(2.66122e-07 1.17964e-07 0)
(2.5392e-07 1.18432e-07 0)
(2.45484e-07 1.19378e-07 0)
(2.39744e-07 1.20681e-07 0)
(2.35935e-07 1.22077e-07 0)
(2.33471e-07 1.23583e-07 0)
(2.28378e-07 1.21906e-07 0)
(3.23752e-07 1.15642e-07 -1.00387e-20)
(2.75794e-07 1.01478e-07 0)
(2.43755e-07 9.19336e-08 0)
(2.21758e-07 8.68029e-08 0)
(2.06766e-07 8.38511e-08 0)
(1.96519e-07 8.26281e-08 0)
(1.89525e-07 8.22844e-08 0)
(1.84801e-07 8.2548e-08 0)
(1.81669e-07 8.30519e-08 0)
(1.7961e-07 8.37302e-08 0)
(1.75716e-07 8.22284e-08 0)
(2.48628e-07 9.98818e-08 -8.28375e-21)
(2.0672e-07 7.91939e-08 0)
(1.79882e-07 6.56069e-08 0)
(1.62146e-07 5.81043e-08 0)
(1.5045e-07 5.36595e-08 0)
(1.42647e-07 5.1467e-08 0)
(1.3741e-07 5.04189e-08 0)
(1.33905e-07 5.01209e-08 0)
(1.31584e-07 5.01398e-08 0)
(1.30031e-07 5.03502e-08 0)
(1.27252e-07 4.92377e-08 0)
(1.73007e-07 8.26188e-08 -6.215e-21)
(1.37351e-07 5.70712e-08 0)
(1.17275e-07 4.12861e-08 0)
(1.04887e-07 3.31068e-08 0)
(9.71286e-08 2.84527e-08 0)
(9.21282e-08 2.61986e-08 0)
(8.88315e-08 2.50921e-08 0)
(8.66435e-08 2.47011e-08 0)
(8.51856e-08 2.46004e-08 0)
(8.41808e-08 2.46533e-08 0)
(8.24104e-08 2.40434e-08 0)
(1.01642e-07 6.08412e-08 -3.98438e-21)
(6.82721e-08 3.36145e-08 0)
(5.68675e-08 1.96366e-08 0)
(5.07595e-08 1.3362e-08 0)
(4.71758e-08 1.01481e-08 0)
(4.49373e-08 8.74948e-09 0)
(4.34656e-08 8.12919e-09 0)
(4.24848e-08 7.95933e-09 0)
(4.18151e-08 7.94938e-09 0)
(4.13309e-08 8.01122e-09 0)
(4.04597e-08 7.83508e-09 0)
(3.41706e-08 2.41933e-08 -1.429e-21)
(0 0 0)
(0 0 0)
(0 0 0)
(0 0 0)
(0 0 0)
(0 0 0)
(0 0 0)
(0 0 0)
(0 0 0)
(0 0 0)
(1.20227e-06 3.55588e-07 -2.69464e-21)
(1.21083e-06 3.90084e-07 -1.57678e-21)
(1.20977e-06 4.34449e-07 -1.72003e-21)
(1.20905e-06 4.75606e-07 -1.86287e-21)
(1.20975e-06 5.13488e-07 -2.00512e-21)
(1.21229e-06 5.48479e-07 -2.14687e-21)
(1.21681e-06 5.81033e-07 -2.28821e-21)
(1.22329e-06 6.11609e-07 -2.42925e-21)
(1.23166e-06 6.4059e-07 -2.57007e-21)
(1.24172e-06 6.6834e-07 -2.71075e-21)
(1.25338e-06 6.95004e-07 -2.81256e-21)
(1.17555e-06 3.42242e-07 -3.94347e-21)
(1.17186e-06 3.88567e-07 0)
(1.16879e-06 4.32653e-07 0)
(1.16714e-06 4.73205e-07 0)
(1.16734e-06 5.10239e-07 0)
(1.16951e-06 5.4421e-07 0)
(1.17365e-06 5.75619e-07 0)
(1.17964e-06 6.04965e-07 0)
(1.18738e-06 6.32662e-07 0)
(1.19669e-06 6.59099e-07 0)
(1.20812e-06 6.84597e-07 0)
(1.13917e-06 3.36609e-07 -4.05337e-21)
(1.13151e-06 3.83956e-07 0)
(1.12529e-06 4.27637e-07 0)
(1.1213e-06 4.67341e-07 0)
(1.11971e-06 5.03293e-07 0)
(1.12045e-06 5.36056e-07 0)
(1.12336e-06 5.6618e-07 0)
(1.12822e-06 5.94194e-07 0)
(1.13485e-06 6.20526e-07 0)
(1.143e-06 6.45591e-07 0)
(1.15413e-06 6.69975e-07 0)
(1.10062e-06 3.27475e-07 -4.17818e-21)
(1.08815e-06 3.76375e-07 0)
(1.07818e-06 4.19495e-07 0)
(1.07122e-06 4.58038e-07 0)
(1.06724e-06 4.92558e-07 0)
(1.06602e-06 5.23806e-07 0)
(1.06724e-06 5.52389e-07 0)
(1.07059e-06 5.78868e-07 0)
(1.0758e-06 6.03677e-07 0)
(1.08256e-06 6.27241e-07 0)
(1.09337e-06 6.50541e-07 0)
(1.0592e-06 3.15686e-07 -4.40801e-21)
(1.04112e-06 3.65933e-07 0)
(1.02698e-06 4.08247e-07 0)
(1.01671e-06 4.4534e-07 0)
(1.01005e-06 4.78124e-07 0)
(1.00661e-06 5.0757e-07 0)
(1.00591e-06 5.34358e-07 0)
(1.00754e-06 5.59077e-07 0)
(1.01118e-06 5.82172e-07 0)
(1.01642e-06 6.04067e-07 0)
(1.02695e-06 6.26286e-07 0)
(1.01453e-06 3.0181e-07 -4.8305e-21)
(9.9018e-07 3.52681e-07 0)
(9.71627e-07 3.93758e-07 0)
(9.57919e-07 4.29051e-07 0)
(9.48523e-07 4.59788e-07 0)
(9.42799e-07 4.87156e-07 0)
(9.40144e-07 5.11905e-07 0)
(9.40035e-07 5.34652e-07 0)
(9.42074e-07 5.55851e-07 0)
(9.45803e-07 5.75916e-07 0)
(9.56129e-07 5.97067e-07 0)
(9.66456e-07 2.86361e-07 -5.50461e-21)
(9.35461e-07 3.36741e-07 0)
(9.12401e-07 3.75993e-07 0)
(8.95298e-07 4.09091e-07 0)
(8.83242e-07 4.37483e-07 0)
(8.7533e-07 4.62534e-07 0)
(8.70804e-07 4.85041e-07 0)
(8.69034e-07 5.05641e-07 0)
(8.69556e-07 5.24789e-07 0)
(8.71845e-07 5.42885e-07 0)
(8.82077e-07 5.62991e-07 0)
(9.14956e-07 2.69758e-07 -6.44151e-21)
(8.77277e-07 3.18287e-07 0)
(8.49821e-07 3.54995e-07 0)
(8.29502e-07 3.85457e-07 0)
(8.1498e-07 4.1121e-07 0)
(8.05072e-07 4.33734e-07 0)
(7.98851e-07 4.53834e-07 0)
(7.95584e-07 4.72152e-07 0)
(7.94735e-07 4.89135e-07 0)
(7.95729e-07 5.05152e-07 0)
(8.05982e-07 5.2425e-07 0)
(8.60103e-07 2.52381e-07 -7.59768e-21)
(8.16082e-07 2.97581e-07 0)
(7.8455e-07 3.30964e-07 0)
(7.61331e-07 3.5833e-07 0)
(7.44638e-07 3.81169e-07 0)
(7.33e-07 4.00987e-07 0)
(7.25323e-07 4.18562e-07 0)
(7.20773e-07 4.34511e-07 0)
(7.18741e-07 4.49254e-07 0)
(7.18625e-07 4.63123e-07 0)
(7.29008e-07 4.81239e-07 0)
(8.02032e-07 2.34554e-07 -8.87887e-21)
(7.52391e-07 2.74959e-07 0)
(7.17321e-07 3.04237e-07 0)
(6.91651e-07 3.2806e-07 0)
(6.73163e-07 3.47733e-07 0)
(6.60125e-07 3.6471e-07 0)
(6.51274e-07 3.79687e-07 0)
(6.45692e-07 3.93232e-07 0)
(6.42695e-07 4.05719e-07 0)
(6.41692e-07 4.17391e-07 0)
(6.52255e-07 4.34517e-07 0)
(1.20227e-06 3.55588e-07 -2.69464e-21)
(1.21083e-06 3.90084e-07 -1.57678e-21)
(1.20977e-06 4.34449e-07 -1.72003e-21)
(1.20905e-06 4.75606e-07 -1.86287e-21)
(1.20975e-06 5.13488e-07 -2.00512e-21)
(1.21229e-06 5.48479e-07 -2.14687e-21)
(1.21681e-06 5.81033e-07 -2.28821e-21)
(1.22329e-06 6.11609e-07 -2.42925e-21)
(1.23166e-06 6.4059e-07 -2.57007e-21)
(1.24172e-06 6.6834e-07 -2.71075e-21)
(1.25338e-06 6.95004e-07 -2.81256e-21)
(1.17555e-06 3.42242e-07 -3.94347e-21)
(1.17186e-06 3.88567e-07 0)
(1.16879e-06 4.32653e-07 0)
(1.16714e-06 4.73205e-07 0)
(1.16734e-06 5.10239e-07 0)
(1.16951e-06 5.4421e-07 0)
(1.17365e-06 5.75619e-07 0)
(1.17964e-06 6.04965e-07 0)
(1.18738e-06 6.32662e-07 0)
(1.19669e-06 6.59099e-07 0)
(1.20812e-06 6.84597e-07 0)
(1.13917e-06 3.36609e-07 -4.05337e-21)
(1.13151e-06 3.83956e-07 0)
(1.12529e-06 4.27637e-07 0)
(1.1213e-06 4.67341e-07 0)
(1.11971e-06 5.03293e-07 0)
(1.12045e-06 5.36056e-07 0)
(1.12336e-06 5.6618e-07 0)
(1.12822e-06 5.94194e-07 0)
(1.13485e-06 6.20526e-07 0)
(1.143e-06 6.45591e-07 0)
(1.15413e-06 6.69975e-07 0)
(1.10062e-06 3.27475e-07 -4.17818e-21)
(1.08815e-06 3.76375e-07 0)
(1.07818e-06 4.19495e-07 0)
(1.07122e-06 4.58038e-07 0)
(1.06724e-06 4.92558e-07 0)
(1.06602e-06 5.23806e-07 0)
(1.06724e-06 5.52389e-07 0)
(1.07059e-06 5.78868e-07 0)
(1.0758e-06 6.03677e-07 0)
(1.08256e-06 6.27241e-07 0)
(1.09337e-06 6.50541e-07 0)
(1.0592e-06 3.15686e-07 -4.40801e-21)
(1.04112e-06 3.65933e-07 0)
(1.02698e-06 4.08247e-07 0)
(1.01671e-06 4.4534e-07 0)
(1.01005e-06 4.78124e-07 0)
(1.00661e-06 5.0757e-07 0)
(1.00591e-06 5.34358e-07 0)
(1.00754e-06 5.59077e-07 0)
(1.01118e-06 5.82172e-07 0)
(1.01642e-06 6.04067e-07 0)
(1.02695e-06 6.26286e-07 0)
(1.01453e-06 3.0181e-07 -4.8305e-21)
(9.9018e-07 3.52681e-07 0)
(9.71627e-07 3.93758e-07 0)
(9.57919e-07 4.29051e-07 0)
(9.48523e-07 4.59788e-07 0)
(9.42799e-07 4.87156e-07 0)
(9.40144e-07 5.11905e-07 0)
(9.40035e-07 5.34652e-07 0)
(9.42074e-07 5.55851e-07 0)
(9.45803e-07 5.75916e-07 0)
(9.56129e-07 5.97067e-07 0)
(9.66456e-07 2.86361e-07 -5.50461e-21)
(9.35461e-07 3.36741e-07 0)
(9.12401e-07 3.75993e-07 0)
(8.95298e-07 4.09091e-07 0)
(8.83242e-07 4.37483e-07 0)
(8.7533e-07 4.62534e-07 0)
(8.70804e-07 4.85041e-07 0)
(8.69034e-07 5.05641e-07 0)
(8.69556e-07 5.24789e-07 0)
(8.71845e-07 5.42885e-07 0)
(8.82077e-07 5.62991e-07 0)
(9.14956e-07 2.69758e-07 -6.44151e-21)
(8.77277e-07 3.18287e-07 0)
(8.49821e-07 3.54995e-07 0)
(8.29502e-07 3.85457e-07 0)
(8.1498e-07 4.1121e-07 0)
(8.05072e-07 4.33734e-07 0)
(7.98851e-07 4.53834e-07 0)
(7.95584e-07 4.72152e-07 0)
(7.94735e-07 4.89135e-07 0)
(7.95729e-07 5.05152e-07 0)
(8.05982e-07 5.2425e-07 0)
(8.60103e-07 2.52381e-07 -7.59768e-21)
(8.16082e-07 2.97581e-07 0)
(7.8455e-07 3.30964e-07 0)
(7.61331e-07 3.5833e-07 0)
(7.44638e-07 3.81169e-07 0)
(7.33e-07 4.00987e-07 0)
(7.25323e-07 4.18562e-07 0)
(7.20773e-07 4.34511e-07 0)
(7.18741e-07 4.49254e-07 0)
(7.18625e-07 4.63123e-07 0)
(7.29008e-07 4.81239e-07 0)
(8.02032e-07 2.34554e-07 -8.87887e-21)
(7.52391e-07 2.74959e-07 0)
(7.17321e-07 3.04237e-07 0)
(6.91651e-07 3.2806e-07 0)
(6.73163e-07 3.47733e-07 0)
(6.60125e-07 3.6471e-07 0)
(6.51274e-07 3.79687e-07 0)
(6.45692e-07 3.93232e-07 0)
(6.42695e-07 4.05719e-07 0)
(6.41692e-07 4.17391e-07 0)
(6.52255e-07 4.34517e-07 0)
(1.26664e-06 7.20914e-07 -2.83611e-21)
(1.28128e-06 7.4642e-07 -2.82027e-21)
(1.29704e-06 7.71543e-07 -2.80458e-21)
(1.31384e-06 7.96405e-07 -2.78901e-21)
(1.33156e-06 8.21108e-07 -2.77357e-21)
(1.35009e-06 8.45733e-07 -2.75826e-21)
(1.36936e-06 8.70351e-07 -2.74307e-21)
(1.38928e-06 8.9502e-07 -2.72798e-21)
(1.40977e-06 9.19791e-07 -2.71298e-21)
(1.43076e-06 9.44704e-07 -2.69809e-21)
(1.4522e-06 9.69795e-07 -2.68328e-21)
(1.47402e-06 9.95095e-07 -2.66856e-21)
(1.49617e-06 1.02063e-06 -2.65393e-21)
(1.51859e-06 1.04641e-06 -2.63939e-21)
(1.54122e-06 1.07246e-06 -2.62493e-21)
(1.56401e-06 1.09876e-06 -2.61054e-21)
(1.5869e-06 1.12532e-06 -2.59625e-21)
(1.60982e-06 1.1521e-06 -2.58205e-21)
(1.63269e-06 1.17904e-06 -2.56795e-21)
(1.64026e-06 1.19584e-06 3.8042e-22)
(1.22227e-06 7.09728e-07 0)
(1.23814e-06 7.34692e-07 0)
(1.25494e-06 7.59326e-07 0)
(1.27256e-06 7.83761e-07 0)
(1.29095e-06 8.08093e-07 0)
(1.31002e-06 8.324e-07 0)
(1.3297e-06 8.56749e-07 0)
(1.34993e-06 8.81194e-07 0)
(1.37066e-06 9.05784e-07 0)
(1.39182e-06 9.30556e-07 0)
(1.41338e-06 9.55544e-07 0)
(1.43527e-06 9.80775e-07 0)
(1.45746e-06 1.00627e-06 0)
(1.4799e-06 1.03206e-06 0)
(1.50255e-06 1.05813e-06 0)
(1.52536e-06 1.08451e-06 0)
(1.5483e-06 1.11116e-06 0)
(1.57132e-06 1.13807e-06 0)
(1.59437e-06 1.16517e-06 0)
(1.61734e-06 1.19231e-06 3.34432e-21)
(1.16964e-06 6.94596e-07 0)
(1.18743e-06 7.1938e-07 0)
(1.2059e-06 7.43853e-07 0)
(1.22496e-06 7.68154e-07 0)
(1.24458e-06 7.92382e-07 0)
(1.26471e-06 8.16613e-07 0)
(1.2853e-06 8.40918e-07 0)
(1.30632e-06 8.65348e-07 0)
(1.32773e-06 8.89951e-07 0)
(1.34949e-06 9.14764e-07 0)
(1.37157e-06 9.39821e-07 0)
(1.39393e-06 9.6515e-07 0)
(1.41654e-06 9.90773e-07 0)
(1.43937e-06 1.01671e-06 0)
(1.46239e-06 1.04297e-06 0)
(1.48557e-06 1.06955e-06 0)
(1.50888e-06 1.09646e-06 0)
(1.53229e-06 1.12366e-06 0)
(1.55576e-06 1.15111e-06 0)
(1.57904e-06 1.17867e-06 3.37412e-21)
(1.11058e-06 6.74959e-07 0)
(1.13076e-06 6.99974e-07 0)
(1.15136e-06 7.24671e-07 0)
(1.17229e-06 7.49186e-07 0)
(1.19357e-06 7.73629e-07 0)
(1.21517e-06 7.98075e-07 0)
(1.23706e-06 8.226e-07 0)
(1.25924e-06 8.47257e-07 0)
(1.28168e-06 8.72096e-07 0)
(1.30436e-06 8.97158e-07 0)
(1.32727e-06 9.22476e-07 0)
(1.35039e-06 9.4808e-07 0)
(1.3737e-06 9.73996e-07 0)
(1.39719e-06 1.00024e-06 0)
(1.42084e-06 1.02684e-06 0)
(1.44462e-06 1.05379e-06 0)
(1.46853e-06 1.0811e-06 0)
(1.49253e-06 1.10877e-06 0)
(1.51658e-06 1.13677e-06 0)
(1.54035e-06 1.16501e-06 3.43134e-21)
(1.04613e-06 6.50783e-07 0)
(1.0691e-06 6.76417e-07 0)
(1.0922e-06 7.01706e-07 0)
(1.11537e-06 7.26771e-07 0)
(1.13866e-06 7.5174e-07 0)
(1.16205e-06 7.76685e-07 0)
(1.18557e-06 8.01692e-07 0)
(1.20919e-06 8.26818e-07 0)
(1.23295e-06 8.52118e-07 0)
(1.25682e-06 8.77636e-07 0)
(1.28082e-06 9.03409e-07 0)
(1.30494e-06 9.29472e-07 0)
(1.32919e-06 9.55852e-07 0)
(1.35355e-06 9.82575e-07 0)
(1.37802e-06 1.00966e-06 0)
(1.4026e-06 1.03714e-06 0)
(1.42727e-06 1.06501e-06 0)
(1.45202e-06 1.0933e-06 0)
(1.4768e-06 1.12203e-06 0)
(1.50122e-06 1.15111e-06 3.5153e-21)
(9.77514e-07 6.2194e-07 0)
(1.00355e-06 6.48591e-07 0)
(1.02943e-06 6.74853e-07 0)
(1.05511e-06 7.00814e-07 0)
(1.08067e-06 7.26629e-07 0)
(1.10611e-06 7.5237e-07 0)
(1.13148e-06 7.78133e-07 0)
(1.1568e-06 8.03979e-07 0)
(1.18209e-06 8.29973e-07 0)
(1.20737e-06 8.56162e-07 0)
(1.23266e-06 8.82592e-07 0)
(1.25797e-06 9.09299e-07 0)
(1.28332e-06 9.36319e-07 0)
(1.30872e-06 9.63684e-07 0)
(1.33417e-06 9.91423e-07 0)
(1.35967e-06 1.01957e-06 0)
(1.38524e-06 1.04815e-06 0)
(1.41085e-06 1.0772e-06 0)
(1.43648e-06 1.10677e-06 0)
(1.4617e-06 1.13683e-06 3.6247e-21)
(9.05818e-07 5.88532e-07 0)
(9.35103e-07 6.16583e-07 0)
(9.63968e-07 6.44183e-07 0)
(9.92343e-07 6.71376e-07 0)
(1.02037e-06 6.98348e-07 0)
(1.04805e-06 7.25171e-07 0)
(1.07546e-06 7.51954e-07 0)
(1.10264e-06 7.78768e-07 0)
(1.12964e-06 8.05684e-07 0)
(1.15648e-06 8.32759e-07 0)
(1.18321e-06 8.60043e-07 0)
(1.20985e-06 8.87582e-07 0)
(1.23644e-06 9.15416e-07 0)
(1.26299e-06 9.43584e-07 0)
(1.28952e-06 9.72124e-07 0)
(1.31606e-06 1.00108e-06 0)
(1.34261e-06 1.03049e-06 0)
(1.36917e-06 1.06043e-06 0)
(1.39574e-06 1.09094e-06 0)
(1.42189e-06 1.12204e-06 3.75792e-21)
(8.32149e-07 5.50746e-07 0)
(8.64765e-07 5.80554e-07 0)
(8.96714e-07 6.09832e-07 0)
(9.27895e-07 6.38576e-07 0)
(9.585e-07 6.67002e-07 0)
(9.88543e-07 6.95187e-07 0)
(1.01812e-06 7.2325e-07 0)
(1.04729e-06 7.51272e-07 0)
(1.07611e-06 7.79335e-07 0)
(1.10464e-06 8.07505e-07 0)
(1.13291e-06 8.35839e-07 0)
(1.16099e-06 8.6439e-07 0)
(1.1889e-06 8.93206e-07 0)
(1.21669e-06 9.22333e-07 0)
(1.24439e-06 9.51818e-07 0)
(1.27202e-06 9.81711e-07 0)
(1.29962e-06 1.01207e-06 0)
(1.3272e-06 1.04298e-06 0)
(1.35478e-06 1.07451e-06 0)
(1.38196e-06 1.1067e-06 3.91294e-21)
(7.57587e-07 5.08937e-07 0)
(7.93502e-07 5.40819e-07 0)
(8.28544e-07 5.72067e-07 0)
(8.62569e-07 6.02651e-07 0)
(8.958e-07 6.32789e-07 0)
(9.28265e-07 6.62584e-07 0)
(9.60079e-07 6.92159e-07 0)
(9.91304e-07 7.21613e-07 0)
(1.02202e-06 7.51033e-07 0)
(1.05229e-06 7.80496e-07 0)
(1.08219e-06 8.10068e-07 0)
(1.11176e-06 8.39808e-07 0)
(1.14106e-06 8.6977e-07 0)
(1.17014e-06 9.00007e-07 0)
(1.19905e-06 9.30572e-07 0)
(1.22783e-06 9.61523e-07 0)
(1.25652e-06 9.92928e-07 0)
(1.28515e-06 1.02488e-06 0)
(1.31377e-06 1.05746e-06 0)
(1.34207e-06 1.09076e-06 4.08757e-21)
(6.83106e-07 4.63609e-07 0)
(7.22148e-07 4.97796e-07 0)
(7.60165e-07 5.31221e-07 0)
(7.97004e-07 5.63897e-07 0)
(8.32858e-07 5.95987e-07 0)
(8.67772e-07 6.2762e-07 0)
(9.01852e-07 6.58924e-07 0)
(9.35177e-07 6.9001e-07 0)
(9.67833e-07 7.20977e-07 0)
(9.99897e-07 7.51912e-07 0)
(1.03144e-06 7.8289e-07 0)
(1.06254e-06 8.13977e-07 0)
(1.09326e-06 8.45234e-07 0)
(1.12366e-06 8.76719e-07 0)
(1.15381e-06 9.08487e-07 0)
(1.18375e-06 9.40604e-07 0)
(1.21354e-06 9.7314e-07 0)
(1.24324e-06 1.00619e-06 0)
(1.27291e-06 1.03986e-06 0)
(1.30239e-06 1.07426e-06 4.27931e-21)
(6.16988e-07 4.22372e-07 0)
(6.5836e-07 4.58543e-07 0)
(6.98598e-07 4.93744e-07 0)
(7.37618e-07 5.28191e-07 0)
(7.7554e-07 5.61977e-07 0)
(8.12416e-07 5.95239e-07 0)
(8.48336e-07 6.28095e-07 0)
(8.83378e-07 6.60658e-07 0)
(9.17628e-07 6.93029e-07 0)
(9.51167e-07 7.25299e-07 0)
(9.84077e-07 7.57546e-07 0)
(1.01643e-06 7.89839e-07 0)
(1.04831e-06 8.22242e-07 0)
(1.07978e-06 8.54813e-07 0)
(1.11092e-06 8.87609e-07 0)
(1.14178e-06 9.20694e-07 0)
(1.17245e-06 9.54137e-07 0)
(1.20298e-06 9.88029e-07 0)
(1.23347e-06 1.02246e-06 0)
(1.26393e-06 1.05761e-06 4.43959e-21)
(1.26664e-06 7.20914e-07 -2.83611e-21)
(1.28128e-06 7.4642e-07 -2.82027e-21)
(1.29704e-06 7.71543e-07 -2.80458e-21)
(1.31384e-06 7.96405e-07 -2.78901e-21)
(1.33156e-06 8.21108e-07 -2.77357e-21)
(1.35009e-06 8.45733e-07 -2.75826e-21)
(1.36936e-06 8.70351e-07 -2.74307e-21)
(1.38928e-06 8.9502e-07 -2.72798e-21)
(1.40977e-06 9.19791e-07 -2.71298e-21)
(1.43076e-06 9.44704e-07 -2.69809e-21)
(1.4522e-06 9.69795e-07 -2.68328e-21)
(1.47402e-06 9.95095e-07 -2.66856e-21)
(1.49617e-06 1.02063e-06 -2.65393e-21)
(1.51859e-06 1.04641e-06 -2.63939e-21)
(1.54122e-06 1.07246e-06 -2.62493e-21)
(1.56401e-06 1.09876e-06 -2.61054e-21)
(1.5869e-06 1.12532e-06 -2.59625e-21)
(1.60982e-06 1.1521e-06 -2.58205e-21)
(1.63269e-06 1.17904e-06 -2.56795e-21)
(1.64026e-06 1.19584e-06 3.8042e-22)
(1.22227e-06 7.09728e-07 0)
(1.23814e-06 7.34692e-07 0)
(1.25494e-06 7.59326e-07 0)
(1.27256e-06 7.83761e-07 0)
(1.29095e-06 8.08093e-07 0)
(1.31002e-06 8.324e-07 0)
(1.3297e-06 8.56749e-07 0)
(1.34993e-06 8.81194e-07 0)
(1.37066e-06 9.05784e-07 0)
(1.39182e-06 9.30556e-07 0)
(1.41338e-06 9.55544e-07 0)
(1.43527e-06 9.80775e-07 0)
(1.45746e-06 1.00627e-06 0)
(1.4799e-06 1.03206e-06 0)
(1.50255e-06 1.05813e-06 0)
(1.52536e-06 1.08451e-06 0)
(1.5483e-06 1.11116e-06 0)
(1.57132e-06 1.13807e-06 0)
(1.59437e-06 1.16517e-06 0)
(1.61734e-06 1.19231e-06 3.34432e-21)
(1.16964e-06 6.94596e-07 0)
(1.18743e-06 7.1938e-07 0)
(1.2059e-06 7.43853e-07 0)
(1.22496e-06 7.68154e-07 0)
(1.24458e-06 7.92382e-07 0)
(1.26471e-06 8.16613e-07 0)
(1.2853e-06 8.40918e-07 0)
(1.30632e-06 8.65348e-07 0)
(1.32773e-06 8.89951e-07 0)
(1.34949e-06 9.14764e-07 0)
(1.37157e-06 9.39821e-07 0)
(1.39393e-06 9.6515e-07 0)
(1.41654e-06 9.90773e-07 0)
(1.43937e-06 1.01671e-06 0)
(1.46239e-06 1.04297e-06 0)
(1.48557e-06 1.06955e-06 0)
(1.50888e-06 1.09646e-06 0)
(1.53229e-06 1.12366e-06 0)
(1.55576e-06 1.15111e-06 0)
(1.57904e-06 1.17867e-06 3.37412e-21)
(1.11058e-06 6.74959e-07 0)
(1.13076e-06 6.99974e-07 0)
(1.15136e-06 7.24671e-07 0)
(1.17229e-06 7.49186e-07 0)
(1.19357e-06 7.73629e-07 0)
(1.21517e-06 7.98075e-07 0)
(1.23706e-06 8.226e-07 0)
(1.25924e-06 8.47257e-07 0)
(1.28168e-06 8.72096e-07 0)
(1.30436e-06 8.97158e-07 0)
(1.32727e-06 9.22476e-07 0)
(1.35039e-06 9.4808e-07 0)
(1.3737e-06 9.73996e-07 0)
(1.39719e-06 1.00024e-06 0)
(1.42084e-06 1.02684e-06 0)
(1.44462e-06 1.05379e-06 0)
(1.46853e-06 1.0811e-06 0)
(1.49253e-06 1.10877e-06 0)
(1.51658e-06 1.13677e-06 0)
(1.54035e-06 1.16501e-06 3.43134e-21)
(1.04613e-06 6.50783e-07 0)
(1.0691e-06 6.76417e-07 0)
(1.0922e-06 7.01706e-07 0)
(1.11537e-06 7.26771e-07 0)
(1.13866e-06 7.5174e-07 0)
(1.16205e-06 7.76685e-07 0)
(1.18557e-06 8.01692e-07 0)
(1.20919e-06 8.26818e-07 0)
(1.23295e-06 8.52118e-07 0)
(1.25682e-06 8.77636e-07 0)
(1.28082e-06 9.03409e-07 0)
(1.30494e-06 9.29472e-07 0)
(1.32919e-06 9.55852e-07 0)
(1.35355e-06 9.82575e-07 0)
(1.37802e-06 1.00966e-06 0)
(1.4026e-06 1.03714e-06 0)
(1.42727e-06 1.06501e-06 0)
(1.45202e-06 1.0933e-06 0)
(1.4768e-06 1.12203e-06 0)
(1.50122e-06 1.15111e-06 3.5153e-21)
(9.77514e-07 6.2194e-07 0)
(1.00355e-06 6.48591e-07 0)
(1.02943e-06 6.74853e-07 0)
(1.05511e-06 7.00814e-07 0)
(1.08067e-06 7.26629e-07 0)
(1.10611e-06 7.5237e-07 0)
(1.13148e-06 7.78133e-07 0)
(1.1568e-06 8.03979e-07 0)
(1.18209e-06 8.29973e-07 0)
(1.20737e-06 8.56162e-07 0)
(1.23266e-06 8.82592e-07 0)
(1.25797e-06 9.09299e-07 0)
(1.28332e-06 9.36319e-07 0)
(1.30872e-06 9.63684e-07 0)
(1.33417e-06 9.91423e-07 0)
(1.35967e-06 1.01957e-06 0)
(1.38524e-06 1.04815e-06 0)
(1.41085e-06 1.0772e-06 0)
(1.43648e-06 1.10677e-06 0)
(1.4617e-06 1.13683e-06 3.6247e-21)
(9.05818e-07 5.88532e-07 0)
(9.35103e-07 6.16583e-07 0)
(9.63968e-07 6.44183e-07 0)
(9.92343e-07 6.71376e-07 0)
(1.02037e-06 6.98348e-07 0)
(1.04805e-06 7.25171e-07 0)
(1.07546e-06 7.51954e-07 0)
(1.10264e-06 7.78768e-07 0)
(1.12964e-06 8.05684e-07 0)
(1.15648e-06 8.32759e-07 0)
(1.18321e-06 8.60043e-07 0)
(1.20985e-06 8.87582e-07 0)
(1.23644e-06 9.15416e-07 0)
(1.26299e-06 9.43584e-07 0)
(1.28952e-06 9.72124e-07 0)
(1.31606e-06 1.00108e-06 0)
(1.34261e-06 1.03049e-06 0)
(1.36917e-06 1.06043e-06 0)
(1.39574e-06 1.09094e-06 0)
(1.42189e-06 1.12204e-06 3.75792e-21)
(8.32149e-07 5.50746e-07 0)
(8.64765e-07 5.80554e-07 0)
(8.96714e-07 6.09832e-07 0)
(9.27895e-07 6.38576e-07 0)
(9.585e-07 6.67002e-07 0)
(9.88543e-07 6.95187e-07 0)
(1.01812e-06 7.2325e-07 0)
(1.04729e-06 7.51272e-07 0)
(1.07611e-06 7.79335e-07 0)
(1.10464e-06 8.07505e-07 0)
(1.13291e-06 8.35839e-07 0)
(1.16099e-06 8.6439e-07 0)
(1.1889e-06 8.93206e-07 0)
(1.21669e-06 9.22333e-07 0)
(1.24439e-06 9.51818e-07 0)
(1.27202e-06 9.81711e-07 0)
(1.29962e-06 1.01207e-06 0)
(1.3272e-06 1.04298e-06 0)
(1.35478e-06 1.07451e-06 0)
(1.38196e-06 1.1067e-06 3.91294e-21)
(7.57587e-07 5.08937e-07 0)
(7.93502e-07 5.40819e-07 0)
(8.28544e-07 5.72067e-07 0)
(8.62569e-07 6.02651e-07 0)
(8.958e-07 6.32789e-07 0)
(9.28265e-07 6.62584e-07 0)
(9.60079e-07 6.92159e-07 0)
(9.91304e-07 7.21613e-07 0)
(1.02202e-06 7.51033e-07 0)
(1.05229e-06 7.80496e-07 0)
(1.08219e-06 8.10068e-07 0)
(1.11176e-06 8.39808e-07 0)
(1.14106e-06 8.6977e-07 0)
(1.17014e-06 9.00007e-07 0)
(1.19905e-06 9.30572e-07 0)
(1.22783e-06 9.61523e-07 0)
(1.25652e-06 9.92928e-07 0)
(1.28515e-06 1.02488e-06 0)
(1.31377e-06 1.05746e-06 0)
(1.34207e-06 1.09076e-06 4.08757e-21)
(6.83106e-07 4.63609e-07 0)
(7.22148e-07 4.97796e-07 0)
(7.60165e-07 5.31221e-07 0)
(7.97004e-07 5.63897e-07 0)
(8.32858e-07 5.95987e-07 0)
(8.67772e-07 6.2762e-07 0)
(9.01852e-07 6.58924e-07 0)
(9.35177e-07 6.9001e-07 0)
(9.67833e-07 7.20977e-07 0)
(9.99897e-07 7.51912e-07 0)
(1.03144e-06 7.8289e-07 0)
(1.06254e-06 8.13977e-07 0)
(1.09326e-06 8.45234e-07 0)
(1.12366e-06 8.76719e-07 0)
(1.15381e-06 9.08487e-07 0)
(1.18375e-06 9.40604e-07 0)
(1.21354e-06 9.7314e-07 0)
(1.24324e-06 1.00619e-06 0)
(1.27291e-06 1.03986e-06 0)
(1.30239e-06 1.07426e-06 4.27931e-21)
(6.16988e-07 4.22372e-07 0)
(6.5836e-07 4.58543e-07 0)
(6.98598e-07 4.93744e-07 0)
(7.37618e-07 5.28191e-07 0)
(7.7554e-07 5.61977e-07 0)
(8.12416e-07 5.95239e-07 0)
(8.48336e-07 6.28095e-07 0)
(8.83378e-07 6.60658e-07 0)
(9.17628e-07 6.93029e-07 0)
(9.51167e-07 7.25299e-07 0)
(9.84077e-07 7.57546e-07 0)
(1.01643e-06 7.89839e-07 0)
(1.04831e-06 8.22242e-07 0)
(1.07978e-06 8.54813e-07 0)
(1.11092e-06 8.87609e-07 0)
(1.14178e-06 9.20694e-07 0)
(1.17245e-06 9.54137e-07 0)
(1.20298e-06 9.88029e-07 0)
(1.23347e-06 1.02246e-06 0)
(1.26393e-06 1.05761e-06 4.43959e-21)
(5.19039e-07 3.53484e-07 0)
(5.68853e-07 3.94109e-07 0)
(6.11026e-07 4.31117e-07 0)
(6.5205e-07 4.67118e-07 0)
(6.91911e-07 5.02431e-07 0)
(7.30678e-07 5.37115e-07 0)
(7.68395e-07 5.71284e-07 0)
(8.05134e-07 6.0504e-07 0)
(8.40963e-07 6.38479e-07 0)
(8.75958e-07 6.71691e-07 0)
(9.10194e-07 7.04757e-07 0)
(9.43749e-07 7.37748e-07 0)
(9.76698e-07 7.7073e-07 0)
(1.00912e-06 8.0376e-07 0)
(1.04108e-06 8.36893e-07 0)
(1.07265e-06 8.70181e-07 0)
(1.10392e-06 9.03679e-07 0)
(1.13495e-06 9.3745e-07 0)
(1.16583e-06 9.71569e-07 0)
(1.19666e-06 1.00611e-06 0)
(1.22753e-06 1.04126e-06 4.50852e-21)
(4.83772e-07 3.32818e-07 0)
(5.31942e-07 3.72923e-07 0)
(5.73819e-07 4.10002e-07 0)
(6.14694e-07 4.46264e-07 0)
(6.54519e-07 4.8195e-07 0)
(6.93339e-07 5.17089e-07 0)
(7.31172e-07 5.51762e-07 0)
(7.68071e-07 5.86046e-07 0)
(8.04086e-07 6.20017e-07 0)
(8.39281e-07 6.53747e-07 0)
(8.73719e-07 6.87303e-07 0)
(9.0747e-07 7.20746e-07 0)
(9.40602e-07 7.5413e-07 0)
(9.73186e-07 7.87505e-07 0)
(1.00529e-06 8.20918e-07 0)
(1.037e-06 8.54413e-07 0)
(1.06837e-06 8.88036e-07 0)
(1.0995e-06 9.21834e-07 0)
(1.13046e-06 9.55865e-07 0)
(1.16138e-06 9.90185e-07 0)
(1.19234e-06 1.02491e-06 4.52314e-21)
(4.52469e-07 3.12917e-07 0)
(4.98854e-07 3.52478e-07 0)
(5.39994e-07 3.8947e-07 0)
(5.80349e-07 4.25846e-07 0)
(6.19795e-07 4.61785e-07 0)
(6.58362e-07 4.97277e-07 0)
(6.96033e-07 5.32372e-07 0)
(7.32845e-07 5.6712e-07 0)
(7.68828e-07 6.01572e-07 0)
(8.0403e-07 6.35782e-07 0)
(8.38503e-07 6.69801e-07 0)
(8.72305e-07 7.03677e-07 0)
(9.05498e-07 7.37451e-07 0)
(9.38146e-07 7.71164e-07 0)
(9.70316e-07 8.04852e-07 0)
(1.00208e-06 8.38549e-07 0)
(1.03351e-06 8.72288e-07 0)
(1.06468e-06 9.06102e-07 0)
(1.0957e-06 9.40029e-07 0)
(1.12667e-06 9.74095e-07 0)
(1.15768e-06 1.00836e-06 4.53287e-21)
(4.24553e-07 2.93945e-07 0)
(4.69045e-07 3.32828e-07 0)
(5.09192e-07 3.69594e-07 0)
(5.48752e-07 4.05964e-07 0)
(5.87556e-07 4.4205e-07 0)
(6.2562e-07 4.77806e-07 0)
(6.62898e-07 5.13245e-07 0)
(6.99411e-07 5.48391e-07 0)
(7.35168e-07 5.8327e-07 0)
(7.70205e-07 6.17916e-07 0)
(8.0456e-07 6.52362e-07 0)
(8.38282e-07 6.86641e-07 0)
(8.71421e-07 7.20783e-07 0)
(9.04036e-07 7.54817e-07 0)
(9.36188e-07 7.88766e-07 0)
(9.67942e-07 8.22654e-07 0)
(9.9937e-07 8.56499e-07 0)
(1.03055e-06 8.90319e-07 0)
(1.06157e-06 9.24124e-07 0)
(1.09258e-06 9.57919e-07 0)
(1.12362e-06 9.91715e-07 4.53736e-21)
(3.99543e-07 2.75957e-07 0)
(4.421e-07 3.14095e-07 0)
(4.81061e-07 3.50525e-07 0)
(5.19619e-07 3.86779e-07 0)
(5.57576e-07 4.22907e-07 0)
(5.94935e-07 4.58829e-07 0)
(6.31629e-07 4.94527e-07 0)
(6.67661e-07 5.29995e-07 0)
(7.03028e-07 5.65237e-07 0)
(7.37749e-07 6.00263e-07 0)
(7.71852e-07 6.35091e-07 0)
(8.05373e-07 6.69735e-07 0)
(8.38355e-07 7.04214e-07 0)
(8.70849e-07 7.38543e-07 0)
(9.02909e-07 7.72733e-07 0)
(9.34594e-07 8.06796e-07 0)
(9.65971e-07 8.40734e-07 0)
(9.97115e-07 8.74547e-07 0)
(1.02811e-06 9.0822e-07 0)
(1.0591e-06 9.41741e-07 0)
(1.09012e-06 9.75074e-07 4.53626e-21)
(3.76938e-07 2.58958e-07 0)
(4.17573e-07 2.96294e-07 0)
(4.55228e-07 3.32301e-07 0)
(4.92641e-07 3.68349e-07 0)
(5.296e-07 4.04429e-07 0)
(5.66098e-07 4.40432e-07 0)
(6.02054e-07 4.7631e-07 0)
(6.37459e-07 5.12029e-07 0)
(6.72295e-07 5.47567e-07 0)
(7.06572e-07 5.82917e-07 0)
(7.40305e-07 6.18074e-07 0)
(7.73521e-07 6.53041e-07 0)
(8.06255e-07 6.87819e-07 0)