/*--------------------------------*- C++ -*----------------------------------*\
  =========                 |
  \\      /  F ield         | OpenFOAM: The Open Source CFD Toolbox
   \\    /   O peration     | Website:  https://openfoam.org
    \\  /    A nd           | Version:  9
     \\/     M anipulation  |
\*---------------------------------------------------------------------------*/
FoamFile
{
    format      ascii;
    class       volScalarField;
    location    "1";
    object      sigmaEq;
}
// * * * * * * * * * * * * * * * * * * * * * * * * * * * * * * * * * * * * * //

dimensions      [1 -1 -2 0 0 0 0];

internalField   nonuniform List<scalar> 
1000
(
171248
161926
158980
158901
158289
157226
155634
153562
151417
148783
199855
181545
172688
168721
165494
162579
159583
156503
153274
150233
227772
200535
185446
177163
170973
165925
161329
157034
152783
149056
254462
218638
197228
184331
174896
167498
161163
155588
150325
145911
279092
235420
207803
190150
177280
167376
159218
152309
146077
140948
301820
250813
217111
194639
178229
165750
155749
147512
140360
134512
321401
263966
224246
197108
177350
162494
150848
141443
133522
127023
340205
274885
228857
197470
174821
158055
145172
134930
126510
119535
354411
279401
227029
192825
169141
151824
138716
128307
119833
112670
372334
273990
219565
186015
163796
147280
134744
124607
116301
109090
3172.13
2864.65
5727.43
11712.8
18716.7
26082.3
33293.2
40191.7
46534.4
52432.1
2903.18
7759.63
16990.5
26134.5
34327.1
41660.7
48113.7
53925.3
58934.5
63681.9
6511.73
18995.1
30766.6
41328.1
50186.4
57581.9
63646.3
68783.1
72840.8
76739
15078.9
32880.2
46173.6
57281
66163.4
73296.5
78880.8
83397.4
86662.1
89876.1
27974.2
48684.9
62770.3
73889.4
82309
88823.4
93704.3
97477.5
99938.7
102465
44932.2
65771
79734.5
90413.2
98053
103715
107735
110664
112303
114107
65500.9
83876.2
96653.8
106398
112990
117627
120676
122684
123491
124526
89134.6
102771
113191
121421
126692
130155
132168
133214
133239
133454
115132
122249
129171
135261
138907
141044
141942
141998
141271
140721
142767
142064
144457
147753
149428
150035
149722
148699
147406
145749
57731.7
62315.4
66558.4
70391.8
73858.2
76974
79771.4
82269.9
84495.6
86465.4
88197.7
89703.9
90994.3
92075.9
92950.3
93623.3
94091.3
94371.7
94460.9
94418.2
67349.7
70093.5
72856.5
75407.6
77803.3
80018.8
82065.3
83937.3
85645
87189.1
88578
89814.3
90904.1
91850.3
92654.8
93319.4
93837
94208.1
94392.4
94379.7
78952.6
79949
81205.5
82385.7
83589.9
84762.6
85916.8
87023
88084.4
89085.6
90026.7
90900.6
91706
92440.2
93098.1
93674.9
94149.7
94505.3
94657.5
94576
90867
90370
90306.7
90246.8
90332.1
90490.4
90750.7
91066.2
91443.5
91853.7
92294.2
92747.9
93208.3
93664.5
94105.2
94516.2
94866.2
95129
95203.4
95064.5
102376
100622
99420.1
98281
97375.6
96606.4
96032.5
95587.8
95292.1
95106.5
95028.7
95035.4
95117.2
95256.5
95436.6
95638.4
95824.3
95965.1
95961
95794.2
113054
110260
108104
106040
104291
102705
101391
100254
99333.3
98580
97996.2
97555.5
97246.5
97049.8
96946.7
96915.2
96920.3
96932.6
96872.7
96721.6
122632
119003
116107
113264
110828
108538
106575
104818
103324
102044
100981
100111
99420.3
98890.8
98503.3
98236.9
98063.6
97956.1
97867.2
97770.8
130866
126597
123212
119717
116753
113900
111407
109133
107141
105390
103885
102609
101550
100694
100026
99526.9
99181.9
98967
98874.9
98867.6
137737
132876
129377
125409
122017
118703
115738
113017
110589
108428
106536
104899
103511
102358
101431
100719
100219
99912
99836.5
99938.5
143011
137867
134400
130387
126743
123178
119850
116753
113925
111369
109095
107099
105376
103921
102732
101800
101140
100740
100684
100907
145340
140507
136947
133088
129391
125774
122340
119099
116099
113350
110870
108664
106736
105087
103723
102643
101877
101419
101389
101716
141894
139045
135766
132373
129012
125680
122468
119395
116511
113835
111391
109193
107253
105578
104183
103077
102300
101852
101883
102310
139212
136853
134244
131267
128294
125247
122270
119371
116617
114031
111645
109478
107549
105872
104470
103356
102582
102150
102226
102721
135840
134136
132088
129537
126950
124210
121495
118808
116227
113777
111497
109409
107538
105904
104531
103443
102688
102287
102411
102943
131937
130774
129263
127165
124994
122599
120187
117755
115389
113118
110985
109018
107244
105688
104374
103338
102602
102274
102257
102972
127714
127046
126025
124362
122590
120547
118448
116290
114166
112103
110151
108338
106697
105250
104032
103063
102405
102075
102219
102734
123262
123022
122436
121187
119799
118109
116333
114465
112602
110773
109028
107399
105917
104608
103505
102628
102035
101728
101859
102342
118673
118803
118603
117736
116708
115362
113905
112334
110744
109166
107650
106226
104928
103779
102811
102042
101522
101255
101368
101783
113996
114435
114571
114054
113362
112347
111206
109936
108629
107315
106044
104844
103749
102781
101967
101323
100888
100662
100751
101084
109253
109953
110382
110182
109803
109106
108275
107307
106290
105251
104237
103278
102403
101633
100990
100485
100148
99972.7
100036
100276
104445
105363
106047
106139
106055
105666
105141
104478
103756
103001
102259
101554
100914
100356
99898.4
99547.6
99321.2
99207.7
99250
99397.2
99554.8
100659
101571
101936
102134
102050
101831
101477
101059
100600
100140
99701.1
99308
98975.5
98716.5
98533.2
98430.7
98392.3
98425
98486.4
94545.2
95818.2
96942.1
97572.6
98052.7
98274.4
98369.5
98335.1
98232.4
98081.3
97915.6
97755.6
97620.8
97523.8
97473.5
97468.3
97502.4
97553.4
97593
97584.3
89373.2
90812.8
92148.7
93051
93822.7
94364.9
94789.4
95090.6
95319.6
95491.4
95634.4
95763.6
95896.5
96042.6
96207.2
96387.1
96567.6
96720.8
96788
96731.6
83976.8
85602.9
87169.9
88368.4
89458.1
90348.1
91128.6
91790.7
92373.6
92888.1
93354.6
93785.6
94193.5
94586.6
94967.9
95333.1
95663.2
95927.6
96043.6
95967.6
78314.8
80172.3
82011.1
83550.7
85000.5
86278
87450.8
88505.6
89469.9
90348.3
91154.8
91896.7
92584.9
93223.7
93816.7
94360
94834.6
95210.2
95392.2
95326.5
72321.9
74490.4
76673.8
78625.4
80499.9
82222
83835.8
85324.4
86702.9
87969.6
89133.1
90197
91166.7
92046.9
92839.6
93543.4
94143.3
94614.6
94868.9
94841.2
66045.6
68640.9
71266.5
73718.9
76092.9
78321.2
80426
82385.4
84205
85878.8
87409.9
88797.9
90045.8
91155.8
92129.3
92967
93660.3
94194.2
94504.4
94525.4
59493.3
62688.3
65899
68970
71937.5
74743.3
77391.5
79858.8
82144.3
84239.8
86145.5
87858.8
89379.6
90707.6
91841.2
92779
93514.7
94047.6
94348.3
94398.8
53148.5
57108.5
61023.3
64787.4
68399.5
71808.1
75008.7
77979.1
80717.3
83215.9
85475
87491.8
89265.4
90791.3
92062.7
93073.1
93807.6
94272.5
94455.5
94434.3
102998
106480
113104
120530
128164
134903
140286
143931
145870
145627
97393.6
100677
106909
114100
121802
128972
135136
139760
142735
143357
92342
95465.5
101297
108080
115488
122559
128900
134080
138036
140310
87711.4
90737.7
96268.6
102729
109906
116898
123313
128744
132998
136210
83366.2
86311
91559.6
97673.4
104541
111349
117739
123400
127922
131772
79280.4
82175.5
87203.6
93020.6
99594.5
106181
112426
118129
122721
126991
75375.1
78228.9
83062.7
88604.4
94888.6
101242
107318
113011
117610
122081
71630.3
74452
79121.9
84417.5
90425.5
96531.1
102395
107998
112554
117109
68008.6
70796.1
75317.4
80386.9
86133.3
91992.2
97639
103108
107588
112130
64499.8
67245.8
71625
76479.5
81972.6
87578.9
92997.5
98297.7
102683
107156
61094.4
63782.7
68013.8
72653.3
77893.6
83242.8
88428.2
93534
97808.9
102177
57800.6
60404.3
64465.9
68873.7
73849.7
78927.9
83871.4
88764.6
92918.3
97160.1
54643.1
57118.5
60963.2
65101.7
69784.6
74571
79259.6
83925.4
87949.2
92056.7
51668.2
53944.4
57492.8
61298.9
65640.7
70102.4
74517.6
78943.2
82832.7
86806.2
48972.3
50922.8
54028.5
57391.7
61317.1
65412.6
69534.9
73715.7
77475.6
81328.2
46689.4
48074.7
50522.8
53306.5
56722.9
60404
64215.6
68153.1
71800.1
75557
45092.2
45453.8
46827.7
48808.2
51607.3
54842.6
58354.8
62084.9
65668.8
69390.1
44348.6
42823.2
42707.1
43725.9
45844.6
48632.2
51886.8
55473.8
59075.1
62844.2
45176.9
39828.2
37352.4
37209.1
38739.4
41244.6
44427.6
48061.3
51862.2
55848.9
45510.2
34187.2
30304.5
29195.9
30462
32933.3
36303
40234.3
44466.1
48880.2
)
;

boundaryField
{
    left
    {
        type            calculated;
        value           nonuniform List<scalar> 
30
(
102100
96515.4
91480.3
86858.1
82523.8
78452.3
74569
70856.8
67281.2
63835.8
60515.2
57331
54312.3
51513.5
49036
47057.6
45925.7
46211.6
49640.4
57173.1
395925
266801
212407
181533
161263
145678
133636
123694
115473
108225
)
;
    }
    right
    {
        type            calculated;
        value           nonuniform List<scalar> 
30
(
94399.6
94379.8
94566
95048.2
95774.7
96703.7
97757.4
98862.5
99941.8
100924
101737
102345
102759
102984
102982
102770
102380
101816
101110
100294
99407.5
98489.3
97581.2
96723.8
95957.6
95317.3
94835.9
94525.3
94403.4
94412.7
)
;
    }
    down
    {
        type            calculated;
        value           nonuniform List<scalar> 
30
(
2977.99
2635.57
4114.99
9918.02
17081.3
24655.9
32081.6
39172.3
45681
51713.3
57145.5
61879.4
66227.8
70138.9
73666.3
76827.7
79661.6
82187.4
84435.5
86422.3
88168
89684.3
90983.2
92070
92948.3
93622.9
94091.1
94370.7
94460.6
94429.5
)
;
    }
    up
    {
        type            calculated;
        value           nonuniform List<scalar> 
30
(
44198.8
33779.3
30160.2
29057.5
30297.6
32738
36087
40009.9
44238.4
48660.9
52939
56921.2
60862
64647.7
68282.3
71710.2
74928.8
77914.4
80666.9
83177.5
85446.5
87472.3
89252.9
90784.7
92060.4
93073.4
93808.6
94273.4
94454.6
94441.3
)
;
    }
    hole
    {
        type            calculated;
        value           nonuniform List<scalar> 
20
(
170291
199750
228488
255944
281260
304600
324694
344072
358930
376296
2825.27
2824.41
3346.77
10702.2
23286.5
40416.7
61437.2
85719.7
112481
140950
)
;
    }
    frontAndBack
    {
        type            empty;
    }
}


// ************************************************************************* //
