/*--------------------------------*- C++ -*----------------------------------*\
  =========                 |
  \\      /  F ield         | OpenFOAM: The Open Source CFD Toolbox
   \\    /   O peration     | Website:  https://openfoam.org
    \\  /    A nd           | Version:  9
     \\/     M anipulation  |
\*---------------------------------------------------------------------------*/
FoamFile
{
    format      ascii;
    class       volSymmTensorField;
    location    "1";
    object      sigma;
}
// * * * * * * * * * * * * * * * * * * * * * * * * * * * * * * * * * * * * * //

dimensions      [1 -1 -2 0 0 0 0];

internalField   nonuniform List<symmTensor> 
1000
(
(123024 -84205.1 -7.66294e-11 71486.3 -7.68335e-11 19394)
(144286 -64930.6 -6.82893e-11 39041 -6.31856e-11 19104.6)
(154976 -49730.5 -6.04402e-11 23749.5 -5.26398e-11 19078.6)
(159500 -38267.8 -5.47418e-11 11734.7 -4.46874e-11 18682.8)
(161156 -29049.7 -4.98514e-11 4712.02 -3.83489e-11 18375.7)
(160482 -21844.3 -4.60755e-11 -527.921 -3.34052e-11 17965.9)
(158862 -15988.7 -4.29203e-11 -3901.7 -2.94075e-11 17597.4)
(156363 -11333.6 -4.04277e-11 -6341.13 -2.62377e-11 17206.9)
(153787 -7464.37 -3.83141e-11 -7944.31 -2.36128e-11 16866.8)
(150379 -4245.97 -3.66392e-11 -9480.44 -2.14289e-11 16447.1)
(155983 -93614.7 -8.1125e-11 72115.1 -8.30783e-11 22531.4)
(170002 -67020 -6.82138e-11 41159.1 -6.45583e-11 21716.3)
(175733 -47822.8 -5.78289e-11 27236.1 -5.13659e-11 21349.1)
(176275 -34028.7 -5.07244e-11 15839.4 -4.18694e-11 20636.2)
(174858 -23512.9 -4.5058e-11 9358.53 -3.46776e-11 20085.4)
(171664 -15647.9 -4.09367e-11 4335.11 -2.93017e-11 19455.4)
(167989 -9507.15 -3.76656e-11 1112.11 -2.51214e-11 18903.6)
(163791 -4839.73 -3.52525e-11 -1434.19 -2.19458e-11 18342.1)
(159632 -1057.11 -3.32531e-11 -2982.96 -1.93846e-11 17853.7)
(155039 1970.05 -3.18334e-11 -5079.44 -1.73217e-11 17276.3)
(191476 -99556.2 -8.37968e-11 69448.8 -8.69201e-11 25687)
(196199 -66936.7 -6.68783e-11 42322.4 -6.44505e-11 24317.7)
(195849 -44516.2 -5.43075e-11 31039.1 -4.91593e-11 23592.9)
(191723 -28896.1 -4.60364e-11 21012.3 -3.84752e-11 22550.4)
(186826 -17462.9 -3.97862e-11 15522.7 -3.06959e-11 21748.4)
(180870 -9224.24 -3.54722e-11 10985.1 -2.5086e-11 20893.4)
(175026 -3035.75 -3.22143e-11 8086.92 -2.08858e-11 20158.8)
(169050 1483.74 -2.99667e-11 5565.62 -1.78153e-11 19427.5)
(163446 4996.94 -2.81911e-11 4079.83 -1.54406e-11 18803.3)
(157614 7853.18 -2.69824e-11 1647.04 -1.34897e-11 18080.2)
(228360 -101180 -8.40763e-11 64007.2 -8.78021e-11 28796.8)
(222288 -64417.9 -6.41204e-11 42658.5 -6.26895e-11 26864)
(215015 -39863.9 -4.99304e-11 35113.3 -4.6056e-11 25776.2)
(205663 -23122 -4.0867e-11 27104 -3.46715e-11 24394.9)
(196952 -11273.2 -3.43136e-11 22965.8 -2.66502e-11 23333.4)
(188065 -3012.1 -3.00107e-11 19093.7 -2.10464e-11 22248.3)
(179976 2960.97 -2.6929e-11 16568.7 -1.70045e-11 21325.1)
(172261 7166.82 -2.49469e-11 14102.1 -1.4151e-11 20428.9)
(165263 10268.1 -2.34977e-11 12575 -1.20562e-11 19664.8)
(158408 12793.9 -2.25702e-11 9961.58 -1.03269e-11 18827.3)
(264974 -97728.9 -8.14512e-11 56456 -8.5231e-11 31758.1)
(247500 -59119.7 -5.97299e-11 42336.6 -5.90497e-11 29296.9)
(232784 -33796.1 -4.46744e-11 39440.3 -4.20099e-11 27855.6)
(217842 -16832.9 -3.53265e-11 33992.7 -3.05426e-11 26135.3)
(205112 -5220.33 -2.8849e-11 31503.2 -2.27232e-11 24812.2)
(193225 2603.09 -2.4832e-11 28432.1 -1.74375e-11 23497.2)
(182919 8029.05 -2.21334e-11 26304.8 -1.37778e-11 22387.6)
(173548 11693.8 -2.05588e-11 23884.7 -1.12935e-11 21332.1)
(165303 14218.9 -1.955e-11 22216.5 -9.58704e-12 20433.3)
(157558 16277.8 -1.89835e-11 19423.3 -8.17052e-12 19493.2)
(300494 -89012.3 -7.56609e-11 47978.9 -7.91056e-11 34583.6)
(271473 -50819.8 -5.34929e-11 41939 -5.33937e-11 31627.9)
(249040 -26227.5 -3.84385e-11 44367.5 -3.69709e-11 29847)
(228240 -10150.2 -2.94783e-11 41775 -2.6171e-11 27775.8)
(211372 431.478 -2.35717e-11 41037 -1.90905e-11 26181.8)
(196504 7270.92 -2.01922e-11 38738.1 -1.44898e-11 24632.3)
(184081 11787.3 -1.8117e-11 36913.1 -1.14533e-11 23336)
(173202 14680.1 -1.71034e-11 34453.9 -9.49171e-12 22127)
(163874 16495 -1.66317e-11 32519 -8.26073e-12 21098.7)
(155398 17978 -1.64924e-11 29524.9 -7.22973e-12 20069)
(332691 -74477.9 -6.631e-11 39507.6 -6.90784e-11 37134.7)
(293073 -38903.2 -4.49726e-11 42105.3 -4.53241e-11 33801.4)
(262752 -16935.8 -3.10577e-11 50354.4 -3.08014e-11 31688.2)
(236089 -3147.34 -2.33794e-11 50598.6 -2.16117e-11 29253.8)
(215267 5419.64 -1.86934e-11 51398.2 -1.59268e-11 27382.6)
(197708 10636.2 -1.63849e-11 49609.1 -1.24347e-11 25601.7)
(183482 13865.5 -1.51973e-11 47833.6 -1.02695e-11 24126.6)
(171384 15775 -1.48937e-11 45154.4 -8.9683e-12 22776.6)
(161233 16796.6 -1.50244e-11 42796.3 -8.26469e-12 21631.1)
(152219 17647.9 -1.53486e-11 39542.6 -7.65478e-12 20525.2)
(363715 -54084 -5.29005e-11 33598.9 -5.51647e-11 39812.7)
(312521 -22765.2 -3.3428e-11 45166.4 -3.44785e-11 36021.2)
(273913 -5783.47 -2.21751e-11 59202.5 -2.34435e-11 33516.8)
(241577 3778.7 -1.7139e-11 61380.6 -1.71489e-11 30654)
(217169 9211.74 -1.45039e-11 62812.4 -1.35932e-11 28463.6)
(197408 12209.6 -1.37303e-11 60821.5 -1.15951e-11 26439.5)
(181812 13906.3 -1.36479e-11 58561.2 -1.04548e-11 24784.4)
(168869 14767.2 -1.41274e-11 55341 -9.85072e-12 23304.4)
(158188 15054 -1.48401e-11 52361.6 -9.63029e-12 22055.2)
(148851 15331.7 -1.55916e-11 48777.7 -9.40056e-12 20888.8)
(389545 -25309.1 -3.35318e-11 33396.9 -3.57421e-11 42490.8)
(325689 -2361.95 -1.83977e-11 55210.1 -2.09185e-11 38203.1)
(278479 5725.8 -1.26068e-11 73020 -1.59605e-11 35094.6)
(241764 8763.25 -1.1995e-11 74601.4 -1.40533e-11 31717.3)
(215451 10294.9 -1.21323e-11 74625.6 -1.30988e-11 29207.5)
(194802 10828.6 -1.31737e-11 71221.1 -1.27326e-11 26971.9)
(178801 11098.3 -1.4195e-11 67754.9 -1.25296e-11 25175.4)
(165650 11109.5 -1.53547e-11 63656.8 -1.24801e-11 23602.1)
(154857 10926.7 -1.64807e-11 59936.2 -1.25615e-11 22282)
(145442 10838.9 -1.75191e-11 56011.9 -1.2571e-11 21079.5)
(423251 22554.1 2.02769e-12 58182.9 -3.94791e-12 47972.5)
(331627 25170.9 4.03064e-12 86583.4 -2.99968e-12 41371.2)
(277965 16586.3 -2.32425e-12 95869 -9.1034e-12 36868.6)
(240141 10729.9 -8.31278e-12 91425.8 -1.30621e-11 32859)
(213735 8457.49 -1.16569e-11 86175.8 -1.4563e-11 29909.5)
(193194 7195.42 -1.42784e-11 79799.2 -1.53464e-11 27444.3)
(177302 6751.87 -1.60546e-11 74277.8 -1.55826e-11 25496.2)
(164219 6497.43 -1.75404e-11 69097.5 -1.56903e-11 23844.8)
(153440 6299.24 -1.87822e-11 64663.3 -1.57679e-11 22471.7)
(143988 6167.07 -1.98808e-11 60532.7 -1.58038e-11 21249.5)
(-564.254 197.078 -3.88471e-11 -319.207 -1.90479e-11 2704.83)
(450.945 -706.045 -3.93222e-11 61.0027 -1.96597e-11 2824.37)
(4532.21 -2217.62 -4.01541e-11 -227.247 -2.06588e-11 3182.33)
(11061.3 -3427.18 -4.06814e-11 -465.588 -2.14487e-11 3781.13)
(18646.7 -4172.34 -4.08531e-11 -589.404 -2.19258e-11 4493.5)
(26606.3 -4596.5 -4.07943e-11 -649.507 -2.21872e-11 5248.96)
(34403.8 -4762.22 -4.05711e-11 -659.648 -2.22762e-11 5994.64)
(41853.6 -4774.91 -4.02591e-11 -632.092 -2.22642e-11 6711.03)
(48682.6 -4647.82 -3.98869e-11 -618.5 -2.21595e-11 7367.88)
(55048.7 -4549.46 -3.95391e-11 -512.47 -2.20777e-11 7987.12)
(744.04 -759.901 -3.93601e-11 -47.0976 -1.96929e-11 2843.8)
(6007.52 -4106.05 -4.08825e-11 2529.58 -2.19777e-11 3519.73)
(13647.6 -7799.53 -4.28921e-11 2639.27 -2.44413e-11 4232.92)
(21753.9 -10621.3 -4.44623e-11 1841.1 -2.62998e-11 4928.16)
(29902.6 -12356 -4.53349e-11 1074.36 -2.7428e-11 5638.07)
(37646.7 -13328 -4.57277e-11 380.313 -2.80461e-11 6320.42)
(44827.4 -13677.9 -4.57247e-11 -152.331 -2.82504e-11 6965.73)
(51472.4 -13653.3 -4.54849e-11 -533.496 -2.82079e-11 7574.07)
(57331 -13275.2 -4.50448e-11 -860.717 -2.79307e-11 8113.78)
(62888.1 -12973.7 -4.4622e-11 -890.928 -2.77117e-11 8646.63)
(2302.37 -3732.8 -4.08014e-11 2536.27 -2.17375e-11 3167.75)
(11514.3 -10248.7 -4.41229e-11 5450.99 -2.61484e-11 4224.24)
(22064.2 -14823 -4.66445e-11 5051.03 -2.91859e-11 5170.99)
(31753.8 -17886.5 -4.84741e-11 3093.07 -3.118e-11 5927.81)
(40668.9 -19573.8 -4.94385e-11 1281.17 -3.2254e-11 6631.85)
(48520 -20366.8 -4.98458e-11 -295.367 -3.27344e-11 7258.58)
(55413 -20462.6 -4.97916e-11 -1491.96 -3.27558e-11 7827.61)
(61555.2 -20135.1 -4.94512e-11 -2355.38 -3.25016e-11 8353.24)
(66690.9 -19422.1 -4.88771e-11 -3006.05 -3.1995e-11 8801.49)
(71662.5 -18822.8 -4.83129e-11 -3194.8 -3.15741e-11 9268.32)
(5522.79 -8391.41 -4.27472e-11 8467.82 -2.49754e-11 3893.65)
(18961.9 -17610.8 -4.79287e-11 9229.88 -3.115e-11 5171.06)
(31914.3 -22418.7 -5.06718e-11 7662.11 -3.43153e-11 6257.36)
(42971.3 -25113.6 -5.23895e-11 4481.49 -3.60339e-11 7054.91)
(52533.2 -26228.4 -5.31088e-11 1687.02 -3.67021e-11 7750.39)
(60492.3 -26434.5 -5.32628e-11 -734.671 -3.67713e-11 8327.45)
(67138.4 -25983.6 -5.29707e-11 -2594.89 -3.64131e-11 8826.32)
(72837.8 -25149.4 -5.24032e-11 -3970.72 -3.58095e-11 9274.24)
(77297.6 -23989.6 -5.16311e-11 -5010 -3.49971e-11 9631.43)
(81740.4 -23009.1 -5.08808e-11 -5426.1 -3.43169e-11 10033.1)
(11017.7 -14971.7 -4.54099e-11 17148.4 -2.95519e-11 5032.7)
(28955 -25624.5 -5.19855e-11 13386.8 -3.65901e-11 6385.84)
(43908.6 -29943.7 -5.46477e-11 9695.89 -3.93798e-11 7505.9)
(55909.1 -31738.2 -5.59846e-11 4957.9 -4.04601e-11 8281.96)
(65738.1 -31854.6 -5.62111e-11 1135 -4.04365e-11 8932.24)
(73536.7 -31149.6 -5.59083e-11 -2071.32 -3.98782e-11 9440.91)
(79755.7 -29917.9 -5.52218e-11 -4500.02 -3.89854e-11 9861.37)
(84890.5 -28408.9 -5.43106e-11 -6291.01 -3.79216e-11 10228.6)
(88615.7 -26714.2 -5.32735e-11 -7626.6 -3.67458e-11 10496.8)
(92483.6 -25272.5 -5.22776e-11 -8200.07 -3.57544e-11 10834.8)
(19510.1 -23618 -4.89508e-11 27905.6 -3.55491e-11 6601.97)
(41821 -33748.4 -5.59169e-11 18036.7 -4.21055e-11 7912.84)
(58363.4 -36711.6 -5.80531e-11 11631.5 -4.39265e-11 8988.56)
(70834.6 -37146 -5.87599e-11 5176.18 -4.40577e-11 9689.11)
(80510.5 -35996.1 -5.83323e-11 375.906 -4.31644e-11 10259.7)
(87807 -34218.1 -5.74688e-11 -3506.63 -4.18728e-11 10676.8)
(93342.3 -32107.2 -5.63202e-11 -6389.71 -4.03821e-11 11003.7)
(97710.9 -29865.9 -5.50225e-11 -8495.81 -3.8822e-11 11278.9)
(100575 -27620.5 -5.37052e-11 -10062.1 -3.72739e-11 11451.1)
(103744 -25694.8 -5.2447e-11 -10739.2 -3.59572e-11 11717.8)
(31595 -34234.8 -5.34723e-11 39481.6 -4.28772e-11 8563.26)
(57513.9 -41659.4 -5.95682e-11 22855.1 -4.74729e-11 9725.37)
(75032.3 -42321.1 -6.06408e-11 13476.2 -4.76861e-11 10685.4)
(87401.9 -40935.8 -6.04603e-11 5232.77 -4.65598e-11 11253.5)
(96459 -38308.1 -5.92537e-11 -478.118 -4.46567e-11 11706.5)
(102871 -35370.9 -5.7776e-11 -4934.39 -4.25774e-11 12003.8)
(107441 -32357.2 -5.61432e-11 -8151.12 -4.04759e-11 12219.5)
(110808 -29395.2 -5.44624e-11 -10473.5 -3.84301e-11 12387.6)
(112680 -26637.1 -5.28815e-11 -12182.9 -3.65371e-11 12457.6)
(114983 -24243.6 -5.13712e-11 -12920.9 -3.49071e-11 12640.2)
(47811.2 -46427.8 -5.88758e-11 50687.8 -5.12458e-11 10880.7)
(75909.6 -49048.1 -6.2775e-11 27659.7 -5.24814e-11 11800)
(93540.3 -46504.3 -6.22128e-11 15527.1 -5.04858e-11 12584.9)
(105140 -42891.7 -6.08915e-11 5645.27 -4.78324e-11 12971.2)
(113096 -38642.8 -5.88138e-11 -826.79 -4.48277e-11 13272.8)
(118250 -34531.6 -5.67089e-11 -5730.06 -4.19541e-11 13424.1)
(121587 -30662 -5.4619e-11 -9181.31 -3.92761e-11 13510.1)
(123737 -27061.3 -5.26003e-11 -11628.5 -3.68016e-11 13557)
(124509 -23880 -5.08165e-11 -13461.8 -3.4625e-11 13515.2)
(125778 -21081.1 -4.90934e-11 -14209.4 -3.27253e-11 13600.9)
(68476.8 -59482 -6.48725e-11 60327.5 -6.01506e-11 13498.9)
(96750.9 -55609.6 -6.54029e-11 32119.7 -5.69199e-11 14089.1)
(113383 -49139.9 -6.27005e-11 17872 -5.22469e-11 14646.6)
(123451 -42993.5 -6.0024e-11 6699.56 -4.78695e-11 14806.7)
(129808 -37046.5 -5.70115e-11 -294.146 -4.37175e-11 14927.9)
(133336 -31805.3 -5.43012e-11 -5500.59 -4.00827e-11 14908.8)
(135204 -27166.2 -5.17989e-11 -9055.16 -3.68896e-11 14851.9)
(135919 -23060.4 -4.95351e-11 -11598 -3.40781e-11 14757.5)
(135543 -19564.3 -4.76051e-11 -13468.4 -3.16925e-11 14605.2)
(135567 -16438 -4.57585e-11 -14431.7 -2.95716e-11 14557.6)
(93646.6 -72449.4 -7.0992e-11 67476.7 -6.89356e-11 16359.8)
(119688 -61021.3 -6.7298e-11 35990.3 -6.0568e-11 16542.9)
(134024 -50206.5 -6.20959e-11 20614.4 -5.29583e-11 16826.9)
(141727 -41376.7 -5.79255e-11 8689.33 -4.67689e-11 16723)
(145961 -33741.7 -5.39595e-11 1488.13 -4.14843e-11 16637.5)
(147517 -27451.2 -5.06817e-11 -3827.48 -3.71476e-11 16429)
(147680 -22161.8 -4.78392e-11 -7386.66 -3.3522e-11 16213.1)
(146821 -17700.3 -4.54074e-11 -9875.68 -3.04768e-11 15974.6)
(145295 -14083.2 -4.34718e-11 -11901.1 -2.801e-11 15701)
(143898 -10946.4 -4.16425e-11 -12618.2 -2.5891e-11 15536)
(60739.8 -4220.45 -3.90883e-11 -512.524 -2.18403e-11 8535.32)
(65747.8 -3765.15 -3.85697e-11 -398.477 -2.15219e-11 9027.67)
(70337.2 -3369.84 -3.81118e-11 -317.083 -2.1245e-11 9476.92)
(74458.6 -3011.03 -3.76996e-11 -256.821 -2.09932e-11 9879.42)
(78178.5 -2678.4 -3.73216e-11 -197.62 -2.076e-11 10243.1)
(81507.4 -2380.53 -3.69844e-11 -154.136 -2.05512e-11 10567.9)
(84492.8 -2107.37 -3.66786e-11 -112.457 -2.03598e-11 10859.4)
(87151.6 -1861.34 -3.64042e-11 -80.5471 -2.01875e-11 11118.6)
(89517.4 -1635.76 -3.61558e-11 -52.1947 -2.00296e-11 11349.4)
(91607.3 -1428.89 -3.59329e-11 -30.2136 -1.9885e-11 11553)
(93442.8 -1236.85 -3.573e-11 -12.4269 -1.97508e-11 11731.8)
(95036.5 -1056.18 -3.55459e-11 0.899781 -1.96253e-11 11887)
(96399.8 -883.516 -3.53768e-11 9.87274 -1.95055e-11 12019.7)
(97539.9 -716.736 -3.52217e-11 14.0141 -1.93904e-11 12130.6)
(98459.6 -553.298 -3.50794e-11 14.4389 -1.92779e-11 12220.1)
(99164.6 -392.799 -3.49474e-11 10.6161 -1.91677e-11 12288.6)
(99651.8 -238.046 -3.48297e-11 3.18284 -1.90623e-11 12335.9)
(99942.6 -97.5932 -3.47288e-11 -2.76374 -1.89668e-11 12364.4)
(100037 10.1187 -3.46563e-11 -2.28589 -1.88942e-11 12374.3)
(100028 35.5099 -3.46327e-11 51.8174 -1.88782e-11 12377.7)
(67360.5 -12079.8 -4.39017e-11 -1148.7 -2.70929e-11 9062.54)
(71049.9 -10871.9 -4.2973e-11 -1119.82 -2.6271e-11 9427.61)
(74606.9 -9808.11 -4.21317e-11 -1024.46 -2.55476e-11 9783.97)
(77781.4 -8816.11 -4.13582e-11 -976.197 -2.48724e-11 10099.5)
(80724.4 -7886.26 -4.06296e-11 -885.353 -2.42408e-11 10395.7)
(83371.7 -7046.75 -3.99741e-11 -825.781 -2.367e-11 10660.4)
(85789.8 -6269.38 -3.93667e-11 -753.625 -2.31419e-11 10903.6)
(87962.5 -5563.77 -3.88171e-11 -699.204 -2.26625e-11 11121.4)
(89924.8 -4912.56 -3.83119e-11 -646.746 -2.222e-11 11318.5)
(91677.9 -4313.86 -3.78509e-11 -606.235 -2.18133e-11 11494.2)
(93241.5 -3755.52 -3.74248e-11 -572.414 -2.14341e-11 11650.9)
(94621.4 -3231.4 -3.70289e-11 -547.778 -2.10783e-11 11789)
(95829.3 -2732.53 -3.6658e-11 -529.939 -2.074e-11 11910)
(96871.8 -2253.44 -3.63069e-11 -517.514 -2.04149e-11 12014.5)
(97755.2 -1788.91 -3.59728e-11 -506.577 -2.01005e-11 12103.5)
(98487.6 -1339.09 -3.56522e-11 -489.693 -1.97962e-11 12178.4)
(99068.3 -909.041 -3.53494e-11 -457.571 -1.9506e-11 12239.8)
(99515.6 -517.616 -3.5071e-11 -384.141 -1.92432e-11 12291.2)
(99810.2 -193.144 -3.48297e-11 -236.751 -1.9027e-11 12333.1)
(99999.8 -20.7516 -3.46667e-11 71.1968 -1.89165e-11 12376.1)
(75045.8 -17482.9 -4.73681e-11 -3535.24 -3.06575e-11 9576.86)
(77397 -15837 -4.6209e-11 -3449.82 -2.95461e-11 9821.21)
(79927.8 -14360.9 -4.51158e-11 -3138.2 -2.85523e-11 10098.8)
(82115.9 -12990.4 -4.41211e-11 -2934.96 -2.76284e-11 10334.4)
(84254.4 -11685.3 -4.31573e-11 -2644.64 -2.67507e-11 10571.4)
(86175 -10500.8 -4.2289e-11 -2421.38 -2.59531e-11 10781.6)
(87986.4 -9392.63 -4.14729e-11 -2185.37 -2.52077e-11 10981.6)
(89629.5 -8380.32 -4.07305e-11 -1991.42 -2.45261e-11 11161.5)
(91147.5 -7440.85 -4.00415e-11 -1813.13 -2.38937e-11 11327.8)
(92523.3 -6573.41 -3.94105e-11 -1667.86 -2.33096e-11 11477.3)
(93775.7 -5763.96 -3.88242e-11 -1546.59 -2.27641e-11 11612.7)
(94903.2 -5005.44 -3.82798e-11 -1452.67 -2.22525e-11 11733.7)
(95915 -4287.53 -3.77696e-11 -1380.94 -2.17684e-11 11841.6)
(96815.4 -3602.51 -3.7288e-11 -1328.43 -2.13064e-11 11937.1)
(97608.9 -2944.34 -3.68296e-11 -1286 -2.08625e-11 12021.4)
(98302.7 -2310.77 -3.639e-11 -1238.91 -2.04356e-11 12096.3)
(98891.9 -1702.85 -3.59675e-11 -1165.11 -2.00266e-11 12163)
(99388.6 -1130.48 -3.55604e-11 -1020.69 -1.96432e-11 12225.9)
(99748.7 -611.029 -3.51734e-11 -741.785 -1.92983e-11 12285.6)
(100014 -168.154 -3.4803e-11 -220.186 -1.90098e-11 12354.1)
(84037.3 -21294.5 -4.97611e-11 -5884.2 -3.3149e-11 10231.3)
(84961.3 -19409.2 -4.85145e-11 -5830.46 -3.18796e-11 10338.2)
(86428.7 -17670.8 -4.72753e-11 -5353.52 -3.07159e-11 10528.4)
(87552.5 -16085.5 -4.6176e-11 -5065.16 -2.96526e-11 10670.1)
(88823.2 -14542.4 -4.50743e-11 -4613.59 -2.86204e-11 10838)
(89940.6 -13142.1 -4.40835e-11 -4261.15 -2.76826e-11 10982.5)
(91076.4 -11816 -4.31354e-11 -3881.15 -2.67953e-11 11130.4)
(92119.4 -10599 -4.22697e-11 -3560.78 -2.59803e-11 11264)
(93128 -9461.18 -4.14584e-11 -3262.98 -2.52181e-11 11392)
(94063.8 -8407.05 -4.07112e-11 -3013.01 -2.45117e-11 11508.7)
(94946.7 -7420.94 -4.00148e-11 -2799.62 -2.38504e-11 11617)
(95764.8 -6496.16 -3.93665e-11 -2627.81 -2.32298e-11 11715.5)
(96524.4 -5622.44 -3.87581e-11 -2491.73 -2.26427e-11 11805.3)
(97224.6 -4790.68 -3.81837e-11 -2385.38 -2.20835e-11 11886.8)
(97865.9 -3993.4 -3.76368e-11 -2298.41 -2.15475e-11 11960.9)
(98450.6 -3224.31 -3.71093e-11 -2211.33 -2.10304e-11 12029.4)
(98966.6 -2479.15 -3.6597e-11 -2097.39 -2.05302e-11 12093.2)
(99422.3 -1753.5 -3.60875e-11 -1906.68 -2.0045e-11 12156.9)
(99755.7 -1053.37 -3.55782e-11 -1574.62 -1.95797e-11 12219.4)
(100020 -327.851 -3.50183e-11 -984.427 -1.91026e-11 12295.2)
(93690.5 -23266 -5.10214e-11 -8680.15 -3.43925e-11 10929)
(93129.3 -21373.2 -4.98394e-11 -8669.48 -3.3122e-11 10890.3)
(93552.4 -19527.6 -4.85427e-11 -7965.87 -3.18934e-11 10998.4)
(93587.6 -17902.3 -4.74502e-11 -7580.51 -3.08082e-11 11043.3)
(93988.1 -16270 -4.62993e-11 -6935.68 -2.97223e-11 11143.2)
(94281 -14794.9 -4.52729e-11 -6426.08 -2.87397e-11 11221.3)
(94721.8 -13376.5 -4.42699e-11 -5871.51 -2.77956e-11 11316.4)
(95138.1 -12067.7 -4.3348e-11 -5393.39 -2.69237e-11 11402.7)
(95608.2 -10834 -4.24772e-11 -4945.59 -2.61015e-11 11491.2)
(96072.5 -9684.89 -4.16687e-11 -4562.04 -2.53351e-11 11573.6)
(96549.9 -8605.5 -4.09128e-11 -4230.94 -2.46143e-11 11652.7)
(97019.9 -7590.66 -4.02073e-11 -3958.88 -2.39362e-11 11726.2)
(97485.6 -6630.34 -3.95439e-11 -3739.76 -2.32935e-11 11794.7)
(97939.2 -5715.32 -3.8917e-11 -3568.06 -2.26804e-11 11858.2)
(98377.6 -4835.98 -3.83185e-11 -3431.18 -2.20905e-11 11917.3)
(98798.7 -3981.24 -3.77388e-11 -3309.59 -2.15168e-11 11973.4)
(99185.1 -3140.92 -3.71688e-11 -3175.69 -2.09537e-11 12027)
(99541.4 -2294.6 -3.65865e-11 -2981.73 -2.03872e-11 12082.3)
(99801.8 -1441.32 -3.5986e-11 -2669.27 -1.9819e-11 12137.5)
(100022 -468.571 -3.52777e-11 -2129.14 -1.91749e-11 12207.1)
(103836 -23499.6 -5.11165e-11 -11212.9 -3.44718e-11 11707.1)
(101727 -21844 -5.01748e-11 -11360.8 -3.33617e-11 11506)
(101128 -20039 -4.8918e-11 -10460.9 -3.21675e-11 11530.8)
(100052 -18534.8 -4.79427e-11 -10032.4 -3.11677e-11 11471.6)
(99581.7 -16946 -4.68345e-11 -9237.11 -3.01162e-11 11499)
(99037.5 -15516 -4.58531e-11 -8601.3 -2.91684e-11 11506.1)
(98767.7 -14115.2 -4.48696e-11 -7902.58 -2.82411e-11 11544.1)
(98540.2 -12811.9 -4.39584e-11 -7284.56 -2.73776e-11 11579.2)
(98448.6 -11572.4 -4.30869e-11 -6700.84 -2.65558e-11 11624.2)
(98415.9 -10408.1 -4.22718e-11 -6188.69 -2.57831e-11 11668.9)
(98458.8 -9308.3 -4.15037e-11 -5740.52 -2.50523e-11 11715.4)
(98549.7 -8268.87 -4.07829e-11 -5364.99 -2.43603e-11 11760.6)
(98686.5 -7281.15 -4.01028e-11 -5057.78 -2.37018e-11 11804.5)
(98856.8 -6335.93 -3.94588e-11 -4815.88 -2.30708e-11 11846.4)
(99053.5 -5422.39 -3.88412e-11 -4628.88 -2.24595e-11 11886.4)
(99269.5 -4525.54 -3.82397e-11 -4480.48 -2.18589e-11 11925.2)
(99486.6 -3630.97 -3.76414e-11 -4347.64 -2.12594e-11 11962.9)
(99704.3 -2703.66 -3.70193e-11 -4190.85 -2.06386e-11 12002.7)
(99867 -1739.73 -3.63653e-11 -3965.26 -1.99943e-11 12042.7)
(100017 -577.62 -3.55627e-11 -3579.95 -1.922e-11 12095.2)
(113990 -21994.9 -5.00443e-11 -13333.9 -3.33903e-11 12530.5)
(110340 -20841 -4.95302e-11 -13776.8 -3.2616e-11 12155.3)
(108793 -19231.6 -4.8421e-11 -12757.2 -3.15583e-11 12096.9)
(106641 -18000.2 -4.76659e-11 -12333.3 -3.07447e-11 11932)
(105327 -16597.6 -4.66979e-11 -11449.3 -2.98225e-11 11884)
(103975 -15326.9 -4.5836e-11 -10705.3 -2.89866e-11 11820.6)
(103004 -14051.5 -4.49444e-11 -9882.58 -2.81479e-11 11799.8)
(102144 -12842.2 -4.40993e-11 -9129.38 -2.7352e-11 11783.8)
(101490 -11676.4 -4.32786e-11 -8413.24 -2.6584e-11 11784.5)
(100957 -10566.9 -4.25006e-11 -7774.3 -2.58517e-11 11790.5)
(100555 -9509.03 -4.17612e-11 -7210.18 -2.51528e-11 11802.9)
(100253 -8502.07 -4.10618e-11 -6732.33 -2.44859e-11 11817.9)
(100042 -7538.94 -4.04005e-11 -6339.8 -2.38467e-11 11834.8)
(99906.6 -6612.03 -3.97707e-11 -6032.22 -2.32298e-11 11852.3)
(99836.4 -5709.97 -3.91656e-11 -5803.28 -2.26278e-11 11869.8)
(99820.3 -4814.73 -3.85727e-11 -5642.3 -2.20293e-11 11887.3)
(99843.1 -3908.81 -3.79798e-11 -5532.71 -2.14222e-11 11904.6)
(99896.6 -2947.68 -3.73531e-11 -5448.61 -2.07776e-11 11923.4)
(99947.1 -1924.29 -3.66872e-11 -5360.05 -2.00912e-11 11942.7)
(100008 -647.779 -3.58492e-11 -5205.97 -1.92356e-11 11969.9)
(123743 -18863.8 -4.78352e-11 -14650 -3.12318e-11 13388.9)
(118658 -18469 -4.79285e-11 -15522.9 -3.0964e-11 12837.7)
(116254 -17222.5 -4.70956e-11 -14567.3 -3.01513e-11 12689.4)
(113126 -16366.1 -4.66267e-11 -14185.8 -2.95919e-11 12425)
(111006 -15276.2 -4.58971e-11 -13337.8 -2.88815e-11 12294.5)
(108912 -14254 -4.52205e-11 -12560.8 -2.82153e-11 12160.7)
(107262 -13202.9 -4.44936e-11 -11697.2 -2.75301e-11 12076.3)
(105799 -12173.4 -4.37769e-11 -10865.9 -2.68581e-11 12007)
(104593 -11161.9 -4.30653e-11 -10059.4 -2.61975e-11 11960.4)
(103568 -10178.4 -4.23724e-11 -9316.54 -2.55534e-11 11926.2)
(102722 -9226.11 -4.17027e-11 -8647.12 -2.49286e-11 11903.3)
(102024 -8306.29 -4.10613e-11 -8067.97 -2.43234e-11 11887.4)
(101460 -7417.19 -4.04478e-11 -7586.14 -2.37365e-11 11876.7)
(101010 -6551.89 -3.98605e-11 -7206.88 -2.31636e-11 11869.1)
(100663 -5701.69 -3.92925e-11 -6931.54 -2.25981e-11 11863.2)
(100403 -4847.34 -3.87349e-11 -6757.49 -2.20279e-11 11857.9)
(100220 -3970.81 -3.81728e-11 -6678.38 -2.14406e-11 11853)
(100098 -3021.18 -3.75753e-11 -6685.55 -2.08025e-11 11847.9)
(100032 -1992.31 -3.69351e-11 -6763.44 -2.01094e-11 11843.4)
(99995.4 -676.912 -3.61187e-11 -6890.71 -1.92225e-11 11840)
(132763 -14408.8 -4.46568e-11 -14903.4 -2.82065e-11 14268)
(126396 -14912.1 -4.54496e-11 -16271.9 -2.85362e-11 13549.4)
(123199 -14286.2 -4.51188e-11 -15812.2 -2.81335e-11 13282.6)
(119287 -13878.8 -4.49841e-11 -15536.6 -2.78758e-11 12931.5)
(116395 -13232.4 -4.45895e-11 -14821.2 -2.74634e-11 12713.6)
(113663 -12520 -4.41346e-11 -14030.1 -2.70076e-11 12517.3)
(111388 -11743.8 -4.36053e-11 -13142.8 -2.65095e-11 12372.7)
(109380 -10932.9 -4.30424e-11 -12253.5 -2.59873e-11 12254)
(107663 -10110.3 -4.24624e-11 -11381.9 -2.5456e-11 12162)
(106178 -9287.85 -4.1881e-11 -10566.6 -2.4923e-11 12087.9)
(104910 -8476.54 -4.13082e-11 -9824.76 -2.43955e-11 12029)
(103829 -7680.73 -4.07511e-11 -9176.42 -2.3876e-11 11980.7)
(102916 -6902.02 -4.02141e-11 -8633.9 -2.33656e-11 11940.3)
(102151 -6135.88 -3.9696e-11 -8208.67 -2.28613e-11 11905.2)
(101523 -5375.21 -3.91941e-11 -7907.94 -2.23574e-11 11873.6)
(101012 -4601.98 -3.86988e-11 -7739.95 -2.18421e-11 11843.2)
(100616 -3797.62 -3.81992e-11 -7707.78 -2.13031e-11 11813.8)
(100310 -2911.07 -3.76648e-11 -7822.57 -2.07058e-11 11782.3)
(100124 -1935.51 -3.70915e-11 -8084.32 -2.00452e-11 11751.9)
(99982.6 -662.346 -3.63521e-11 -8517.31 -1.91814e-11 11714.9)
(140265 -8694.24 -4.06235e-11 -14366.9 -2.43534e-11 15071.3)
(133803 -9795.54 -4.17622e-11 -15469.8 -2.50909e-11 14359.3)
(129712 -10054.9 -4.21736e-11 -15961.5 -2.52672e-11 13927.6)
(125360 -10160.2 -4.24378e-11 -16050 -2.53488e-11 13502.7)
(121703 -10110.4 -4.25194e-11 -15767.7 -2.53311e-11 13173.9)
(118369 -9881.07 -4.24324e-11 -15216.8 -2.5197e-11 12898)
(115463 -9526.4 -4.22194e-11 -14468.7 -2.49814e-11 12679)
(112898 -9067.35 -4.191e-11 -13621.7 -2.46963e-11 12501)
(110666 -8536.01 -4.15334e-11 -12730.6 -2.43627e-11 12358.9)
(108721 -7956.42 -4.11172e-11 -11853.1 -2.39955e-11 12243.7)
(107037 -7347.44 -4.06789e-11 -11026.3 -2.36072e-11 12149.8)
(105582 -6723.75 -4.02329e-11 -10283.7 -2.32063e-11 12071.6)
(104334 -6092.71 -3.97903e-11 -9649.44 -2.2798e-11 12005)
(103266 -5456.86 -3.93561e-11 -9145.26 -2.23832e-11 11945.9)
(102366 -4813.13 -3.89315e-11 -8788.99 -2.19598e-11 11891.6)
(101612 -4147.22 -3.85117e-11 -8599.71 -2.1518e-11 11838.6)
(101007 -3444.01 -3.80894e-11 -8593.07 -2.10471e-11 11786.4)
(100516 -2655.95 -3.76396e-11 -8801.31 -2.05147e-11 11729.4)
(100209 -1776.88 -3.71586e-11 -9240.88 -1.99159e-11 11673.1)
(99964.4 -611.296 -3.65377e-11 -9982.56 -1.91186e-11 11601.9)
(144504 -3988.45 -3.72145e-11 -12778.2 -2.12085e-11 15634.3)
(138555 -4576.33 -3.80119e-11 -13927.2 -2.15984e-11 14971.8)
(133880 -5661.6 -3.90662e-11 -15047.2 -2.23195e-11 14430.1)
(129391 -6176.37 -3.96561e-11 -15530.3 -2.2669e-11 13958.8)
(125419 -6539.06 -4.0057e-11 -15542.9 -2.29238e-11 13574.3)
(121781 -6702.77 -4.02706e-11 -15248.3 -2.30498e-11 13246.7)
(118548 -6709.32 -4.03298e-11 -14693.8 -2.30743e-11 12978.9)
(115648 -6586.1 -4.02698e-11 -13992 -2.30133e-11 12755.3)
(113085 -6358.65 -4.01163e-11 -13200.8 -2.28831e-11 12571.4)
(110816 -6052.22 -3.98971e-11 -12387.7 -2.26992e-11 12418.2)
(108824 -5687.26 -3.96309e-11 -11596.5 -2.24748e-11 12290.2)
(107078 -5280.73 -3.93383e-11 -10869.7 -2.22204e-11 12181.2)
(105558 -4844.54 -3.90314e-11 -10239.6 -2.19437e-11 12086.8)
(104240 -4384.42 -3.87204e-11 -9736.73 -2.1648e-11 12002.2)
(103112 -3901.46 -3.8409e-11 -9387.16 -2.13334e-11 11924.4)
(102150 -3387.35 -3.8098e-11 -9221.87 -2.09934e-11 11848.6)
(101367 -2831.15 -3.77843e-11 -9267.8 -2.06209e-11 11774.2)
(100720 -2196.11 -3.74533e-11 -9573.99 -2.01898e-11 11693.5)
(100305 -1477.8 -3.71029e-11 -10173.7 -1.96966e-11 11613.4)
(99960.8 -510.133 -3.66514e-11 -11180.4 -1.90274e-11 11511)
(142304 630.331 -3.41056e-11 -11001.4 -1.81439e-11 15593.6)
(137635 -45.3409 -3.50903e-11 -13404.3 -1.85647e-11 14957.6)
(133341 -1369.82 -3.6287e-11 -14565 -1.94451e-11 14447.4)
(129264 -2238.87 -3.711e-11 -15218.8 -2.00282e-11 14000.1)
(125588 -2923.63 -3.77205e-11 -15348.5 -2.04963e-11 13632.6)
(122171 -3409.4 -3.81469e-11 -15162.2 -2.08365e-11 13315.5)
(119085 -3723.85 -3.84097e-11 -14706.5 -2.10655e-11 13051.9)
(116270 -3894.91 -3.85465e-11 -14091.7 -2.12001e-11 12827.5)
(113740 -3944.62 -3.85788e-11 -13374.8 -2.12548e-11 12639.2)
(111464 -3897.71 -3.85338e-11 -12622.7 -2.12445e-11 12478.6)
(109433 -3774.37 -3.84311e-11 -11880.7 -2.11815e-11 12341.4)
(107627 -3590.88 -3.82887e-11 -11194 -2.10767e-11 12221.9)
(106032 -3360.76 -3.81214e-11 -10597.5 -2.09381e-11 12116.2)
(104630 -3092.15 -3.79396e-11 -10126 -2.07704e-11 12019.7)
(103414 -2788.12 -3.77507e-11 -9810 -2.05756e-11 11929.5)
(102365 -2446.14 -3.75601e-11 -9686.5 -2.03514e-11 11840.9)
(101503 -2058.86 -3.73645e-11 -9788.71 -2.00912e-11 11753.3)
(100783 -1602.89 -3.71627e-11 -10176.8 -1.97792e-11 11658.2)
(100325 -1079.16 -3.6956e-11 -10896.4 -1.94146e-11 11563.3)
(99942.7 -371.684 -3.66982e-11 -12077.3 -1.8917e-11 11442)
(140641 5261.68 -3.09181e-11 -8904.31 -1.50755e-11 15628.8)
(136342 4199.26 -3.21911e-11 -11694.5 -1.5748e-11 14995.9)
(132707 2637.84 -3.35519e-11 -13133.5 -1.67801e-11 14525.9)
(128953 1483.07 -3.45877e-11 -14087.8 -1.75486e-11 14084.4)
(125572 526.762 -3.53959e-11 -14472.3 -1.81939e-11 13723.7)
(122335 -234.438 -3.60244e-11 -14514.9 -1.8714e-11 13404.4)
(119381 -816.297 -3.64795e-11 -14251.6 -1.91184e-11 13136.9)
(116642 -1248.48 -3.68039e-11 -13799 -1.94258e-11 12905.5)
(114152 -1548.9 -3.70132e-11 -13213.7 -1.96462e-11 12709)
(111885 -1740.53 -3.71352e-11 -12566.9 -1.97938e-11 12539.5)
(109840 -1841.56 -3.71881e-11 -11908 -1.98803e-11 12392.9)
(108002 -1869.09 -3.71911e-11 -11286.2 -1.99161e-11 12263.8)
(106362 -1836.22 -3.71586e-11 -10741.1 -1.99092e-11 12148.4)
(104908 -1753.23 -3.71044e-11 -10312.4 -1.98662e-11 12042.2)
(103636 -1626.68 -3.70366e-11 -10036.6 -1.97899e-11 11942.2)
(102530 -1459.09 -3.69641e-11 -9955.58 -1.96818e-11 11843.6)
(101614 -1246.74 -3.68911e-11 -10112.2 -1.95385e-11 11745.5)
(100846 -983.878 -3.68245e-11 -10565.7 -1.93555e-11 11639.2)
(100360 -667.959 -3.67632e-11 -11368.1 -1.91288e-11 11533.8)
(99939.2 -230.563 -3.66976e-11 -12680.7 -1.88105e-11 11396.7)
(137722 8849.45 -2.84977e-11 -7144.07 -1.27059e-11 15510.1)
(133999 7764.18 -2.98076e-11 -10249.2 -1.3386e-11 14908.2)
(130979 6130.46 -3.12143e-11 -11861.9 -1.44616e-11 14483.4)
(127646 4840.99 -3.23475e-11 -13014.8 -1.53157e-11 14066.2)
(124640 3706.94 -3.3279e-11 -13574.7 -1.60758e-11 13726.7)
(121683 2748.89 -3.40446e-11 -13780.2 -1.67243e-11 13420.3)
(118954 1957.22 -3.46464e-11 -13663.6 -1.72666e-11 13161.5)
(116382 1310.68 -3.51188e-11 -13342.2 -1.77146e-11 12934.6)
(114017 796.443 -3.5476e-11 -12871.2 -1.80762e-11 12739.9)
(111837 395.262 -3.57422e-11 -12323.2 -1.83629e-11 12569.5)
(109851 91.905 -3.59336e-11 -11747.9 -1.85836e-11 12420.7)
(108048 -129.399 -3.60692e-11 -11196.5 -1.87482e-11 12288.1)
(106425 -282.013 -3.61627e-11 -10710.4 -1.88647e-11 12168.4)
(104974 -377.564 -3.62293e-11 -10331.9 -1.89407e-11 12057.4)
(103696 -424.07 -3.62781e-11 -10099.4 -1.89798e-11 11952.2)
(102579 -431.955 -3.63244e-11 -10060.6 -1.89891e-11 11848)
(101647 -395.605 -3.63702e-11 -10255.8 -1.89637e-11 11744.1)
(100871 -336.136 -3.64391e-11 -10752.6 -1.89163e-11 11632.2)
(100376 -225.752 -3.65197e-11 -11626.8 -1.88263e-11 11518.9)
(99936.9 -74.073 -3.66471e-11 -13007.6 -1.86991e-11 11372.8)
(134052 11829.7 -2.64985e-11 -5401.73 -1.07464e-11 15313.4)
(130914 10730 -2.78112e-11 -8633.37 -1.14321e-11 14757.9)
(128506 9106.83 -2.9203e-11 -10361.7 -1.24966e-11 14383)
(125633 7758.3 -3.03801e-11 -11691.5 -1.33858e-11 13996)
(123043 6522.68 -3.13844e-11 -12420.3 -1.42096e-11 13682.8)
(120414 5435.41 -3.22432e-11 -12795.9 -1.49409e-11 13393.9)
(117962 4492.46 -3.29523e-11 -12835.1 -1.55808e-11 13148.7)