/*--------------------------------*- C++ -*----------------------------------*\
  =========                 |
  \\      /  F ield         | OpenFOAM: The Open Source CFD Toolbox
   \\    /   O peration     | Website:  https://openfoam.org
    \\  /    A nd           | Version:  9
     \\/     M anipulation  |
\*---------------------------------------------------------------------------*/
FoamFile
{
    format      ascii;
    class       volVectorField;
    location    "5";
    object      D;
}
// * * * * * * * * * * * * * * * * * * * * * * * * * * * * * * * * * * * * * //

dimensions      [0 1 0 0 0 0 0];

internalField   nonuniform List<vector> 
1000
(
(3.37762e-06 1.13095e-06 0)
(3.15135e-06 1.25061e-06 0)
(2.98673e-06 1.35092e-06 0)
(2.8678e-06 1.42925e-06 0)
(2.78299e-06 1.49669e-06 0)
(2.72327e-06 1.55465e-06 0)
(2.6829e-06 1.6068e-06 0)
(2.65736e-06 1.65426e-06 0)
(2.64304e-06 1.69849e-06 0)
(2.63812e-06 1.74038e-06 0)
(3.04361e-06 1.0188e-06 0)
(2.80853e-06 1.10605e-06 0)
(2.63864e-06 1.18223e-06 0)
(2.51653e-06 1.24102e-06 0)
(2.42961e-06 1.29251e-06 0)
(2.36815e-06 1.33675e-06 0)
(2.3261e-06 1.3768e-06 0)
(2.29867e-06 1.4134e-06 0)
(2.28215e-06 1.44732e-06 0)
(2.27409e-06 1.48038e-06 0)
(2.70246e-06 9.06519e-07 0)
(2.46514e-06 9.5916e-07 0)
(2.29476e-06 1.01017e-06 0)
(2.17295e-06 1.04919e-06 0)
(2.08651e-06 1.08502e-06 0)
(2.02538e-06 1.11613e-06 0)
(1.98328e-06 1.14491e-06 0)
(1.95529e-06 1.17154e-06 0)
(1.93772e-06 1.19617e-06 0)
(1.92797e-06 1.22081e-06 0)
(2.35581e-06 7.95827e-07 0)
(2.12332e-06 8.13079e-07 0)
(1.95743e-06 8.38831e-07 0)
(1.83964e-06 8.58525e-07 0)
(1.75654e-06 8.79472e-07 0)
(1.69796e-06 8.98426e-07 0)
(1.65761e-06 9.17024e-07 0)
(1.63053e-06 9.34759e-07 0)
(1.61323e-06 9.5131e-07 0)
(1.60284e-06 9.68459e-07 0)
(2.00464e-06 6.88353e-07 0)
(1.78411e-06 6.70895e-07 0)
(1.62793e-06 6.72406e-07 0)
(1.51817e-06 6.74041e-07 0)
(1.44147e-06 6.8158e-07 0)
(1.38782e-06 6.89902e-07 0)
(1.35102e-06 6.9986e-07 0)
(1.32623e-06 7.10172e-07 0)
(1.31029e-06 7.20082e-07 0)
(1.30026e-06 7.3093e-07 0)
(1.65052e-06 5.84982e-07 0)
(1.44848e-06 5.34914e-07 0)
(1.30735e-06 5.14516e-07 0)
(1.20982e-06 5.00384e-07 0)
(1.14268e-06 4.96797e-07 0)
(1.09627e-06 4.96628e-07 0)
(1.06474e-06 4.99941e-07 0)
(1.04356e-06 5.04617e-07 0)
(1.02995e-06 5.09588e-07 0)
(1.02104e-06 5.15628e-07 0)
(1.29209e-06 4.85764e-07 0)
(1.11561e-06 4.06742e-07 0)
(9.95307e-07 3.68442e-07 0)
(9.14502e-07 3.42268e-07 0)
(8.60163e-07 3.30837e-07 0)
(8.23261e-07 3.24995e-07 0)
(7.98553e-07 3.24013e-07 0)
(7.82033e-07 3.2507e-07 0)
(7.71425e-07 3.26919e-07 0)
(7.64176e-07 3.29756e-07 0)
(9.31937e-07 3.87966e-07 0)
(7.86861e-07 2.86047e-07 0)
(6.93561e-07 2.36789e-07 0)
(6.33777e-07 2.04319e-07 0)
(5.94943e-07 1.89572e-07 0)
(5.69123e-07 1.81521e-07 0)
(5.52145e-07 1.7889e-07 0)
(5.40797e-07 1.78456e-07 0)
(5.33497e-07 1.78972e-07 0)
(5.28247e-07 1.8022e-07 0)
(5.6209e-07 2.82124e-07 0)
(4.59925e-07 1.69603e-07 0)
(4.01132e-07 1.21139e-07 0)
(3.66108e-07 9.14927e-08 0)
(3.44846e-07 7.91668e-08 0)
(3.30924e-07 7.26548e-08 0)
(3.21962e-07 7.0748e-08 0)
(3.15855e-07 7.04475e-08 0)
(3.11852e-07 7.08599e-08 0)
(3.08715e-07 7.16265e-08 0)
(1.93472e-07 1.47387e-07 0)
(1.46339e-07 6.22622e-08 0)
(1.28298e-07 3.24076e-08 0)
(1.18685e-07 1.76868e-08 0)
(1.13077e-07 1.27577e-08 0)
(1.09166e-07 1.06654e-08 0)
(1.06614e-07 1.05483e-08 0)
(1.04749e-07 1.09351e-08 0)
(1.03477e-07 1.14831e-08 0)
(1.0236e-07 1.20553e-08 0)
(5.95665e-06 1.83878e-06 0)
(5.94728e-06 2.06772e-06 0)
(5.94087e-06 2.28107e-06 0)
(5.94144e-06 2.4763e-06 0)
(5.95068e-06 2.65537e-06 0)
(5.96929e-06 2.82051e-06 0)
(5.99736e-06 2.97431e-06 0)
(6.03433e-06 3.11904e-06 0)
(6.07988e-06 3.25649e-06 0)
(6.13287e-06 3.38864e-06 0)
(5.76991e-06 1.82344e-06 0)
(5.74391e-06 2.05173e-06 0)
(5.72626e-06 2.26247e-06 0)
(5.71863e-06 2.45378e-06 0)
(5.72193e-06 2.62805e-06 0)
(5.73561e-06 2.78767e-06 0)
(5.75923e-06 2.93548e-06 0)
(5.79171e-06 3.07387e-06 0)
(5.8326e-06 3.20469e-06 0)
(5.88032e-06 3.33022e-06 0)
(5.5719e-06 1.79253e-06 0)
(5.52617e-06 2.02029e-06 0)
(5.49319e-06 2.22676e-06 0)
(5.47347e-06 2.41188e-06 0)
(5.46723e-06 2.57936e-06 0)
(5.47289e-06 2.73192e-06 0)
(5.4895e-06 2.8726e-06 0)
(5.51539e-06 3.00384e-06 0)
(5.54997e-06 3.12754e-06 0)
(5.59109e-06 3.24604e-06 0)
(5.35789e-06 1.74767e-06 0)
(5.28998e-06 1.97442e-06 0)
(5.23918e-06 2.17565e-06 0)
(5.20513e-06 2.35321e-06 0)
(5.18716e-06 2.51251e-06 0)
(5.18285e-06 2.6567e-06 0)
(5.19076e-06 2.7891e-06 0)
(5.20865e-06 2.91216e-06 0)
(5.23581e-06 3.02787e-06 0)
(5.26945e-06 3.13853e-06 0)
(5.1254e-06 1.68931e-06 0)
(5.03317e-06 1.91326e-06 0)
(4.96328e-06 2.10757e-06 0)
(4.9141e-06 2.27584e-06 0)
(4.88372e-06 2.42537e-06 0)
(4.86886e-06 2.55976e-06 0)
(4.86753e-06 2.68265e-06 0)
(4.87701e-06 2.79646e-06 0)
(4.89642e-06 2.90331e-06 0)
(4.92236e-06 3.00532e-06 0)
(4.87407e-06 1.61876e-06 0)
(4.75612e-06 1.83685e-06 0)
(4.66676e-06 2.02224e-06 0)
(4.60245e-06 2.17963e-06 0)
(4.55976e-06 2.31808e-06 0)
(4.53447e-06 2.44151e-06 0)
(4.52404e-06 2.55387e-06 0)
(4.52525e-06 2.65752e-06 0)
(4.53704e-06 2.75472e-06 0)
(4.55552e-06 2.84732e-06 0)
(4.60456e-06 1.53709e-06 0)
(4.46051e-06 1.74517e-06 0)
(4.35207e-06 1.91911e-06 0)
(4.27331e-06 2.06389e-06 0)
(4.21905e-06 2.19001e-06 0)
(4.18407e-06 2.30146e-06 0)
(4.1652e-06 2.40246e-06 0)
(4.15879e-06 2.49524e-06 0)
(4.16351e-06 2.58215e-06 0)
(4.17517e-06 2.66475e-06 0)
(4.31826e-06 1.4458e-06 0)
(4.14899e-06 1.63908e-06 0)
(4.02267e-06 1.79876e-06 0)
(3.93071e-06 1.92922e-06 0)
(3.86607e-06 2.0419e-06 0)
(3.82251e-06 2.14059e-06 0)
(3.79618e-06 2.22964e-06 0)
(3.78309e-06 2.31106e-06 0)
(3.78156e-06 2.38729e-06 0)
(3.7873e-06 2.45939e-06 0)
(4.01698e-06 1.34644e-06 0)
(3.82474e-06 1.51986e-06 0)
(3.68258e-06 1.66239e-06 0)
(3.57918e-06 1.77686e-06 0)
(3.50577e-06 1.87513e-06 0)
(3.45503e-06 1.9605e-06 0)
(3.4225e-06 2.03722e-06 0)
(3.4039e-06 2.10708e-06 0)
(3.39705e-06 2.17233e-06 0)
(3.39801e-06 2.23382e-06 0)
(3.70275e-06 1.24084e-06 0)
(3.49109e-06 1.38953e-06 0)
(3.33591e-06 1.51214e-06 0)
(3.22335e-06 1.60914e-06 0)
(3.14306e-06 1.69226e-06 0)
(3.08683e-06 1.76395e-06 0)
(3.04958e-06 1.8283e-06 0)
(3.02675e-06 1.88659e-06 0)
(3.01567e-06 1.94107e-06 0)
(3.01323e-06 1.99128e-06 0)
(6.19615e-06 3.51568e-06 0)
(6.26874e-06 3.64173e-06 0)
(6.34691e-06 3.76572e-06 0)
(6.42999e-06 3.88826e-06 0)
(6.51759e-06 4.00998e-06 0)
(6.60919e-06 4.13125e-06 0)
(6.70441e-06 4.25248e-06 0)
(6.80284e-06 4.37396e-06 0)
(6.90415e-06 4.49596e-06 0)
(7.008e-06 4.6187e-06 0)
(7.1141e-06 4.74236e-06 0)
(7.22216e-06 4.86709e-06 0)
(7.33192e-06 4.99303e-06 0)
(7.44311e-06 5.12028e-06 0)
(7.55549e-06 5.2489e-06 0)
(7.66879e-06 5.37894e-06 0)
(7.78279e-06 5.51036e-06 0)
(7.89723e-06 5.64307e-06 0)
(8.01191e-06 5.77682e-06 0)
(8.12656e-06 5.91123e-06 0)
(5.94631e-06 3.45247e-06 0)
(6.02785e-06 3.57644e-06 0)
(6.11374e-06 3.69847e-06 0)
(6.20329e-06 3.81928e-06 0)
(6.29638e-06 3.93953e-06 0)
(6.39257e-06 4.05955e-06 0)
(6.49166e-06 4.17976e-06 0)
(6.59332e-06 4.30043e-06 0)
(6.69733e-06 4.42183e-06 0)
(6.80344e-06 4.54415e-06 0)
(6.91145e-06 4.66758e-06 0)
(7.02112e-06 4.79226e-06 0)
(7.13228e-06 4.91832e-06 0)
(7.24472e-06 5.04586e-06 0)
(7.35826e-06 5.17494e-06 0)
(7.47273e-06 5.30559e-06 0)
(7.58794e-06 5.43779e-06 0)
(7.70371e-06 5.57144e-06 0)
(7.81988e-06 5.70632e-06 0)
(7.93618e-06 5.84208e-06 0)
(5.66075e-06 3.3647e-06 0)
(5.75381e-06 3.48892e-06 0)
(5.85002e-06 3.61127e-06 0)
(5.94847e-06 3.73235e-06 0)
(6.0494e-06 3.85296e-06 0)
(6.15239e-06 3.97335e-06 0)
(6.25745e-06 4.09403e-06 0)
(6.36433e-06 4.21524e-06 0)
(6.47295e-06 4.33726e-06 0)
(6.58313e-06 4.46028e-06 0)
(6.69475e-06 4.58451e-06 0)
(6.80768e-06 4.71009e-06 0)
(6.92181e-06 4.83715e-06 0)
(7.03701e-06 4.96578e-06 0)
(7.15316e-06 5.09609e-06 0)
(7.27015e-06 5.22809e-06 0)
(7.38786e-06 5.36182e-06 0)
(7.50613e-06 5.49722e-06 0)
(7.62484e-06 5.63419e-06 0)
(7.74365e-06 5.77251e-06 0)
(5.34366e-06 3.25429e-06 0)
(5.45042e-06 3.38058e-06 0)
(5.55915e-06 3.50507e-06 0)
(5.66858e-06 3.62804e-06 0)
(5.77939e-06 3.75053e-06 0)
(5.89114e-06 3.8727e-06 0)
(6.00404e-06 3.99514e-06 0)
(6.11791e-06 4.11806e-06 0)
(6.2328e-06 4.2418e-06 0)
(6.34864e-06 4.36656e-06 0)
(6.4654e-06 4.49255e-06 0)
(6.58302e-06 4.61992e-06 0)
(6.70147e-06 4.74883e-06 0)
(6.8207e-06 4.87939e-06 0)
(6.94066e-06 5.01171e-06 0)
(7.06127e-06 5.14586e-06 0)
(7.1825e-06 5.2819e-06 0)
(7.30419e-06 5.41987e-06 0)
(7.42627e-06 5.55979e-06 0)
(7.54839e-06 5.7016e-06 0)
(5.00199e-06 3.11919e-06 0)
(5.12407e-06 3.24957e-06 0)
(5.24698e-06 3.37827e-06 0)
(5.36895e-06 3.50497e-06 0)
(5.49119e-06 3.63107e-06 0)
(5.61315e-06 3.75659e-06 0)
(5.7353e-06 3.88222e-06 0)
(5.85751e-06 4.0082e-06 0)
(5.97998e-06 4.13488e-06 0)
(6.10269e-06 4.2625e-06 0)
(6.22574e-06 4.39129e-06 0)
(6.34914e-06 4.52143e-06 0)
(6.47294e-06 4.6531e-06 0)
(6.59715e-06 4.78644e-06 0)
(6.7218e-06 4.92158e-06 0)
(6.84687e-06 5.05865e-06 0)
(6.97236e-06 5.19776e-06 0)
(7.09819e-06 5.33905e-06 0)
(7.2243e-06 5.48269e-06 0)
(7.35039e-06 5.62873e-06 0)
(4.64134e-06 2.96019e-06 0)
(4.77989e-06 3.09657e-06 0)
(4.91823e-06 3.2314e-06 0)
(5.05389e-06 3.36357e-06 0)
(5.18873e-06 3.49488e-06 0)
(5.32202e-06 3.62525e-06 0)
(5.45452e-06 3.75547e-06 0)
(5.58612e-06 3.88578e-06 0)
(5.71717e-06 4.01659e-06 0)
(5.84772e-06 4.14818e-06 0)
(5.97796e-06 4.2808e-06 0)
(6.10799e-06 4.41468e-06 0)
(6.23793e-06 4.55e-06 0)
(6.36786e-06 4.68695e-06 0)
(6.49788e-06 4.8257e-06 0)
(6.62803e-06 4.96643e-06 0)
(6.75837e-06 5.10932e-06 0)
(6.88886e-06 5.25457e-06 0)
(7.01952e-06 5.40251e-06 0)
(7.15014e-06 5.55331e-06 0)
(4.26772e-06 2.77762e-06 0)
(4.42332e-06 2.92192e-06 0)
(4.57786e-06 3.06475e-06 0)
(4.72795e-06 3.20414e-06 0)
(4.87614e-06 3.34224e-06 0)
(5.02155e-06 3.47894e-06 0)
(5.16516e-06 3.61509e-06 0)
(5.30691e-06 3.751e-06 0)
(5.44725e-06 3.88712e-06 0)
(5.58633e-06 4.02377e-06 0)
(5.72441e-06 4.16125e-06 0)
(5.86168e-06 4.29981e-06 0)
(5.99833e-06 4.43968e-06 0)
(6.13452e-06 4.58108e-06 0)
(6.27039e-06 4.72422e-06 0)
(6.40607e-06 4.86931e-06 0)
(6.54165e-06 5.01661e-06 0)
(6.67721e-06 5.16639e-06 0)
(6.81279e-06 5.3191e-06 0)
(6.94834e-06 5.47499e-06 0)
(3.88679e-06 2.57319e-06 0)
(4.05949e-06 2.72717e-06 0)
(4.2304e-06 2.87949e-06 0)
(4.39528e-06 3.02772e-06 0)
(4.55715e-06 3.17403e-06 0)
(4.71516e-06 3.31848e-06 0)
(4.87033e-06 3.46186e-06 0)
(5.02274e-06 3.6046e-06 0)
(5.17287e-06 3.74717e-06 0)
(5.32097e-06 3.88994e-06 0)
(5.46738e-06 4.03325e-06 0)
(5.61233e-06 4.17741e-06 0)
(5.75609e-06 4.32267e-06 0)
(5.8989e-06 4.46929e-06 0)
(6.04095e-06 4.61752e-06 0)
(6.18244e-06 4.76762e-06 0)
(6.32354e-06 4.91989e-06 0)
(6.46441e-06 5.07465e-06 0)
(6.60515e-06 5.23247e-06 0)
(6.74589e-06 5.39363e-06 0)
(3.50442e-06 2.34883e-06 0)
(3.69375e-06 2.5144e-06 0)
(3.88055e-06 2.67737e-06 0)
(4.06028e-06 2.83591e-06 0)
(4.23578e-06 2.99158e-06 0)
(4.4065e-06 3.14491e-06 0)
(4.57337e-06 3.29658e-06 0)
(4.73661e-06 3.44718e-06 0)
(4.89674e-06 3.5972e-06 0)
(5.05409e-06 3.74706e-06 0)
(5.20904e-06 3.89715e-06 0)
(5.3619e-06 4.04779e-06 0)
(5.513e-06 4.19929e-06 0)
(5.66263e-06 4.35192e-06 0)
(5.81105e-06 4.50597e-06 0)
(5.95852e-06 4.6617e-06 0)
(6.10528e-06 4.81947e-06 0)
(6.25159e-06 4.97963e-06 0)
(6.39761e-06 5.14279e-06 0)
(6.54369e-06 5.30928e-06 0)
(3.12508e-06 2.10796e-06 0)
(3.33016e-06 2.28632e-06 0)
(3.53119e-06 2.4603e-06 0)
(3.72538e-06 2.63025e-06 0)
(3.91422e-06 2.7965e-06 0)
(4.09771e-06 2.95989e-06 0)
(4.27643e-06 3.121e-06 0)
(4.45072e-06 3.28048e-06 0)
(4.62106e-06 3.43887e-06 0)
(4.78785e-06 3.59667e-06 0)
(4.95151e-06 3.75431e-06 0)
(5.11243e-06 3.91218e-06 0)
(5.27098e-06 4.07059e-06 0)
(5.4275e-06 4.22986e-06 0)
(5.58234e-06 4.39029e-06 0)
(5.73583e-06 4.55218e-06 0)
(5.88826e-06 4.71587e-06 0)
(6.03999e-06 4.88174e-06 0)
(6.19127e-06 5.0504e-06 0)
(6.34268e-06 5.22219e-06 0)
(2.83264e-06 1.92732e-06 0)
(3.04644e-06 2.11497e-06 0)
(3.25491e-06 2.29516e-06 0)
(3.45694e-06 2.47163e-06 0)
(3.65334e-06 2.64435e-06 0)
(3.84414e-06 2.81413e-06 0)
(4.02987e-06 2.98153e-06 0)
(4.21081e-06 3.14712e-06 0)
(4.3874e-06 3.31139e-06 0)
(4.56002e-06 3.47481e-06 0)
(4.72909e-06 3.63779e-06 0)
(4.895e-06 3.80069e-06 0)
(5.05813e-06 3.96384e-06 0)
(5.21885e-06 4.12753e-06 0)
(5.37754e-06 4.29204e-06 0)
(5.53456e-06 4.45765e-06 0)
(5.69026e-06 4.6247e-06 0)
(5.84508e-06 4.79351e-06 0)
(5.99929e-06 4.96461e-06 0)
(6.15369e-06 5.13831e-06 0)
(2.63767e-06 1.8193e-06 0)
(2.85144e-06 2.00686e-06 0)
(3.05994e-06 2.18848e-06 0)
(3.2626e-06 2.3669e-06 0)
(3.45996e-06 2.54206e-06 0)
(3.652e-06 2.71451e-06 0)
(3.83913e-06 2.88472e-06 0)
(4.02156e-06 3.05313e-06 0)
(4.19967e-06 3.22015e-06 0)
(4.37377e-06 3.38617e-06 0)
(4.54424e-06 3.55157e-06 0)
(4.71144e-06 3.71664e-06 0)
(4.87573e-06 3.88167e-06 0)
(5.03748e-06 4.04694e-06 0)
(5.19705e-06 4.21267e-06 0)
(5.35482e-06 4.37914e-06 0)
(5.51114e-06 4.54659e-06 0)
(5.66651e-06 4.71531e-06 0)
(5.82121e-06 4.88571e-06 0)
(5.97615e-06 5.05801e-06 0)
(2.46564e-06 1.7157e-06 0)
(2.67551e-06 1.90262e-06 0)
(2.88184e-06 2.08471e-06 0)
(3.08289e-06 2.26429e-06 0)
(3.27943e-06 2.44119e-06 0)
(3.47109e-06 2.61575e-06 0)
(3.65822e-06 2.78831e-06 0)
(3.8409e-06 2.95918e-06 0)
(4.01945e-06 3.1287e-06 0)
(4.19409e-06 3.29716e-06 0)
(4.36516e-06 3.46485e-06 0)
(4.53298e-06 3.63203e-06 0)
(4.69786e-06 3.79892e-06 0)
(4.86016e-06 3.96575e-06 0)
(5.02023e-06 4.13271e-06 0)
(5.17844e-06 4.3e-06 0)
(5.33515e-06 4.46781e-06 0)
(5.49087e-06 4.63637e-06 0)
(5.64591e-06 4.80591e-06 0)
(5.80123e-06 4.97659e-06 0)
(2.31152e-06 1.61606e-06 0)
(2.5163e-06 1.80137e-06 0)
(2.71889e-06 1.98321e-06 0)
(2.91692e-06 2.16345e-06 0)
(3.11123e-06 2.34165e-06 0)
(3.3012e-06 2.51797e-06 0)
(3.48712e-06 2.69259e-06 0)
(3.66897e-06 2.8657e-06 0)
(3.84697e-06 3.03752e-06 0)
(4.02129e-06 3.20825e-06 0)
(4.19221e-06 3.37811e-06 0)
(4.35998e-06 3.54729e-06 0)
(4.52491e-06 3.71596e-06 0)
(4.6873e-06 3.88429e-06 0)
(4.84748e-06 4.05242e-06 0)
(5.00582e-06 4.22049e-06 0)
(5.16268e-06 4.38861e-06 0)
(5.31853e-06 4.55693e-06 0)
(5.47374e-06 4.72555e-06 0)
(5.62927e-06 4.89447e-06 0)
(2.17356e-06 1.52138e-06 0)
(2.37214e-06 1.70454e-06 0)
(2.56973e-06 1.88554e-06 0)
(2.76352e-06 2.06581e-06 0)
(2.95442e-06 2.24474e-06 0)
(3.14159e-06 2.42232e-06 0)
(3.32529e-06 2.59857e-06 0)
(3.50535e-06 2.77354e-06 0)
(3.68195e-06 2.94735e-06 0)
(3.85519e-06 3.12011e-06 0)
(4.02528e-06 3.29194e-06 0)
(4.19242e-06 3.46296e-06 0)
(4.35688e-06 3.63328e-06 0)
(4.51893e-06 3.80301e-06 0)
(4.67887e-06 3.97223e-06 0)
(4.83704e-06 4.141e-06 0)
(4.9938e-06 4.30938e-06 0)
(5.14951e-06 4.47741e-06 0)
(5.30484e-06 4.64495e-06 0)
(5.46048e-06 4.81207e-06 0)
(2.04912e-06 1.4316e-06 0)
(2.24091e-06 1.61207e-06 0)
(2.43266e-06 1.79171e-06 0)
(2.62138e-06 1.97153e-06 0)
(2.80796e-06 2.15073e-06 0)
(2.99146e-06 2.32916e-06 0)
(3.17208e-06 2.50665e-06 0)
(3.34956e-06 2.68316e-06 0)
(3.52403e-06 2.85866e-06 0)
(3.69551e-06 3.03318e-06 0)
(3.86416e-06 3.20675e-06 0)
(4.03015e-06 3.37942e-06 0)
(4.19369e-06 3.55124e-06 0)
(4.35501e-06 3.72223e-06 0)
(4.51439e-06 3.89243e-06 0)
(4.67213e-06 4.06183e-06 0)
(4.82855e-06 4.23039e-06 0)
(4.98412e-06 4.39802e-06 0)
(5.13911e-06 4.56456e-06 0)
(5.29446e-06 4.72997e-06 0)
(1.93603e-06 1.34675e-06 0)
(2.12064e-06 1.52424e-06 0)
(2.30597e-06 1.70216e-06 0)
(2.489e-06 1.8811e-06 0)
(2.67059e-06 2.06016e-06 0)
(2.84975e-06 2.23901e-06 0)
(3.02661e-06 2.41737e-06 0)
(3.20087e-06 2.59505e-06 0)
(3.37259e-06 2.77193e-06 0)
(3.54174e-06 2.94792e-06 0)
(3.70845e-06 3.12298e-06 0)
(3.87282e-06 3.29708e-06 0)
(4.03503e-06 3.4702e-06 0)
(4.19528e-06 3.6423e-06 0)
(4.3538e-06 3.81335e-06 0)
(4.51087e-06 3.98327e-06 0)
(4.66676e-06 4.15195e-06 0)
(4.8219e-06 4.31923e-06 0)
(4.97652e-06 4.48479e-06 0)
(5.13149e-06 4.64849e-06 0)
(1.83213e-06 1.2666e-06 0)
(2.00938e-06 1.44093e-06 0)
(2.18796e-06 1.61686e-06 0)
(2.36489e-06 1.79461e-06 0)
(2.54101e-06 1.97318e-06 0)
(2.71531e-06 2.15212e-06 0)
(2.88789e-06 2.33101e-06 0)
(3.05841e-06 2.50953e-06 0)
(3.22689e-06 2.68747e-06 0)
(3.39325e-06 2.86465e-06 0)
(3.55758e-06 3.04095e-06 0)
(3.71995e-06 3.21624e-06 0)
(3.88049e-06 3.39045e-06 0)
(4.03936e-06 3.56349e-06 0)
(4.19677e-06 3.73525e-06 0)
(4.35295e-06 3.90559e-06 0)
(4.50812e-06 4.07433e-06 0)
(4.66268e-06 4.24124e-06 0)
(4.81681e-06 4.4059e-06 0)
(4.97126e-06 4.56808e-06 0)
(1.73552e-06 1.19089e-06 0)
(1.90535e-06 1.36202e-06 0)
(2.07697e-06 1.5358e-06 0)
(2.24754e-06 1.71215e-06 0)
(2.41786e-06 1.88996e-06 0)
(2.58694e-06 2.0687e-06 0)
(2.75484e-06 2.2478e-06 0)
(2.92122e-06 2.42687e-06 0)
(3.08606e-06 2.60558e-06 0)
(3.24927e-06 2.78366e-06 0)
(3.41088e-06 2.96092e-06 0)
(3.57092e-06 3.13717e-06 0)
(3.7295e-06 3.31227e-06 0)
(3.88676e-06 3.48605e-06 0)
(4.04283e-06 3.65837e-06 0)
(4.19793e-06 3.82903e-06 0)
(4.35224e-06 3.99779e-06 0)
(4.50608e-06 4.16436e-06 0)
(4.65959e-06 4.32822e-06 0)
(4.81339e-06 4.48907e-06 0)
(1.64444e-06 1.11933e-06 0)
(1.80686e-06 1.2873e-06 0)
(1.97142e-06 1.45887e-06 0)
(2.13547e-06 1.63366e-06 0)
(2.29976e-06 1.81052e-06 0)
(2.46336e-06 1.98882e-06 0)
(2.62631e-06 2.16788e-06 0)
(2.78826e-06 2.34722e-06 0)
(2.94917e-06 2.52642e-06 0)
(3.10893e-06 2.70515e-06 0)
(3.26754e-06 2.88312e-06 0)
(3.42502e-06 3.06009e-06 0)
(3.58143e-06 3.23584e-06 0)
(3.73686e-06 3.41019e-06 0)
(3.89143e-06 3.58292e-06 0)
(4.0453e-06 3.75379e-06 0)
(4.19862e-06 3.92252e-06 0)
(4.35162e-06 4.08878e-06 0)
(4.50442e-06 4.25197e-06 0)
(4.65747e-06 4.41177e-06 0)
(1.55725e-06 1.05161e-06 0)
(1.71231e-06 1.21655e-06 0)
(1.86976e-06 1.38591e-06 0)
(2.02721e-06 1.55908e-06 0)
(2.18534e-06 1.73486e-06 0)
(2.34328e-06 1.91253e-06 0)
(2.50108e-06 2.09133e-06 0)
(2.6584e-06 2.2707e-06 0)
(2.81518e-06 2.45014e-06 0)
(2.97129e-06 2.62925e-06 0)
(3.12672e-06 2.80768e-06 0)
(3.28145e-06 2.98513e-06 0)
(3.43551e-06 3.16134e-06 0)
(3.58897e-06 3.33606e-06 0)
(3.74191e-06 3.50904e-06 0)
(3.89444e-06 3.68002e-06 0)
(4.04667e-06 3.84868e-06 0)
(4.19876e-06 4.01466e-06 0)
(4.35076e-06 4.17735e-06 0)
(4.50299e-06 4.33638e-06 0)
(1.47246e-06 9.87481e-07 0)
(1.62018e-06 1.14958e-06 0)
(1.77052e-06 1.3168e-06 0)
(1.92131e-06 1.48831e-06 0)
(2.07319e-06 1.66292e-06 0)
(2.22538e-06 1.83981e-06 0)
(2.37792e-06 2.01817e-06 0)
(2.53049e-06 2.19736e-06 0)
(2.68301e-06 2.37681e-06 0)
(2.83535e-06 2.55607e-06 0)
(2.98747e-06 2.73472e-06 0)
(3.13933e-06 2.91242e-06 0)
(3.29095e-06 3.08886e-06 0)
(3.44234e-06 3.26377e-06 0)
(3.59356e-06 3.43686e-06 0)
(3.74468e-06 3.60784e-06 0)
(3.89575e-06 3.77638e-06 0)
(4.04688e-06 3.94213e-06 0)
(4.19805e-06 4.10447e-06 0)
(4.34941e-06 4.26306e-06 0)
(1.3886e-06 9.2672e-07 0)
(1.52899e-06 1.08619e-06 0)
(1.6722e-06 1.25135e-06 0)
(1.81631e-06 1.42124e-06 0)
(1.96191e-06 1.59462e-06 0)
(2.10831e-06 1.77062e-06 0)
(2.25555e-06 1.94837e-06 0)
(2.4033e-06 2.12718e-06 0)
(2.55152e-06 2.30643e-06 0)
(2.70004e-06 2.48561e-06 0)
(2.84881e-06 2.66426e-06 0)
(2.99777e-06 2.842e-06 0)
(3.14689e-06 3.01848e-06 0)
(3.29619e-06 3.19339e-06 0)
(3.44565e-06 3.36643e-06 0)
(3.59533e-06 3.53731e-06 0)
(3.74521e-06 3.70569e-06 0)
(3.89534e-06 3.87124e-06 0)
(4.04567e-06 4.03339e-06 0)
(4.19616e-06 4.19183e-06 0)
(1.30424e-06 8.69229e-07 0)
(1.43727e-06 1.02629e-06 0)
(1.57333e-06 1.1895e-06 0)
(1.71075e-06 1.35779e-06 0)
(1.85007e-06 1.52989e-06 0)
(1.99069e-06 1.70489e-06 0)
(2.13263e-06 1.88189e-06 0)
(2.2756e-06 2.06014e-06 0)
(2.41954e-06 2.23899e-06 0)
(2.56427e-06 2.41788e-06 0)
(2.70972e-06 2.59632e-06 0)
(2.8558e-06 2.77388e-06 0)
(3.00247e-06 2.9502e-06 0)
(3.14969e-06 3.12494e-06 0)
(3.29742e-06 3.29778e-06 0)
(3.44566e-06 3.46845e-06 0)
(3.59438e-06 3.63662e-06 0)
(3.74353e-06 3.80199e-06 0)
(3.89302e-06 3.96408e-06 0)
(4.04268e-06 4.12265e-06 0)
(1.21788e-06 8.14844e-07 0)
(1.34348e-06 9.69717e-07 0)
(1.47236e-06 1.13108e-06 0)
(1.6031e-06 1.29779e-06 0)
(1.73618e-06 1.46858e-06 0)
(1.87107e-06 1.64249e-06 0)
(2.00779e-06 1.81859e-06 0)
(2.14608e-06 1.99612e-06 0)
(2.28584e-06 2.17438e-06 0)
(2.4269e-06 2.35278e-06 0)
(2.56915e-06 2.5308e-06 0)
(2.71248e-06 2.708e-06 0)
(2.8568e-06 2.88397e-06 0)
(3.00203e-06 3.05837e-06 0)
(3.14812e-06 3.23088e-06 0)
(3.295e-06 3.40123e-06 0)
(3.4426e-06 3.56912e-06 0)
(3.59082e-06 3.73432e-06 0)
(3.73953e-06 3.89645e-06 0)
(3.88842e-06 4.05539e-06 0)
(1.12799e-06 7.63734e-07 0)
(1.24605e-06 9.16569e-07 0)
(1.36771e-06 1.07614e-06 0)
(1.49178e-06 1.24126e-06 0)
(1.61869e-06 1.41065e-06 0)
(1.74798e-06 1.58335e-06 0)
(1.87964e-06 1.75841e-06 0)
(2.01342e-06 1.93502e-06 0)
(2.1492e-06 2.11249e-06 0)
(2.28679e-06 2.2902e-06 0)
(2.42605e-06 2.4676e-06 0)
(2.56682e-06 2.64424e-06 0)
(2.709e-06 2.81969e-06 0)
(2.85244e-06 2.99359e-06 0)
(2.99704e-06 3.16565e-06 0)
(3.14269e-06 3.33557e-06 0)
(3.28929e-06 3.50312e-06 0)
(3.43668e-06 3.66812e-06 0)
(3.58469e-06 3.83035e-06 0)
(3.73293e-06 3.98979e-06 0)
(1.03279e-06 7.15633e-07 0)
(1.14318e-06 8.66558e-07 0)
(1.25758e-06 1.02437e-06 0)
(1.37505e-06 1.18787e-06 0)
(1.49592e-06 1.35579e-06 0)
(1.6198e-06 1.52716e-06 0)
(1.74664e-06 1.70101e-06 0)
(1.87618e-06 1.87654e-06 0)
(2.00828e-06 2.05304e-06 0)
(2.14272e-06 2.22987e-06 0)
(2.2793e-06 2.40647e-06 0)
(2.41785e-06 2.58238e-06 0)
(2.55819e-06 2.75716e-06 0)
(2.70013e-06 2.93044e-06 0)
(2.84352e-06 3.10191e-06 0)
(2.98819e-06 3.27132e-06 0)
(3.13398e-06 3.43846e-06 0)
(3.28069e-06 3.60322e-06 0)
(3.42812e-06 3.76554e-06 0)
(3.57587e-06 3.92555e-06 0)
(9.3051e-07 6.71271e-07 0)
(1.0331e-06 8.20246e-07 0)
(1.14022e-06 9.76178e-07 0)
(1.2512e-06 1.1379e-06 0)
(1.36624e-06 1.30416e-06 0)
(1.48498e-06 1.47397e-06 0)
(1.60733e-06 1.64638e-06 0)
(1.73302e-06 1.82059e-06 0)
(1.86185e-06 1.99587e-06 0)
(1.99355e-06 2.17159e-06 0)
(2.1279e-06 2.34719e-06 0)
(2.26466e-06 2.52218e-06 0)
(2.40358e-06 2.69612e-06 0)
(2.54444e-06 2.86864e-06 0)
(2.687e-06 3.03944e-06 0)
(2.83103e-06 3.20826e-06 0)
(2.97631e-06 3.37493e-06 0)
(3.12259e-06 3.53939e-06 0)
(3.26964e-06 3.70173e-06 0)
(3.41704e-06 3.86225e-06 0)
(8.1859e-07 6.29611e-07 0)
(9.13268e-07 7.76607e-07 0)
(1.0132e-06 9.30573e-07 0)
(1.11791e-06 1.0904e-06 0)
(1.22744e-06 1.25484e-06 0)
(1.34146e-06 1.42293e-06 0)
(1.45981e-06 1.59374e-06 0)
(1.58217e-06 1.76645e-06 0)
(1.70829e-06 1.94035e-06 0)
(1.83785e-06 2.1148e-06 0)
(1.97057e-06 2.28924e-06 0)
(2.10614e-06 2.46317e-06 0)
(2.24426e-06 2.63617e-06 0)
(2.38462e-06 2.80785e-06 0)
(2.52692e-06 2.97791e-06 0)
(2.67085e-06 3.14609e-06 0)
(2.8161e-06 3.31225e-06 0)
(2.96235e-06 3.47637e-06 0)
(3.10931e-06 3.63863e-06 0)
(3.25657e-06 3.79951e-06 0)
(6.95565e-07 5.9303e-07 0)
(7.82284e-07 7.37583e-07 0)
(8.75194e-07 8.89107e-07 0)
(9.73922e-07 1.04656e-06 0)
(1.07838e-06 1.20873e-06 0)
(1.18819e-06 1.37468e-06 0)
(1.30311e-06 1.54346e-06 0)
(1.42277e-06 1.71429e-06 0)
(1.54683e-06 1.88646e-06 0)
(1.67493e-06 2.05932e-06 0)
(1.8067e-06 2.23232e-06 0)
(1.94177e-06 2.40496e-06 0)
(2.07978e-06 2.57682e-06 0)
(2.22034e-06 2.74752e-06 0)
(2.36307e-06 2.91675e-06 0)
(2.50758e-06 3.08426e-06 0)
(2.65345e-06 3.24992e-06 0)
(2.80023e-06 3.41371e-06 0)
(2.94755e-06 3.57584e-06 0)
(3.0949e-06 3.7368e-06 0)
(9.89722e-08 1.1659e-08 0)
(2.98844e-07 6.79751e-08 0)
(5.10988e-07 1.71022e-07 0)
(7.38225e-07 3.14086e-07 0)
(9.84969e-07 4.9348e-07 0)
(1.25271e-06 7.02982e-07 0)
(1.54261e-06 9.35934e-07 0)
(1.8543e-06 1.18532e-06 0)
(2.1868e-06 1.44402e-06 0)
(2.53836e-06 1.70612e-06 0)
(9.32494e-08 1.05865e-08 0)
(2.81783e-07 6.14921e-08 0)
(4.81409e-07 1.55283e-07 0)
(6.94301e-07 2.86515e-07 0)
(9.24463e-07 4.52423e-07 0)
(1.17325e-06 6.47798e-07 0)
(1.44185e-06 8.66878e-07 0)
(1.72989e-06 1.1035e-06 0)
(2.03638e-06 1.35082e-06 0)
(2.35942e-06 1.60422e-06 0)
(8.81056e-08 9.29986e-09 0)
(2.66474e-07 5.48925e-08 0)
(4.55019e-07 1.40024e-07 0)
(6.55194e-07 2.60219e-07 0)
(8.70551e-07 4.13416e-07 0)
(1.10223e-06 5.9521e-07 0)
(1.35147e-06 8.00593e-07 0)
(1.61815e-06 1.02428e-06 0)
(1.90199e-06 1.26009e-06 0)
(2.20099e-06 1.50473e-06 0)
(8.33981e-08 7.78958e-09 0)
(2.52524e-07 4.82272e-08 0)
(4.31259e-07 1.25525e-07 0)
(6.20401e-07 2.35907e-07 0)
(8.23114e-07 3.77824e-07 0)
(1.04023e-06 5.47486e-07 0)
(1.27289e-06 7.40424e-07 0)
(1.52083e-06 9.51927e-07 0)
(1.78419e-06 1.17614e-06 0)
(2.06062e-06 1.41025e-06 0)
(7.89976e-08 6.04383e-09 0)
(2.39502e-07 4.12734e-08 0)
(4.09229e-07 1.11133e-07 0)
(5.88376e-07 2.12371e-07 0)
(7.7977e-07 3.43815e-07 0)
(9.83955e-07 5.02164e-07 0)
(1.20206e-06 6.83427e-07 0)
(1.43367e-06 8.83429e-07 0)
(1.67938e-06 1.09682e-06 0)
(1.93605e-06 1.32073e-06 0)
(7.48669e-08 4.09237e-09 0)
(2.27298e-07 3.40771e-08 0)
(3.88727e-07 9.69217e-08 0)
(5.58814e-07 1.89761e-07 0)
(7.40095e-07 3.11693e-07 0)
(9.32812e-07 4.59767e-07 0)
(1.13804e-06 6.30341e-07 0)
(1.35514e-06 8.19572e-07 0)
(1.58514e-06 1.0226e-06 0)
(1.82438e-06 1.23635e-06 0)
(7.09234e-08 1.92718e-09 0)
(2.15655e-07 2.65394e-08 0)
(3.69264e-07 8.25986e-08 0)
(5.30932e-07 1.67528e-07 0)
(7.02957e-07 2.80626e-07 0)
(8.85316e-07 4.19213e-07 0)
(1.07905e-06 5.7995e-07 0)
(1.28332e-06 7.59244e-07 0)
(1.49942e-06 9.52708e-07 0)
(1.72334e-06 1.15692e-06 0)
(6.71355e-08 -4.23779e-10 0)
(2.04474e-07 1.86923e-08 0)
(3.5065e-07 6.81722e-08 0)
(5.04414e-07 1.45654e-07 0)
(6.67862e-07 2.50573e-07 0)
(8.40728e-07 3.80437e-07 0)
(1.02401e-06 5.32142e-07 0)
(1.21672e-06 7.0225e-07 0)
(1.42035e-06 8.86814e-07 0)
(1.63073e-06 1.08213e-06 0)
(6.34546e-08 -2.96109e-09 0)
(1.9361e-07 1.04961e-08 0)
(3.32619e-07 5.3512e-08 0)
(4.7884e-07 1.23886e-07 0)
(6.342e-07 2.21151e-07 0)
(7.98231e-07 3.42944e-07 0)
(9.71896e-07 4.86352e-07 0)
(1.1541e-06 6.48042e-07 0)
(1.34639e-06 8.24432e-07 0)
(1.54469e-06 1.0116e-06 0)
(5.98533e-08 -5.66795e-09 0)
(1.8298e-07 1.9654e-09 0)
(3.15013e-07 3.8604e-08 0)
(4.53947e-07 1.02172e-07 0)
(6.01561e-07 1.92254e-07 0)
(7.57222e-07 3.06569e-07 0)
(9.21853e-07 4.42344e-07 0)
(1.09432e-06 5.96313e-07 0)
(1.27618e-06 7.65197e-07 0)
(1.46354e-06 9.44947e-07 0)
(5.6302e-08 -8.54313e-09 0)
(1.72499e-07 -6.91913e-09 0)
(2.97675e-07 2.33835e-08 0)
(4.29477e-07 8.03897e-08 0)
(5.69552e-07 1.63699e-07 0)
(7.17146e-07 2.71069e-07 0)
(8.73141e-07 3.99823e-07 0)
(1.03643e-06 5.46739e-07 0)
(1.2085e-06 7.08766e-07 0)
(1.38576e-06 8.81813e-07 0)
(5.27813e-08 -1.1582e-08 0)
(1.62113e-07 -1.61598e-08 0)
(2.80495e-07 7.8308e-09 0)
(4.05235e-07 5.85033e-08 0)
(5.37857e-07 1.35422e-07 0)
(6.77523e-07 2.36343e-07 0)
(8.25091e-07 3.58639e-07 0)
(9.79529e-07 4.99119e-07 0)
(1.14225e-06 6.54901e-07 0)
(1.31e-06 8.21915e-07 0)
(4.92791e-08 -1.47932e-08 0)
(1.51797e-07 -2.57866e-08 0)
(2.63402e-07 -8.10505e-09 0)
(3.81066e-07 3.64479e-08 0)
(5.0619e-07 1.0734e-07 0)
(6.37912e-07 2.02284e-07 0)
(7.7708e-07 3.18655e-07 0)
(9.22788e-07 4.5328e-07 0)
(1.07635e-06 6.03398e-07 0)
(1.23493e-06 7.65005e-07 0)
(4.57941e-08 -1.82036e-08 0)
(1.41563e-07 -3.58336e-08 0)
(2.4637e-07 -2.44414e-08 0)
(3.56854e-07 1.42418e-08 0)
(4.74305e-07 7.94937e-08 0)
(5.97899e-07 1.68934e-07 0)
(7.28506e-07 2.79895e-07 0)
(8.65393e-07 4.09213e-07 0)
(1.0098e-06 5.54215e-07 0)
(1.15928e-06 7.10995e-07 0)
(4.23556e-08 -2.18661e-08 0)
(1.31532e-07 -4.63907e-08 0)
(2.29482e-07 -4.12577e-08 0)
(3.32568e-07 -8.16485e-09 0)
(4.41995e-07 5.18578e-08 0)
(5.57075e-07 1.36272e-07 0)
(6.78743e-07 2.42327e-07 0)
(8.06488e-07 3.66858e-07 0)
(9.41481e-07 5.07256e-07 0)
(1.08171e-06 6.59738e-07 0)
(3.90278e-08 -2.59461e-08 0)
(1.21901e-07 -5.75821e-08 0)
(2.12882e-07 -5.85259e-08 0)
(3.08203e-07 -3.0577e-08 0)
(4.09057e-07 2.47355e-08 0)
(5.15013e-07 1.04653e-07 0)
(6.27139e-07 2.0631e-07 0)
(7.45187e-07 3.26547e-07 0)
(8.70287e-07 4.6281e-07 0)
(1.00086e-06 6.11463e-07 0)
(3.60494e-08 -3.06542e-08 0)
(1.13287e-07 -6.96626e-08 0)
(1.97073e-07 -7.64078e-08 0)
(2.83964e-07 -5.30978e-08 0)
(3.75347e-07 -1.92833e-09 0)
(4.71236e-07 7.40236e-08 0)
(5.72906e-07 1.71772e-07 0)
(6.80413e-07 2.88167e-07 0)
(7.94862e-07 4.20719e-07 0)
(9.15104e-07 5.65951e-07 0)
(3.39318e-08 -3.68296e-08 0)
(1.06405e-07 -8.30071e-08 0)
(1.82536e-07 -9.45503e-08 0)
(2.59937e-07 -7.4854e-08 0)
(3.40607e-07 -2.70221e-08 0)
(4.2516e-07 4.55806e-08 0)
(5.15182e-07 1.39893e-07 0)
(6.11039e-07 2.52833e-07 0)
(7.13832e-07 3.81994e-07 0)
(8.2283e-07 5.24093e-07 0)
(3.51586e-08 -4.51441e-08 0)
(1.03914e-07 -9.80938e-08 0)
(1.70954e-07 -1.13274e-07 0)
(2.36691e-07 -9.63195e-08 0)
(3.04546e-07 -5.11215e-08 0)
(3.75874e-07 1.86266e-08 0)
(4.52585e-07 1.09877e-07 0)
(5.35295e-07 2.19657e-07 0)
(6.25104e-07 3.45679e-07 0)
(7.21616e-07 4.84864e-07 0)
(4.50238e-08 -6.00173e-08 0)
(1.07478e-07 -1.15238e-07 0)
(1.63092e-07 -1.30254e-07 0)
(2.14104e-07 -1.13913e-07 0)
(2.66722e-07 -7.04318e-08 0)
(3.22668e-07 -3.08556e-09 0)
(3.84225e-07 8.52876e-08 0)
(4.52116e-07 1.91977e-07 0)
(5.27462e-07 3.1484e-07 0)
(6.10062e-07 4.51038e-07 0)
)
;

boundaryField
{
    left
    {
        type            fixedDisplacement;
        value           uniform (0 0 0);
    }
    right
    {
        type            solidTraction;
        tractionSeries  
{
        file            "$FOAM_CASE/constant/timeVsTraction";
        outOfBounds     clamp;
}
        pressure        uniform 0;
        secondOrder     false;
        setEffectiveTraction false;
        relaxationFactor 1;
        value           nonuniform List<vector> 
30
(
(8.18365e-06 5.97829e-06 2.09469e-21)
(7.99361e-06 5.90982e-06 2.10246e-21)
(7.80185e-06 5.84183e-06 2.15166e-21)
(7.60782e-06 5.77306e-06 2.25101e-21)
(7.41151e-06 5.70268e-06 2.39734e-21)
(7.21335e-06 5.62998e-06 2.5864e-21)
(7.01405e-06 5.5545e-06 2.8109e-21)
(6.81445e-06 5.47603e-06 3.06303e-21)
(6.61542e-06 5.39454e-06 3.33405e-21)
(6.41785e-06 5.31027e-06 3.61408e-21)
(6.23094e-06 5.22731e-06 3.81443e-21)
(6.0537e-06 5.14572e-06 3.90333e-21)
(5.87897e-06 5.06289e-06 3.96391e-21)
(5.70711e-06 4.97924e-06 3.99728e-21)
(5.53832e-06 4.89536e-06 3.99825e-21)
(5.3722e-06 4.8118e-06 3.96897e-21)
(5.20905e-06 4.72888e-06 3.9142e-21)
(5.04855e-06 4.64721e-06 3.83393e-21)
(4.89035e-06 4.56715e-06 3.73275e-21)
(4.73404e-06 4.48902e-06 3.61478e-21)
(4.57913e-06 4.41308e-06 3.48527e-21)
(4.4251e-06 4.33946e-06 3.34968e-21)
(4.27141e-06 4.26824e-06 3.21419e-21)
(4.1175e-06 4.19933e-06 3.08488e-21)
(3.96286e-06 4.13259e-06 2.96805e-21)
(3.80704e-06 4.06772e-06 2.86903e-21)