/*--------------------------------*- C++ -*----------------------------------*\
  =========                 |
  \\      /  F ield         | OpenFOAM: The Open Source CFD Toolbox
   \\    /   O peration     | Website:  https://openfoam.org
    \\  /    A nd           | Version:  9
     \\/     M anipulation  |
\*---------------------------------------------------------------------------*/
FoamFile
{
    format      ascii;
    class       volVectorField;
    location    "5";
    object      D_0;
}
// * * * * * * * * * * * * * * * * * * * * * * * * * * * * * * * * * * * * * //

dimensions      [0 1 0 0 0 0 0];

internalField   nonuniform List<vector> 
1000
(
(2.70254e-06 9.04642e-07 0)
(2.52156e-06 1.00037e-06 0)
(2.38988e-06 1.08061e-06 0)
(2.29475e-06 1.14326e-06 0)
(2.22684e-06 1.1972e-06 0)
(2.17897e-06 1.24356e-06 0)
(2.14658e-06 1.28526e-06 0)
(2.12606e-06 1.3232e-06 0)
(2.11454e-06 1.35857e-06 0)
(2.11057e-06 1.39206e-06 0)
(2.43535e-06 8.14895e-07 0)
(2.24731e-06 8.84693e-07 0)
(2.11141e-06 9.45632e-07 0)
(2.01366e-06 9.92669e-07 0)
(1.94399e-06 1.03386e-06 0)
(1.8947e-06 1.06924e-06 0)
(1.86097e-06 1.10128e-06 0)
(1.83895e-06 1.13054e-06 0)
(1.8257e-06 1.15766e-06 0)
(1.81923e-06 1.18408e-06 0)
(2.16246e-06 7.25031e-07 0)
(1.97263e-06 7.67138e-07 0)
(1.83624e-06 8.07955e-07 0)
(1.73865e-06 8.392e-07 0)
(1.66935e-06 8.67878e-07 0)
(1.62033e-06 8.92773e-07 0)
(1.58658e-06 9.15796e-07 0)
(1.56416e-06 9.37089e-07 0)
(1.55009e-06 9.56785e-07 0)
(1.54229e-06 9.76476e-07 0)
(1.88528e-06 6.36567e-07 0)
(1.69915e-06 6.50339e-07 0)
(1.56628e-06 6.70935e-07 0)
(1.47186e-06 6.86697e-07 0)
(1.40523e-06 7.03474e-07 0)
(1.35829e-06 7.18641e-07 0)
(1.32597e-06 7.33522e-07 0)
(1.3043e-06 7.47707e-07 0)
(1.29049e-06 7.60933e-07 0)
(1.28222e-06 7.74632e-07 0)
(1.60438e-06 5.50717e-07 0)
(1.42775e-06 5.36718e-07 0)
(1.30261e-06 5.379e-07 0)
(1.21459e-06 5.39193e-07 0)
(1.15307e-06 5.45228e-07 0)
(1.11011e-06 5.51877e-07 0)
(1.08067e-06 5.59838e-07 0)
(1.06088e-06 5.68071e-07 0)
(1.04818e-06 5.7598e-07 0)
(1.0402e-06 5.84635e-07 0)
(1.32103e-06 4.68038e-07 0)
(1.15917e-06 4.27967e-07 0)
(1.04604e-06 4.11636e-07 0)
(9.67799e-07 4.00323e-07 0)
(9.13964e-07 3.97456e-07 0)
(8.76854e-07 3.97305e-07 0)
(8.51677e-07 3.99934e-07 0)
(8.34784e-07 4.03654e-07 0)
(8.23938e-07 4.07613e-07 0)
(8.16842e-07 4.12424e-07 0)
(1.03421e-06 3.88649e-07 0)
(8.92776e-07 3.25421e-07 0)
(7.96314e-07 2.9478e-07 0)
(7.31479e-07 2.73861e-07 0)
(6.87937e-07 2.64731e-07 0)
(6.58471e-07 2.60029e-07 0)
(6.38763e-07 2.59224e-07 0)
(6.25584e-07 2.60051e-07 0)
(6.17131e-07 2.61512e-07 0)
(6.11361e-07 2.63764e-07 0)
(7.45971e-07 3.10378e-07 0)
(6.2968e-07 2.28834e-07 0)
(5.54842e-07 1.89437e-07 0)
(5.06886e-07 1.63526e-07 0)
(4.75792e-07 1.51724e-07 0)
(4.55206e-07 1.45268e-07 0)
(4.41663e-07 1.43149e-07 0)
(4.32613e-07 1.42786e-07 0)
(4.26797e-07 1.43185e-07 0)
(4.22617e-07 1.44168e-07 0)
(4.4995e-07 2.25682e-07 0)
(3.6805e-07 1.35646e-07 0)
(3.20881e-07 9.69175e-08 0)
(2.92798e-07 7.32688e-08 0)
(2.75772e-07 6.33844e-08 0)
(2.64685e-07 5.81847e-08 0)
(2.57538e-07 5.66409e-08 0)
(2.52669e-07 5.63943e-08 0)
(2.49481e-07 5.67118e-08 0)
(2.46984e-07 5.73156e-08 0)
(1.54881e-07 1.17903e-07 0)
(1.17103e-07 4.97808e-08 0)
(1.02625e-07 2.59474e-08 0)
(9.49119e-08 1.4182e-08 0)
(9.043e-08 1.02313e-08 0)
(8.73161e-08 8.56386e-09 0)
(8.52797e-08 8.46162e-09 0)
(8.3794e-08 8.76853e-09 0)
(8.27808e-08 9.20152e-09 0)
(8.18915e-08 9.65539e-09 0)
(4.7661e-06 1.47107e-06 0)
(4.75864e-06 1.65426e-06 0)
(4.75354e-06 1.82499e-06 0)
(4.75403e-06 1.98123e-06 0)
(4.76145e-06 2.12453e-06 0)
(4.77637e-06 2.25669e-06 0)
(4.79886e-06 2.37977e-06 0)
(4.82847e-06 2.4956e-06 0)
(4.86495e-06 2.6056e-06 0)
(4.90738e-06 2.71136e-06 0)
(4.61666e-06 1.45878e-06 0)
(4.59588e-06 1.64146e-06 0)
(4.58178e-06 1.8101e-06 0)
(4.57571e-06 1.96319e-06 0)
(4.57838e-06 2.10264e-06 0)
(4.58935e-06 2.23038e-06 0)
(4.60829e-06 2.34867e-06 0)
(4.63431e-06 2.45942e-06 0)
(4.66705e-06 2.56412e-06 0)
(4.70527e-06 2.66457e-06 0)
(4.45819e-06 1.43404e-06 0)
(4.42163e-06 1.61629e-06 0)
(4.39527e-06 1.78151e-06 0)
(4.37952e-06 1.92964e-06 0)
(4.37456e-06 2.06366e-06 0)
(4.37912e-06 2.18575e-06 0)
(4.39244e-06 2.29833e-06 0)
(4.41319e-06 2.40335e-06 0)
(4.44089e-06 2.50234e-06 0)
(4.47382e-06 2.59718e-06 0)
(4.28693e-06 1.39814e-06 0)
(4.23262e-06 1.57958e-06 0)
(4.192e-06 1.74059e-06 0)
(4.16479e-06 1.88267e-06 0)
(4.15044e-06 2.01014e-06 0)
(4.14703e-06 2.12552e-06 0)
(4.15339e-06 2.23147e-06 0)
(4.16774e-06 2.32994e-06 0)
(4.1895e-06 2.42254e-06 0)
(4.21644e-06 2.5111e-06 0)
(4.10089e-06 1.35143e-06 0)
(4.02712e-06 1.53062e-06 0)
(3.97123e-06 1.6861e-06 0)
(3.93192e-06 1.82073e-06 0)
(3.90764e-06 1.94038e-06 0)
(3.89578e-06 2.04791e-06 0)
(3.89475e-06 2.14624e-06 0)
(3.90237e-06 2.23731e-06 0)
(3.91792e-06 2.32281e-06 0)
(3.93871e-06 2.40445e-06 0)
(3.89978e-06 1.29497e-06 0)
(3.80543e-06 1.46946e-06 0)
(3.73397e-06 1.6178e-06 0)
(3.68255e-06 1.74372e-06 0)
(3.64842e-06 1.8545e-06 0)
(3.62822e-06 1.95325e-06 0)
(3.6199e-06 2.04315e-06 0)
(3.6209e-06 2.12609e-06 0)
(3.63035e-06 2.20386e-06 0)
(3.64517e-06 2.27796e-06 0)
(3.68413e-06 1.22962e-06 0)
(3.56891e-06 1.3961e-06 0)
(3.48218e-06 1.53526e-06 0)
(3.4192e-06 1.65109e-06 0)
(3.37581e-06 1.75199e-06 0)
(3.34785e-06 1.84114e-06 0)
(3.33277e-06 1.92194e-06 0)
(3.32766e-06 1.99618e-06 0)
(3.33146e-06 2.06572e-06 0)
(3.34079e-06 2.13181e-06 0)
(3.45506e-06 1.15657e-06 0)
(3.31967e-06 1.3112e-06 0)
(3.21864e-06 1.43895e-06 0)
(3.14508e-06 1.54331e-06 0)
(3.09339e-06 1.63345e-06 0)
(3.05855e-06 1.71239e-06 0)
(3.03751e-06 1.78362e-06 0)
(3.02704e-06 1.84874e-06 0)
(3.02581e-06 1.90972e-06 0)
(3.0304e-06 1.9674e-06 0)
(3.21402e-06 1.07707e-06 0)
(3.06025e-06 1.21581e-06 0)
(2.94654e-06 1.32982e-06 0)
(2.86384e-06 1.42139e-06 0)
(2.80513e-06 1.49999e-06 0)
(2.76455e-06 1.56826e-06 0)
(2.73852e-06 1.62962e-06 0)
(2.72361e-06 1.68549e-06 0)
(2.7181e-06 1.73768e-06 0)
(2.71882e-06 1.78685e-06 0)
(2.96263e-06 9.92569e-07 0)
(2.79333e-06 1.11152e-06 0)
(2.66921e-06 1.2096e-06 0)
(2.57918e-06 1.28719e-06 0)
(2.51496e-06 1.35366e-06 0)
(2.46995e-06 1.41099e-06 0)
(2.44008e-06 1.46245e-06 0)
(2.42175e-06 1.50907e-06 0)
(2.41282e-06 1.55263e-06 0)
(2.41081e-06 1.59278e-06 0)
(4.95803e-06 2.81303e-06 0)
(5.01614e-06 2.91391e-06 0)
(5.07871e-06 3.01314e-06 0)
(5.14522e-06 3.1112e-06 0)
(5.21534e-06 3.20861e-06 0)
(5.28865e-06 3.30565e-06 0)
(5.36487e-06 3.40266e-06 0)
(5.44366e-06 3.49986e-06 0)
(5.52475e-06 3.59749e-06 0)
(5.60788e-06 3.69569e-06 0)
(5.69281e-06 3.79464e-06 0)
(5.7793e-06 3.89444e-06 0)
(5.86716e-06 3.99521e-06 0)
(5.95616e-06 4.09703e-06 0)
(6.04611e-06 4.19995e-06 0)
(6.13681e-06 4.304e-06 0)
(6.22807e-06 4.40915e-06 0)
(6.31967e-06 4.51534e-06 0)
(6.41146e-06 4.62236e-06 0)
(6.50324e-06 4.72991e-06 0)
(4.7581e-06 2.76241e-06 0)
(4.82337e-06 2.86162e-06 0)
(4.89213e-06 2.95929e-06 0)
(4.96381e-06 3.05596e-06 0)
(5.03833e-06 3.15219e-06 0)
(5.11532e-06 3.24823e-06 0)
(5.19464e-06 3.34442e-06 0)
(5.27601e-06 3.44098e-06 0)
(5.35927e-06 3.53812e-06 0)
(5.44421e-06 3.636e-06 0)
(5.53066e-06 3.73476e-06 0)
(5.61845e-06 3.83452e-06 0)
(5.70742e-06 3.93539e-06 0)
(5.79743e-06 4.03743e-06 0)
(5.88832e-06 4.14071e-06 0)
(5.97994e-06 4.24526e-06 0)
(6.07217e-06 4.35103e-06 0)
(6.16484e-06 4.45797e-06 0)
(6.25783e-06 4.56589e-06 0)
(6.35092e-06 4.67453e-06 0)
(4.52959e-06 2.69213e-06 0)
(4.60408e-06 2.79155e-06 0)
(4.6811e-06 2.88946e-06 0)
(4.7599e-06 2.98636e-06 0)
(4.84069e-06 3.08287e-06 0)
(4.92313e-06 3.17921e-06 0)
(5.00723e-06 3.27578e-06 0)
(5.09279e-06 3.37276e-06 0)
(5.17973e-06 3.4704e-06 0)
(5.26792e-06 3.56884e-06 0)
(5.35727e-06 3.66824e-06 0)
(5.44767e-06 3.76872e-06 0)
(5.53903e-06 3.87038e-06 0)
(5.63124e-06 3.97331e-06 0)
(5.72421e-06 4.07757e-06 0)
(5.81786e-06 4.18319e-06 0)
(5.91208e-06 4.29019e-06 0)
(6.00675e-06 4.39853e-06 0)
(6.10178e-06 4.50812e-06 0)
(6.19688e-06 4.6188e-06 0)
(4.27586e-06 2.60374e-06 0)
(4.36131e-06 2.7048e-06 0)
(4.44834e-06 2.80443e-06 0)
(4.53593e-06 2.90284e-06 0)
(4.62464e-06 3.00086e-06 0)
(4.71408e-06 3.09862e-06 0)
(4.80445e-06 3.19659e-06 0)
(4.8956e-06 3.29495e-06 0)
(4.98757e-06 3.39397e-06 0)
(5.08029e-06 3.49379e-06 0)
(5.17375e-06 3.5946e-06 0)
(5.2679e-06 3.69652e-06 0)
(5.36272e-06 3.79966e-06 0)
(5.45816e-06 3.90413e-06 0)
(5.55418e-06 4.00999e-06 0)
(5.65073e-06 4.11733e-06 0)
(5.74777e-06 4.22619e-06 0)
(5.84518e-06 4.33658e-06 0)
(5.9429e-06 4.44854e-06 0)
(6.04065e-06 4.56201e-06 0)
(4.00245e-06 2.49557e-06 0)
(4.10016e-06 2.59992e-06 0)
(4.19854e-06 2.70292e-06 0)
(4.29617e-06 2.80431e-06 0)
(4.39402e-06 2.90522e-06 0)
(4.49163e-06 3.00566e-06 0)
(4.58941e-06 3.10619e-06 0)
(4.68724e-06 3.20699e-06 0)
(4.78526e-06 3.30836e-06 0)
(4.88349e-06 3.41047e-06 0)
(4.98198e-06 3.51352e-06 0)
(5.08076e-06 3.61765e-06 0)
(5.17986e-06 3.72301e-06 0)
(5.27929e-06 3.82969e-06 0)
(5.37907e-06 3.93782e-06 0)
(5.47919e-06 4.04749e-06 0)
(5.57964e-06 4.15881e-06 0)
(5.68036e-06 4.27186e-06 0)
(5.78131e-06 4.38679e-06 0)
(5.88224e-06 4.50364e-06 0)
(3.71386e-06 2.36828e-06 0)
(3.82475e-06 2.47744e-06 0)
(3.93547e-06 2.58534e-06 0)
(4.04405e-06 2.69111e-06 0)
(4.15198e-06 2.79619e-06 0)
(4.25867e-06 2.90051e-06 0)
(4.36473e-06 3.00471e-06 0)
(4.47007e-06 3.10898e-06 0)
(4.57496e-06 3.21366e-06 0)
(4.67946e-06 3.31894e-06 0)
(4.78372e-06 3.42506e-06 0)
(4.8878e-06 3.53217e-06 0)
(4.99181e-06 3.64045e-06 0)
(5.09582e-06 3.75003e-06 0)
(5.1999e-06 3.86105e-06 0)
(5.30408e-06 3.97364e-06 0)
(5.40841e-06 4.08798e-06 0)
(5.51287e-06 4.2042e-06 0)
(5.61746e-06 4.32258e-06 0)
(5.72202e-06 4.44324e-06 0)
(3.41487e-06 2.22214e-06 0)
(3.5394e-06 2.33762e-06 0)
(3.66309e-06 2.45193e-06 0)
(3.78322e-06 2.56348e-06 0)
(3.90183e-06 2.674e-06 0)
(4.01822e-06 2.78339e-06 0)
(4.13317e-06 2.89234e-06 0)
(4.24663e-06 3.00109e-06 0)
(4.35897e-06 3.11e-06 0)
(4.47029e-06 3.21934e-06 0)
(4.58083e-06 3.32934e-06 0)
(4.69071e-06 3.4402e-06 0)
(4.8001e-06 3.55212e-06 0)
(4.90911e-06 3.66525e-06 0)
(5.01787e-06 3.77978e-06 0)
(5.12648e-06 3.89587e-06 0)
(5.23502e-06 4.01374e-06 0)
(5.34353e-06 4.13358e-06 0)
(5.45206e-06 4.25578e-06 0)
(5.56056e-06 4.38051e-06 0)
(3.11003e-06 2.05848e-06 0)
(3.24824e-06 2.18172e-06 0)
(3.38503e-06 2.30364e-06 0)
(3.51699e-06 2.42227e-06 0)
(3.64655e-06 2.53935e-06 0)
(3.77302e-06 2.65494e-06 0)
(3.89723e-06 2.76967e-06 0)
(4.01923e-06 2.88389e-06 0)
(4.1394e-06 2.99796e-06 0)
(4.25795e-06 3.1122e-06 0)
(4.37515e-06 3.22686e-06 0)
(4.49118e-06 3.3422e-06 0)
(4.60626e-06 3.45843e-06 0)
(4.72057e-06 3.57574e-06 0)
(4.83428e-06 3.69435e-06 0)
(4.94755e-06 3.81444e-06 0)
(5.0605e-06 3.93628e-06 0)
(5.17326e-06 4.06011e-06 0)
(5.28592e-06 4.18639e-06 0)
(5.39858e-06 4.31534e-06 0)
(2.80396e-06 1.87887e-06 0)
(2.95549e-06 2.01138e-06 0)
(3.10502e-06 2.14183e-06 0)
(3.24887e-06 2.26872e-06 0)
(3.38935e-06 2.3933e-06 0)
(3.52601e-06 2.516e-06 0)
(3.65958e-06 2.63737e-06 0)
(3.79025e-06 2.75787e-06 0)
(3.91843e-06 2.8779e-06 0)
(4.04438e-06 2.99781e-06 0)
(4.16842e-06 3.1179e-06 0)
(4.29079e-06 3.23843e-06 0)
(4.41174e-06 3.35965e-06 0)
(4.53151e-06 3.48177e-06 0)
(4.65032e-06 3.60502e-06 0)
(4.76838e-06 3.72963e-06 0)
(4.88586e-06 3.85587e-06 0)
(5.00298e-06 3.98402e-06 0)
(5.11986e-06 4.11457e-06 0)
(5.2368e-06 4.24779e-06 0)
(2.50031e-06 1.68611e-06 0)
(2.66444e-06 1.82881e-06 0)
(2.82535e-06 1.96804e-06 0)
(2.9808e-06 2.10407e-06 0)
(3.13197e-06 2.23713e-06 0)
(3.27886e-06 2.36789e-06 0)
(3.42193e-06 2.49681e-06 0)
(3.56145e-06 2.62442e-06 0)
(3.69781e-06 2.75116e-06 0)
(3.83133e-06 2.87742e-06 0)
(3.96234e-06 3.00355e-06 0)
(4.09116e-06 3.12986e-06 0)
(4.21807e-06 3.25661e-06 0)
(4.34337e-06 3.38404e-06 0)
(4.46732e-06 3.5124e-06 0)
(4.59019e-06 3.64193e-06 0)
(4.71221e-06 3.7729e-06 0)
(4.83367e-06 3.90562e-06 0)
(4.95477e-06 4.04057e-06 0)
(5.07597e-06 4.17803e-06 0)
(2.26624e-06 1.54158e-06 0)
(2.43734e-06 1.69168e-06 0)
(2.60421e-06 1.83586e-06 0)
(2.76593e-06 1.97707e-06 0)
(2.92316e-06 2.11531e-06 0)
(3.07592e-06 2.25118e-06 0)
(3.22461e-06 2.38515e-06 0)
(3.36946e-06 2.51764e-06 0)
(3.51083e-06 2.64909e-06 0)
(3.64902e-06 2.77984e-06 0)
(3.78436e-06 2.91025e-06 0)
(3.91717e-06 3.04059e-06 0)
(4.04776e-06 3.17112e-06 0)
(4.17642e-06 3.30209e-06 0)
(4.30345e-06 3.43372e-06 0)
(4.42915e-06 3.56623e-06 0)
(4.55379e-06 3.69989e-06 0)
(4.67772e-06 3.83495e-06 0)
(4.80117e-06 3.97186e-06 0)
(4.92477e-06 4.11085e-06 0)
(2.11021e-06 1.45513e-06 0)
(2.2813e-06 1.60516e-06 0)
(2.44818e-06 1.75046e-06 0)
(2.61041e-06 1.89322e-06 0)
(2.76842e-06 2.03339e-06 0)
(2.92217e-06 2.1714e-06 0)
(3.07198e-06 2.30761e-06 0)
(3.21803e-06 2.44236e-06 0)
(3.36061e-06 2.57601e-06 0)
(3.49999e-06 2.70885e-06 0)
(3.63646e-06 2.84119e-06 0)
(3.77031e-06 2.97326e-06 0)
(3.90183e-06 3.10531e-06 0)
(4.03131e-06 3.23754e-06 0)
(4.15905e-06 3.37015e-06 0)
(4.28534e-06 3.50334e-06 0)
(4.41048e-06 3.63732e-06 0)
(4.53486e-06 3.77232e-06 0)
(4.6587e-06 3.90866e-06 0)
(4.78273e-06 4.04652e-06 0)
(1.97261e-06 1.37222e-06 0)
(2.14057e-06 1.52173e-06 0)
(2.30572e-06 1.66739e-06 0)
(2.46666e-06 1.81107e-06 0)
(2.624e-06 1.95262e-06 0)
(2.77744e-06 2.09231e-06 0)
(2.92725e-06 2.23039e-06 0)
(3.0735e-06 2.36712e-06 0)
(3.21643e-06 2.50277e-06 0)
(3.35624e-06 2.63756e-06 0)
(3.49319e-06 2.77174e-06 0)
(3.62753e-06 2.9055e-06 0)
(3.75952e-06 3.03903e-06 0)
(3.88945e-06 3.17251e-06 0)
(4.01758e-06 3.3061e-06 0)
(4.14423e-06 3.43995e-06 0)
(4.26968e-06 3.57422e-06 0)
(4.39434e-06 3.70909e-06 0)
(4.51844e-06 3.84474e-06 0)
(4.64278e-06 3.9813e-06 0)
(1.84939e-06 1.29248e-06 0)
(2.01328e-06 1.4407e-06 0)
(2.17543e-06 1.58615e-06 0)
(2.33394e-06 1.73034e-06 0)
(2.48948e-06 1.87292e-06 0)
(2.64154e-06 2.01401e-06 0)
(2.79038e-06 2.15374e-06 0)
(2.93595e-06 2.29226e-06 0)
(3.07845e-06 2.42974e-06 0)
(3.218e-06 2.56635e-06 0)
(3.35482e-06 2.70226e-06 0)
(3.48912e-06 2.83763e-06 0)
(3.62115e-06 2.97259e-06 0)
(3.75115e-06 3.10727e-06 0)
(3.87938e-06 3.2418e-06 0)
(4.00613e-06 3.37627e-06 0)
(4.13169e-06 3.51078e-06 0)
(4.25646e-06 3.64546e-06 0)
(4.38071e-06 3.78037e-06 0)
(4.50521e-06 3.91553e-06 0)
(1.73911e-06 1.2167e-06 0)
(1.89804e-06 1.36318e-06 0)
(2.05617e-06 1.50796e-06 0)
(2.21128e-06 1.65217e-06 0)
(2.36407e-06 1.79533e-06 0)
(2.51389e-06 1.93742e-06 0)
(2.66094e-06 2.07845e-06 0)
(2.80507e-06 2.21846e-06 0)
(2.94644e-06 2.35753e-06 0)
(3.08512e-06 2.49576e-06 0)
(3.22128e-06 2.63324e-06 0)
(3.35508e-06 2.77008e-06 0)
(3.48673e-06 2.90636e-06 0)
(3.61645e-06 3.04217e-06 0)
(3.74449e-06 3.17756e-06 0)
(3.8711e-06 3.3126e-06 0)
(3.99659e-06 3.44732e-06 0)
(4.12123e-06 3.58176e-06 0)
(4.24558e-06 3.71582e-06 0)
(4.37017e-06 3.84953e-06 0)
(1.63964e-06 1.14484e-06 0)
(1.79312e-06 1.28918e-06 0)
(1.94658e-06 1.43287e-06 0)
(2.09761e-06 1.57671e-06 0)
(2.24695e-06 1.72008e-06 0)
(2.39383e-06 1.86283e-06 0)
(2.5384e-06 2.00485e-06 0)
(2.68047e-06 2.14608e-06 0)
(2.82012e-06 2.2865e-06 0)
(2.95739e-06 2.42614e-06 0)
(3.0924e-06 2.56502e-06 0)
(3.22527e-06 2.70318e-06 0)
(3.35618e-06 2.84065e-06 0)
(3.48532e-06 2.97747e-06 0)
(3.6129e-06 3.11365e-06 0)
(3.73918e-06 3.24918e-06 0)
(3.86439e-06 3.38405e-06 0)
(3.98892e-06 3.51817e-06 0)
(4.11299e-06 3.65142e-06 0)
(4.23735e-06 3.78376e-06 0)
(1.54922e-06 1.07692e-06 0)
(1.69696e-06 1.21888e-06 0)
(1.84528e-06 1.36119e-06 0)
(1.99176e-06 1.50433e-06 0)
(2.1371e-06 1.64757e-06 0)
(2.28049e-06 1.79066e-06 0)
(2.42205e-06 1.93337e-06 0)
(2.56153e-06 2.07553e-06 0)
(2.69899e-06 2.21705e-06 0)
(2.83439e-06 2.35786e-06 0)
(2.96784e-06 2.49793e-06 0)
(3.09941e-06 2.63723e-06 0)
(3.22926e-06 2.77575e-06 0)
(3.35754e-06 2.91345e-06 0)
(3.48443e-06 3.0503e-06 0)
(3.61017e-06 3.18626e-06 0)
(3.73496e-06 3.32122e-06 0)
(3.85915e-06 3.45506e-06 0)
(3.98293e-06 3.58753e-06 0)
(4.10698e-06 3.7185e-06 0)
(1.46615e-06 1.01277e-06 0)
(1.608e-06 1.15219e-06 0)
(1.75091e-06 1.29291e-06 0)
(1.89251e-06 1.4351e-06 0)
(2.03347e-06 1.57794e-06 0)
(2.17298e-06 1.7211e-06 0)
(2.31111e-06 1.86422e-06 0)
(2.4476e-06 2.00705e-06 0)
(2.58245e-06 2.14942e-06 0)
(2.71562e-06 2.29118e-06 0)
(2.84716e-06 2.43223e-06 0)
(2.97713e-06 2.57249e-06 0)
(3.10564e-06 2.71188e-06 0)
(3.23282e-06 2.85033e-06 0)
(3.35882e-06 2.98775e-06 0)
(3.48384e-06 3.12404e-06 0)
(3.60806e-06 3.25905e-06 0)
(3.73178e-06 3.3926e-06 0)
(3.85516e-06 3.52434e-06 0)
(3.9788e-06 3.65409e-06 0)
(1.3889e-06 9.52171e-07 0)
(1.52482e-06 1.08903e-06 0)
(1.66216e-06 1.22803e-06 0)
(1.79867e-06 1.36908e-06 0)
(1.93499e-06 1.51132e-06 0)
(2.07031e-06 1.65431e-06 0)
(2.2047e-06 1.7976e-06 0)
(2.33788e-06 1.94086e-06 0)
(2.46982e-06 2.08384e-06 0)
(2.60046e-06 2.22633e-06 0)
(2.72981e-06 2.36815e-06 0)
(2.85793e-06 2.50917e-06 0)
(2.98487e-06 2.64926e-06 0)
(3.11075e-06 2.78831e-06 0)
(3.23568e-06 2.92618e-06 0)
(3.35984e-06 3.06272e-06 0)
(3.48336e-06 3.19775e-06 0)
(3.60651e-06 3.33102e-06 0)
(3.72939e-06 3.46211e-06 0)
(3.85251e-06 3.5908e-06 0)
(1.31606e-06 8.94883e-07 0)
(1.44606e-06 1.02922e-06 0)
(1.57775e-06 1.16644e-06 0)
(1.70905e-06 1.30625e-06 0)
(1.84055e-06 1.44773e-06 0)
(1.97148e-06 1.59036e-06 0)
(2.10191e-06 1.73361e-06 0)
(2.23153e-06 1.87709e-06 0)
(2.36033e-06 2.02046e-06 0)
(2.48821e-06 2.16345e-06 0)
(2.61517e-06 2.30584e-06 0)
(2.74122e-06 2.44743e-06 0)
(2.86642e-06 2.58805e-06 0)
(2.99084e-06 2.72755e-06 0)
(3.11457e-06 2.86575e-06 0)
(3.23775e-06 3.00246e-06 0)
(3.36047e-06 3.13746e-06 0)
(3.48295e-06 3.27047e-06 0)
(3.60526e-06 3.40104e-06 0)
(3.72778e-06 3.52889e-06 0)
(1.24635e-06 8.40669e-07 0)
(1.37045e-06 9.72581e-07 0)
(1.49646e-06 1.10804e-06 0)
(1.62248e-06 1.24654e-06 0)
(1.74904e-06 1.38716e-06 0)
(1.87545e-06 1.52928e-06 0)
(2.00176e-06 1.67232e-06 0)
(2.12768e-06 1.81582e-06 0)
(2.25317e-06 1.95938e-06 0)
(2.37812e-06 2.10268e-06 0)
(2.50253e-06 2.24543e-06 0)
(2.62639e-06 2.3874e-06 0)
(2.74971e-06 2.52839e-06 0)
(2.87255e-06 2.66818e-06 0)
(2.99497e-06 2.80658e-06 0)
(3.11707e-06 2.94338e-06 0)
(3.23893e-06 3.07832e-06 0)
(3.36067e-06 3.21111e-06 0)
(3.48235e-06 3.34127e-06 0)
(3.60421e-06 3.46851e-06 0)
(1.17855e-06 7.89331e-07 0)
(1.29677e-06 9.18967e-07 0)
(1.4171e-06 1.0527e-06 0)
(1.53779e-06 1.18989e-06 0)
(1.65935e-06 1.32956e-06 0)
(1.78117e-06 1.47106e-06 0)
(1.90326e-06 1.61374e-06 0)
(2.02537e-06 1.75709e-06 0)
(2.14745e-06 1.90066e-06 0)
(2.26939e-06 2.04407e-06 0)
(2.39116e-06 2.187e-06 0)
(2.51272e-06 2.32917e-06 0)
(2.63408e-06 2.47034e-06 0)
(2.75526e-06 2.61028e-06 0)
(2.87631e-06 2.74876e-06 0)
(2.99728e-06 2.88556e-06 0)
(3.11821e-06 3.02041e-06 0)
(3.23918e-06 3.15302e-06 0)
(3.3602e-06 3.2829e-06 0)
(3.48136e-06 3.40977e-06 0)
(1.11149e-06 7.40683e-07 0)
(1.22385e-06 8.68218e-07 0)
(1.33848e-06 1.00031e-06 0)
(1.45382e-06 1.13619e-06 0)
(1.57036e-06 1.27487e-06 0)
(1.68754e-06 1.41566e-06 0)
(1.80539e-06 1.55785e-06 0)
(1.92365e-06 1.7009e-06 0)
(2.04229e-06 1.8443e-06 0)
(2.16117e-06 1.98765e-06 0)
(2.28025e-06 2.13058e-06 0)
(2.39949e-06 2.27278e-06 0)
(2.51886e-06 2.41397e-06 0)
(2.63836e-06 2.55391e-06 0)
(2.758e-06 2.69236e-06 0)
(2.87781e-06 2.82907e-06 0)
(2.99779e-06 2.96379e-06 0)
(3.11797e-06 3.09624e-06 0)
(3.23831e-06 3.22596e-06 0)
(3.35877e-06 3.35272e-06 0)
(1.04403e-06 6.94651e-07 0)
(1.15051e-06 8.20258e-07 0)
(1.25941e-06 9.50788e-07 0)
(1.3694e-06 1.08539e-06 0)
(1.48092e-06 1.22304e-06 0)
(1.59347e-06 1.36303e-06 0)
(1.70708e-06 1.50462e-06 0)
(1.82152e-06 1.64722e-06 0)
(1.93673e-06 1.7903e-06 0)
(2.05258e-06 1.93341e-06 0)
(2.169e-06 2.07617e-06 0)
(2.28594e-06 2.21823e-06 0)
(2.40334e-06 2.35929e-06 0)
(2.52118e-06 2.49909e-06 0)
(2.63944e-06 2.63738e-06 0)
(2.7581e-06 2.77392e-06 0)
(2.87714e-06 2.90846e-06 0)
(2.99653e-06 3.04077e-06 0)
(3.1162e-06 3.17045e-06 0)
(3.236e-06 3.29731e-06 0)
(9.7497e-07 6.51103e-07 0)
(1.07551e-06 7.74955e-07 0)
(1.17867e-06 9.04007e-07 0)
(1.28331e-06 1.03734e-06 0)
(1.38983e-06 1.17395e-06 0)
(1.49781e-06 1.31306e-06 0)
(1.60724e-06 1.45393e-06 0)
(1.71793e-06 1.59595e-06 0)
(1.8298e-06 1.73855e-06 0)
(1.94271e-06 1.88128e-06 0)
(2.05657e-06 2.0237e-06 0)
(2.1713e-06 2.16546e-06 0)
(2.28682e-06 2.30625e-06 0)
(2.40308e-06 2.44578e-06 0)
(2.52001e-06 2.5838e-06 0)
(2.63758e-06 2.72008e-06 0)
(2.75573e-06 2.85441e-06 0)
(2.87438e-06 2.98657e-06 0)
(2.99342e-06 3.11628e-06 0)
(3.11261e-06 3.24343e-06 0)
(9.0309e-07 6.10173e-07 0)
(9.97598e-07 7.32395e-07 0)
(1.09498e-06 8.60012e-07 0)
(1.19429e-06 9.92076e-07 0)
(1.29587e-06 1.12756e-06 0)
(1.39936e-06 1.26571e-06 0)
(1.50475e-06 1.40573e-06 0)
(1.61183e-06 1.54702e-06 0)
(1.72051e-06 1.68899e-06 0)
(1.83064e-06 1.83116e-06 0)
(1.94211e-06 1.97308e-06 0)
(2.0548e-06 2.1144e-06 0)
(2.1686e-06 2.25476e-06 0)
(2.28342e-06 2.3939e-06 0)
(2.39917e-06 2.53155e-06 0)
(2.51576e-06 2.66749e-06 0)
(2.63311e-06 2.80154e-06 0)
(2.75109e-06 2.93355e-06 0)
(2.86956e-06 3.06334e-06 0)
(2.98823e-06 3.1909e-06 0)
(8.26963e-07 5.71652e-07 0)
(9.15336e-07 6.92346e-07 0)
(1.00691e-06 8.18554e-07 0)
(1.10094e-06 9.49324e-07 0)
(1.19769e-06 1.08363e-06 0)
(1.29685e-06 1.22071e-06 0)
(1.39837e-06 1.35977e-06 0)
(1.50207e-06 1.50019e-06 0)
(1.6078e-06 1.64138e-06 0)
(1.71541e-06 1.78284e-06 0)
(1.82474e-06 1.92413e-06 0)
(1.93564e-06 2.06486e-06 0)
(2.04797e-06 2.20468e-06 0)
(2.16159e-06 2.34332e-06 0)
(2.27637e-06 2.48051e-06 0)
(2.39217e-06 2.61604e-06 0)
(2.50887e-06 2.74976e-06 0)
(2.62631e-06 2.88157e-06 0)
(2.74433e-06 3.01143e-06 0)
(2.86259e-06 3.13944e-06 0)
(7.45177e-07 5.36123e-07 0)
(8.273e-07 6.55257e-07 0)
(9.13053e-07 7.79961e-07 0)
(1.00189e-06 9.09308e-07 0)
(1.09397e-06 1.04228e-06 0)
(1.18902e-06 1.17811e-06 0)
(1.28695e-06 1.31602e-06 0)
(1.38756e-06 1.45538e-06 0)
(1.49068e-06 1.5956e-06 0)
(1.5961e-06 1.73617e-06 0)
(1.70364e-06 1.87665e-06 0)
(1.81311e-06 2.01664e-06 0)
(1.92431e-06 2.1558e-06 0)
(2.03706e-06 2.29383e-06 0)
(2.15117e-06 2.43047e-06 0)
(2.26646e-06 2.56553e-06 0)
(2.38275e-06 2.69887e-06 0)
(2.49985e-06 2.83045e-06 0)
(2.61755e-06 2.96032e-06 0)
(2.73554e-06 3.08874e-06 0)
(6.55681e-07 5.02757e-07 0)
(7.31475e-07 6.20306e-07 0)
(8.11471e-07 7.43437e-07 0)
(8.95287e-07 8.71265e-07 0)
(9.82961e-07 1.00279e-06 0)
(1.07423e-06 1.13724e-06 0)
(1.16896e-06 1.27386e-06 0)
(1.26691e-06 1.41202e-06 0)
(1.36785e-06 1.55113e-06 0)
(1.47156e-06 1.69069e-06 0)
(1.57779e-06 1.83024e-06 0)
(1.68631e-06 1.96939e-06 0)
(1.79686e-06 2.10779e-06 0)
(1.90921e-06 2.24514e-06 0)
(2.02312e-06 2.38119e-06 0)
(2.13833e-06 2.51574e-06 0)
(2.2546e-06 2.64867e-06 0)
(2.37167e-06 2.77997e-06 0)
(2.4893e-06 2.90979e-06 0)
(2.60718e-06 3.03849e-06 0)
(5.57303e-07 4.73456e-07 0)
(6.26727e-07 5.8905e-07 0)
(7.01103e-07 7.10227e-07 0)
(7.80133e-07 8.36157e-07 0)
(8.63743e-07 9.65861e-07 0)
(9.51645e-07 1.09859e-06 0)
(1.04363e-06 1.2336e-06 0)
(1.13941e-06 1.37025e-06 0)
(1.23871e-06 1.50797e-06 0)
(1.34124e-06 1.64626e-06 0)
(1.44671e-06 1.78465e-06 0)
(1.55483e-06 1.92277e-06 0)
(1.66529e-06 2.06026e-06 0)
(1.7778e-06 2.19682e-06 0)
(1.89205e-06 2.3322e-06 0)
(2.00772e-06 2.46622e-06 0)
(2.12449e-06 2.59875e-06 0)
(2.24198e-06 2.72979e-06 0)
(2.3599e-06 2.85949e-06 0)
(2.47786e-06 2.98827e-06 0)
(7.91846e-08 9.33383e-09 0)
(2.39097e-07 5.43837e-08 0)
(4.08828e-07 1.36797e-07 0)
(5.90628e-07 2.51212e-07 0)
(7.88024e-07 3.94687e-07 0)
(1.00221e-06 5.62256e-07 0)
(1.23412e-06 7.48588e-07 0)
(1.48341e-06 9.48064e-07 0)
(1.74941e-06 1.15497e-06 0)
(2.03072e-06 1.36463e-06 0)
(7.46092e-08 8.4719e-09 0)
(2.25457e-07 4.9188e-08 0)
(3.85181e-07 1.24193e-07 0)
(5.55512e-07 2.29141e-07 0)
(7.39652e-07 3.61825e-07 0)
(9.38688e-07 5.18088e-07 0)
(1.15356e-06 6.93318e-07 0)
(1.38397e-06 8.82582e-07 0)
(1.62911e-06 1.0804e-06 0)
(1.88755e-06 1.28309e-06 0)
(7.04967e-08 7.43871e-09 0)
(2.13217e-07 4.38988e-08 0)
(3.64083e-07 1.11973e-07 0)
(5.24248e-07 2.0809e-07 0)
(6.96554e-07 3.30604e-07 0)
(8.81909e-07 4.75998e-07 0)
(1.08131e-06 6.40268e-07 0)
(1.29465e-06 8.19185e-07 0)
(1.52169e-06 1.00779e-06 0)
(1.76085e-06 1.20348e-06 0)
(6.67328e-08 6.22689e-09 0)
(2.02064e-07 3.85573e-08 0)
(3.45085e-07 1.00361e-07 0)
(4.96431e-07 1.88625e-07 0)
(6.58629e-07 3.02111e-07 0)
(8.32343e-07 4.37795e-07 0)
(1.01849e-06 5.92105e-07 0)
(1.21685e-06 7.6127e-07 0)
(1.42754e-06 9.40607e-07 0)
(1.64864e-06 1.12785e-06 0)
(6.32143e-08 4.82684e-09 0)
(1.91653e-07 3.29852e-08 0)
(3.27472e-07 8.88346e-08 0)
(4.70826e-07 1.6978e-07 0)
(6.23976e-07 2.74885e-07 0)
(7.87355e-07 4.01515e-07 0)
(9.61866e-07 5.46481e-07 0)
(1.14717e-06 7.06441e-07 0)
(1.34376e-06 8.77118e-07 0)
(1.54909e-06 1.05621e-06 0)
(5.99115e-08 3.26235e-09 0)
(1.81894e-07 2.72192e-08 0)
(3.11079e-07 7.74525e-08 0)
(4.4719e-07 1.51675e-07 0)
(5.92255e-07 2.49168e-07 0)
(7.46465e-07 3.67575e-07 0)
(9.1068e-07 5.03985e-07 0)
(1.08439e-06 6.55325e-07 0)
(1.26842e-06 8.17709e-07 0)
(1.45981e-06 9.8867e-07 0)
(5.67582e-08 1.52702e-09 0)
(1.72584e-07 2.11802e-08 0)
(2.95517e-07 6.59808e-08 0)
(4.24896e-07 1.33872e-07 0)
(5.62561e-07 2.24294e-07 0)
(7.0849e-07 3.35108e-07 0)
(8.63515e-07 4.63646e-07 0)
(1.02696e-06 6.07033e-07 0)
(1.19988e-06 7.61764e-07 0)
(1.37903e-06 9.25097e-07 0)
(5.37293e-08 -3.56866e-10 0)
(1.63644e-07 1.48939e-08 0)
(2.80633e-07 5.44264e-08 0)
(4.03692e-07 1.16355e-07 0)
(5.34499e-07 2.00231e-07 0)
(6.72838e-07 3.04064e-07 0)
(8.19511e-07 4.25372e-07 0)
(9.73718e-07 5.61408e-07 0)
(1.13665e-06 7.09017e-07 0)
(1.30499e-06 8.65232e-07 0)
(5.07859e-08 -2.38969e-09 0)
(1.54956e-07 8.32841e-09 0)
(2.66215e-07 4.2685e-08 0)
(3.83243e-07 9.89236e-08 0)
(5.07583e-07 1.76672e-07 0)
(6.38857e-07 2.74045e-07 0)
(7.77837e-07 3.88714e-07 0)
(9.23641e-07 5.18012e-07 0)
(1.07752e-06 6.5908e-07 0)
(1.23619e-06 8.08774e-07 0)
(4.79061e-08 -4.55802e-09 0)
(1.46456e-07 1.49535e-09 0)
(2.52137e-07 3.07452e-08 0)
(3.63338e-07 8.15342e-08 0)
(4.81484e-07 1.53534e-07 0)
(6.06066e-07 2.44921e-07 0)
(7.37823e-07 3.5348e-07 0)
(8.75844e-07 4.766e-07 0)
(1.02137e-06 6.11659e-07 0)
(1.1713e-06 7.55418e-07 0)
(4.50664e-08 -6.86102e-09 0)
(1.38075e-07 -5.6208e-09 0)
(2.38272e-07 1.85551e-08 0)
(3.43772e-07 6.40905e-08 0)
(4.5589e-07 1.30668e-07 0)
(5.74021e-07 2.16496e-07 0)
(6.98871e-07 3.19435e-07 0)
(8.29552e-07 4.3691e-07 0)
(9.67257e-07 5.66481e-07 0)
(1.10911e-06 7.04875e-07 0)
(4.22511e-08 -9.29497e-09 0)
(1.29771e-07 -1.30221e-08 0)
(2.24535e-07 6.09875e-09 0)
(3.24389e-07 4.65625e-08 0)
(4.30547e-07 1.08024e-07 0)
(5.42339e-07 1.88689e-07 0)
(6.6045e-07 2.86459e-07 0)
(7.84054e-07 3.98783e-07 0)
(9.14278e-07 5.23355e-07 0)
(1.04853e-06 6.56921e-07 0)
(3.94507e-08 -1.18668e-08 0)
(1.21522e-07 -2.07326e-08 0)
(2.10869e-07 -6.66481e-09 0)
(3.05064e-07 2.88985e-08 0)
(4.05227e-07 8.55346e-08 0)
(5.10667e-07 1.61415e-07 0)
(6.22061e-07 2.54442e-07 0)
(7.38684e-07 3.62079e-07 0)
(8.6159e-07 4.82118e-07 0)
(9.88498e-07 6.11356e-07 0)
(3.66644e-08 -1.45983e-08 0)
(1.13341e-07 -2.87801e-08 0)
(1.97253e-07 -1.97499e-08 0)
(2.85707e-07 1.11128e-08 0)
(3.79735e-07 6.32326e-08 0)
(4.78675e-07 1.34707e-07 0)
(5.83223e-07 2.23404e-07 0)
(6.92791e-07 3.26793e-07 0)
(8.08368e-07 4.42736e-07 0)
(9.28004e-07 5.6811e-07 0)
(3.39156e-08 -1.75318e-08 0)
(1.05322e-07 -3.72367e-08 0)
(1.83754e-07 -3.32204e-08 0)
(2.66294e-07 -6.83498e-09 0)
(3.53906e-07 4.10977e-08 0)
(4.46037e-07 1.08549e-07 0)
(5.43436e-07 1.93318e-07 0)
(6.45692e-07 2.92875e-07 0)
(7.53743e-07 4.05133e-07 0)
(8.65978e-07 5.27066e-07 0)
(3.12558e-08 -2.08004e-08 0)
(9.7626e-08 -4.62029e-08 0)
(1.70488e-07 -4.70548e-08 0)
(2.46821e-07 -2.47891e-08 0)
(3.27578e-07 1.93722e-08 0)
(4.12413e-07 8.32234e-08 0)
(5.02179e-07 1.64472e-07 0)
(5.9668e-07 2.60592e-07 0)
(6.96818e-07 3.6954e-07 0)
(8.01329e-07 4.88407e-07 0)
(2.88767e-08 -2.45729e-08 0)
(9.07468e-08 -5.58831e-08 0)
(1.5786e-07 -6.13828e-08 0)
(2.27454e-07 -4.28323e-08 0)
(3.00637e-07 -1.98781e-09 0)
(3.7742e-07 5.8689e-08 0)
(4.58824e-07 1.36809e-07 0)
(5.44892e-07 2.29854e-07 0)
(6.36511e-07 3.3583e-07 0)
(7.32761e-07 4.51958e-07 0)
(2.71882e-08 -2.95232e-08 0)
(8.52591e-08 -6.65795e-08 0)
(1.46256e-07 -7.59232e-08 0)
(2.08262e-07 -6.02661e-08 0)
(2.72877e-07 -2.20931e-08 0)
(3.40593e-07 3.59034e-08 0)
(4.12679e-07 1.11274e-07 0)
(4.89428e-07 2.01553e-07 0)
(5.71723e-07 3.04814e-07 0)
(6.58978e-07 4.18434e-07 0)
(2.81815e-08 -3.61902e-08 0)
(8.32938e-08 -7.86753e-08 0)
(1.37025e-07 -9.09322e-08 0)
(1.89703e-07 -7.74691e-08 0)
(2.44068e-07 -4.14033e-08 0)
(3.01204e-07 1.43091e-08 0)
(3.62641e-07 8.72289e-08 0)
(4.28874e-07 1.74979e-07 0)
(5.0078e-07 2.75727e-07 0)
(5.78047e-07 3.87013e-07 0)
(3.6102e-08 -4.81221e-08 0)
(8.61844e-08 -9.24274e-08 0)
(1.3078e-07 -1.04549e-07 0)
(1.71679e-07 -9.15746e-08 0)
(2.13854e-07 -5.68808e-08 0)
(2.58685e-07 -3.08938e-09 0)
(3.07998e-07 6.75285e-08 0)
(3.62375e-07 1.52804e-07 0)
(4.22712e-07 2.51024e-07 0)
(4.88848e-07 3.59919e-07 0)
)
;

boundaryField
{
    left
    {
        type            fixedDisplacement;
        value           uniform (0 0 0);
    }
    right
    {
        type            solidTraction;
        tractionSeries  
{
        file            "$FOAM_CASE/constant/timeVsTraction";
        outOfBounds     clamp;
}
        pressure        uniform 0;
        secondOrder     false;
        setEffectiveTraction false;
        relaxationFactor 1;
        value           nonuniform List<vector> 
30
(
(6.54894e-06 4.78356e-06 2.19234e-21)
(6.39689e-06 4.72873e-06 2.20085e-21)
(6.24347e-06 4.67428e-06 2.24619e-21)
(6.08823e-06 4.61919e-06 2.33484e-21)
(5.93116e-06 4.56282e-06 2.4642e-21)
(5.77262e-06 4.50459e-06 2.63073e-21)
(5.61316e-06 4.44413e-06 2.82846e-21)
(5.45347e-06 4.38128e-06 3.05108e-21)
(5.29422e-06 4.31601e-06 3.29141e-21)
(5.13615e-06 4.24851e-06 3.54143e-21)
(4.98661e-06 4.18205e-06 3.71654e-21)
(4.8448e-06 4.1167e-06 3.78791e-21)
(4.70501e-06 4.05036e-06 3.83668e-21)
(4.56752e-06 3.98336e-06 3.86372e-21)
(4.43248e-06 3.91617e-06 3.86487e-21)
(4.29958e-06 3.84923e-06 3.84184e-21)
(4.16907e-06 3.78282e-06 3.79844e-21)
(4.04067e-06 3.7174e-06 3.73459e-21)
(3.91412e-06 3.65327e-06 3.65406e-21)
(3.78908e-06 3.59069e-06 3.56008e-21)
(3.66516e-06 3.52986e-06 3.45684e-21)
(3.54195e-06 3.4709e-06 3.3487e-21)
(3.419e-06 3.41384e-06 3.24058e-21)
(3.29589e-06 3.35866e-06 3.13738e-21)
(3.17219e-06 3.3052e-06 3.04408e-21)
(3.04755e-06 3.25324e-06 2.96497e-21)