/*--------------------------------*- C++ -*----------------------------------*\
  =========                 |
  \\      /  F ield         | OpenFOAM: The Open Source CFD Toolbox
   \\    /   O peration     | Website:  https://openfoam.org
    \\  /    A nd           | Version:  9
     \\/     M anipulation  |
\*---------------------------------------------------------------------------*/
FoamFile
{
    format      ascii;
    class       volSymmTensorField;
    location    "5";
    object      epsilon;
}
// * * * * * * * * * * * * * * * * * * * * * * * * * * * * * * * * * * * * * //

dimensions      [0 0 0 0 0 0 0];

internalField   nonuniform List<symmTensor> 
1000
(
(2.09941e-06 -2.72139e-06 2.54538e-19 4.3587e-07 2.79937e-19 7.6284e-34)
(2.90366e-06 -2.10139e-06 -4.34386e-21 -5.16143e-07 2.44793e-21 0)
(3.29735e-06 -1.61201e-06 5.06714e-21 -9.70326e-07 -9.77955e-22 0)
(3.51815e-06 -1.24186e-06 1.30078e-21 -1.28754e-06 -9.31935e-22 0)
(3.62454e-06 -9.43486e-07 -5.49803e-21 -1.46336e-06 4.05904e-22 0)
(3.66047e-06 -7.10083e-07 -5.9345e-22 -1.57525e-06 6.52761e-22 0)
(3.65645e-06 -5.20738e-07 -4.99591e-21 -1.6355e-06 -2.67816e-21 0)
(3.62334e-06 -3.70246e-07 3.42762e-21 -1.66582e-06 1.60016e-21 0)
(3.58029e-06 -2.45292e-07 -1.77183e-21 -1.67647e-06 -2.00675e-21 0)
(3.51764e-06 -1.4133e-07 0 -1.67758e-06 0 0)
(2.84291e-06 -3.03012e-06 2.63602e-19 1.30115e-07 3.39794e-19 4.59889e-35)
(3.46674e-06 -2.16971e-06 0 -7.16081e-07 0 0)
(3.7338e-06 -1.54883e-06 4.05418e-21 -1.09073e-06 1.93446e-21 0)
(3.8579e-06 -1.10193e-06 -6.95594e-21 -1.35525e-06 -3.71216e-21 0)
(3.88907e-06 -7.61616e-07 -2.95637e-21 -1.4887e-06 -1.7826e-21 0)
(3.8656e-06 -5.07357e-07 2.05911e-21 -1.57095e-06 2.09845e-21 0)
(3.81346e-06 -3.09048e-07 2.30415e-21 -1.60774e-06 1.54189e-21 0)
(3.74281e-06 -1.58357e-07 5.41539e-21 -1.6239e-06 3.1541e-21 0)
(3.66321e-06 -3.63728e-08 0 -1.6179e-06 0 0)
(3.57909e-06 6.12873e-08 0 -1.62027e-06 0 0)
(3.67739e-06 -3.22674e-06 2.62074e-19 -2.76315e-07 3.9222e-19 0)
(4.05009e-06 -2.16698e-06 0 -9.4277e-07 0 0)
(4.15224e-06 -1.43951e-06 3.86233e-21 -1.19752e-06 1.99971e-21 0)
(4.15654e-06 -9.3334e-07 -1.15915e-21 -1.38507e-06 4.15638e-22 0)
(4.09898e-06 -5.63629e-07 -5.67151e-23 -1.46199e-06 2.56212e-23 0)
(4.00803e-06 -2.97446e-07 -1.91897e-21 -1.5063e-06 -1.98696e-21 0)
(3.90346e-06 -9.77754e-08 2.61691e-21 -1.51461e-06 1.20561e-21 0)
(3.79215e-06 4.7993e-08 -1.94435e-21 -1.51288e-06 -1.43295e-21 0)
(3.6791e-06 1.61115e-07 -1.54773e-22 -1.49146e-06 2.7272e-22 0)
(3.57018e-06 2.53034e-07 -4.09642e-22 -1.48938e-06 -1.75081e-22 0)
(4.57134e-06 -3.28171e-06 2.33482e-19 -7.6013e-07 4.20957e-19 -2.68978e-35)
(4.63955e-06 -2.08391e-06 2.21479e-21 -1.18761e-06 -2.38068e-22 0)
(4.54642e-06 -1.28687e-06 -1.76441e-21 -1.28848e-06 -9.9877e-22 0)
(4.41185e-06 -7.44509e-07 -1.11872e-21 -1.37869e-06 2.24548e-22 0)
(4.2543e-06 -3.61379e-07 2.00169e-21 -1.38773e-06 1.9416e-21 0)
(4.09022e-06 -9.45591e-08 -2.40924e-21 -1.38836e-06 -1.59205e-21 0)
(3.93101e-06 9.8061e-08 -2.08148e-21 -1.36654e-06 -1.47929e-21 0)
(3.77976e-06 2.33543e-07 -4.63892e-21 -1.34672e-06 -3.38636e-21 0)
(3.63544e-06 3.3312e-07 -6.67029e-22 -1.31287e-06 -8.14521e-22 0)
(3.50489e-06 4.14293e-07 1.13718e-21 -1.30511e-06 1.00363e-21 0)
(5.4822e-06 -3.16741e-06 1.81718e-19 -1.2912e-06 3.9648e-19 -4.63261e-34)
(5.21559e-06 -1.91078e-06 1.15725e-25 -1.43812e-06 4.9793e-27 0)
(4.90649e-06 -1.08902e-06 -5.71055e-21 -1.35931e-06 -2.80365e-21 0)
(4.61926e-06 -5.39505e-07 5.19357e-22 -1.3364e-06 -2.43715e-23 0)
(4.35411e-06 -1.63986e-07 -7.27302e-22 -1.2689e-06 8.56028e-23 0)
(4.11402e-06 8.86844e-08 1.73473e-21 -1.22233e-06 1.60909e-21 0)
(3.90064e-06 2.6352e-07 -1.93661e-22 -1.1702e-06 6.14871e-23 0)
(3.71122e-06 3.81393e-07 1.82913e-21 -1.13361e-06 1.21748e-21 0)
(3.54001e-06 4.62552e-07 -4.00907e-22 -1.09142e-06 -8.60568e-22 0)
(3.39107e-06 5.28859e-07 -7.23911e-22 -1.07953e-06 -5.83401e-22 0)
(6.3755e-06 -2.88152e-06 1.21816e-19 -1.83163e-06 3.40476e-19 -4.44609e-34)
(5.76405e-06 -1.64153e-06 1.05413e-25 -1.67766e-06 2.17424e-26 0)
(5.22615e-06 -8.4379e-07 -5.70649e-26 -1.40131e-06 -8.35767e-27 0)
(4.7773e-06 -3.22944e-07 4.58824e-22 -1.25607e-06 5.08256e-23 0)
(4.40087e-06 1.94556e-08 -2.46943e-21 -1.10879e-06 -1.5023e-21 0)
(4.08549e-06 2.40421e-07 2.81262e-23 -1.01606e-06 -8.76137e-25 0)
(3.82115e-06 3.86191e-07 1.83777e-21 -9.37226e-07 1.24293e-21 0)
(3.59794e-06 4.79569e-07 3.90841e-21 -8.87756e-07 2.85735e-21 0)
(3.40491e-06 5.37902e-07 7.07819e-22 -8.4182e-07 5.18474e-22 0)
(3.24162e-06 5.85417e-07 -1.23701e-21 -8.27912e-07 -9.74362e-22 0)
(7.19041e-06 -2.40694e-06 8.02213e-20 -2.33771e-06 2.64106e-19 -8.35896e-34)
(6.25248e-06 -1.25638e-06 1.65077e-21 -1.88096e-06 6.53986e-22 0)
(5.47796e-06 -5.44337e-07 1.74686e-21 -1.39478e-06 7.93331e-22 0)
(4.86778e-06 -9.75916e-08 -3.76908e-22 -1.12797e-06 -1.06534e-22 0)
(4.38637e-06 1.79995e-07 1.78442e-21 -9.07682e-07 1.20555e-21 0)
(4.00491e-06 3.49103e-07 -1.64278e-21 -7.78018e-07 -1.14035e-21 0)
(3.69919e-06 4.53984e-07 4.64667e-22 -6.81731e-07 9.53056e-24 0)
(3.45078e-06 5.15904e-07 -1.4664e-21 -6.26211e-07 -9.60809e-22 0)
(3.24369e-06 5.48774e-07 -9.95009e-23 -5.82542e-07 2.02586e-23 0)
(3.07113e-06 5.76067e-07 -7.42192e-22 -5.69815e-07 -4.81235e-22 0)
(7.94979e-06 -1.74306e-06 4.20758e-20 -2.7714e-06 1.68398e-19 -2.68133e-35)
(6.66322e-06 -7.36769e-07 -4.40771e-21 -1.99717e-06 -1.57839e-21 0)
(5.64413e-06 -1.86946e-07 3.40747e-23 -1.29973e-06 1.82896e-23 0)
(4.88628e-06 1.23433e-07 5.50616e-22 -9.34119e-07 2.67509e-22 0)
(4.31716e-06 3.00473e-07 4.0798e-21 -6.65683e-07 2.03371e-21 0)
(3.88788e-06 3.99093e-07 -2.40614e-22 -5.20632e-07 -6.55368e-23 0)
(3.5562e-06 4.5522e-07 5.96167e-27 -4.22871e-07 8.65442e-28 0)
(3.2944e-06 4.8383e-07 -1.43411e-21 -3.71973e-07 -7.52658e-22 0)
(3.08168e-06 4.93552e-07 3.41245e-23 -3.37601e-07 -1.80671e-24 0)
(2.90529e-06 5.02759e-07 1.06765e-22 -3.29436e-07 5.00183e-23 0)
(8.52896e-06 -8.10763e-07 1.149e-20 -3.02108e-06 6.21287e-20 1.44809e-34)
(6.86088e-06 -8.23939e-08 -4.84999e-21 -1.894e-06 -2.01151e-21 0)
(5.6139e-06 1.80049e-07 5.04704e-22 -1.0312e-06 4.22466e-22 0)
(4.76383e-06 2.8067e-07 4.75347e-22 -6.38194e-07 3.61847e-22 0)
(4.16574e-06 3.33259e-07 -1.98957e-22 -3.84798e-07 -1.13068e-22 0)
(3.73004e-06 3.53477e-07 1.59096e-21 -2.63771e-07 5.83909e-22 0)
(3.40103e-06 3.64458e-07 8.62008e-23 -1.89235e-07 2.03262e-23 0)
(3.14302e-06 3.66496e-07 2.56653e-21 -1.56111e-07 9.86005e-22 0)
(2.93482e-06 3.61764e-07 5.66799e-22 -1.37064e-07 2.20554e-22 0)
(2.75984e-06 3.59757e-07 3.18853e-22 -1.35585e-07 1.35275e-22 0)
(9.03531e-06 7.30048e-07 9.92801e-22 -2.77972e-06 -4.01587e-20 -1.77578e-34)
(6.68908e-06 7.99623e-07 -3.67363e-22 -1.24223e-06 -6.35052e-22 0)
(5.38429e-06 5.26088e-07 1.68656e-21 -5.16341e-07 7.007e-22 0)
(4.56876e-06 3.43259e-07 8.66388e-23 -2.50977e-07 1.17079e-22 0)
(4.01974e-06 2.74648e-07 2.96566e-27 -1.15943e-07 2.57391e-27 0)
(3.61499e-06 2.37863e-07 1.61537e-21 -6.20688e-08 2.93597e-22 0)
(3.30778e-06 2.26315e-07 2.48941e-23 -3.38e-08 5.07984e-24 0)
(3.06123e-06 2.20196e-07 1.23832e-21 -2.46813e-08 2.39526e-22 0)
(2.85974e-06 2.15289e-07 -1.34793e-23 -2.09196e-08 7.58651e-25 0)
(2.68553e-06 2.12115e-07 -2.07027e-23 -2.3e-08 -3.6747e-24 0)
(1.27548e-09 8.72563e-09 3.24727e-20 -6.97819e-09 2.24954e-20 1.64686e-34)
(1.93969e-08 -2.03101e-08 -8.8973e-23 -7.50322e-09 2.00058e-20 1.52697e-36)
(1.13513e-07 -6.97177e-08 -1.18444e-21 -5.31962e-08 1.63162e-20 1.90418e-35)
(2.6319e-07 -1.09682e-07 -2.11689e-24 -1.21655e-07 1.75515e-20 0)
(4.3604e-07 -1.34647e-07 -1.62955e-22 -1.97819e-07 1.56115e-20 -1.52495e-36)
(6.17078e-07 -1.49083e-07 -1.61863e-21 -2.76195e-07 1.72501e-20 3.18261e-35)
(7.94087e-07 -1.55044e-07 3.66507e-22 -3.51866e-07 1.9109e-20 1.51799e-36)
(9.6299e-07 -1.55928e-07 -1.07135e-21 -4.23331e-07 1.79261e-20 2.88049e-35)
(1.11799e-06 -1.52193e-07 8.68539e-22 -4.89102e-07 1.82395e-20 -1.2476e-35)
(1.26163e-06 -1.49325e-07 1.81692e-21 -5.48294e-07 1.77325e-20 -3.7557e-35)
(2.83313e-08 -2.15305e-08 3.34014e-20 -1.41758e-08 5.37359e-21 4.50013e-35)
(1.21369e-07 -1.29178e-07 1.30912e-21 -5.28292e-09 1.43658e-21 0)
(2.93022e-07 -2.4975e-07 -1.22504e-21 -7.67412e-08 -1.23078e-21 0)
(4.84677e-07 -3.42557e-07 9.73395e-24 -1.73771e-07 -1.01763e-21 0)
(6.77032e-07 -4.00151e-07 0 -2.70568e-07 0 0)
(8.59558e-07 -4.32784e-07 -1.85503e-21 -3.61645e-07 -2.77095e-22 0)
(1.02769e-06 -4.45055e-07 3.16935e-22 -4.43483e-07 1.59371e-21 0)
(1.18222e-06 -4.44988e-07 2.35903e-23 -5.16569e-07 8.56693e-23 0)
(1.31834e-06 -4.33277e-07 -1.00833e-21 -5.80722e-07 -2.89362e-21 0)
(1.44477e-06 -4.23929e-07 7.32066e-22 -6.35149e-07 1.14619e-22 0)
(3.82884e-08 -1.16441e-07 3.54527e-20 2.8737e-08 7.01176e-21 -2.00103e-36)
(2.17571e-07 -3.27675e-07 1.33855e-21 7.82958e-09 1.41919e-21 0)
(4.60653e-07 -4.77391e-07 1.39828e-21 -1.03552e-07 2.93927e-22 0)
(7.00008e-07 -5.78404e-07 6.97334e-23 -2.4266e-07 -9.81321e-22 0)
(9.20299e-07 -6.3469e-07 0 -3.71077e-07 0 0)
(1.11409e-06 -6.61702e-07 -2.07743e-21 -4.83603e-07 -5.43856e-22 0)
(1.28228e-06 -6.65889e-07 -2.83363e-21 -5.78005e-07 -7.95566e-22 0)
(1.43015e-06 -6.56135e-07 1.87651e-21 -6.5736e-07 1.14505e-21 0)
(1.55299e-06 -6.33678e-07 1.14913e-23 -7.21971e-07 3.64476e-23 0)
(1.66763e-06 -6.14759e-07 -1.68791e-21 -7.74382e-07 -1.06375e-21 0)
(5.28518e-08 -2.65488e-07 4.47884e-20 1.3241e-07 1.12429e-20 -3.81778e-35)
(3.49526e-07 -5.66194e-07 3.27453e-22 2.14674e-08 -1.19129e-21 0)
(6.5893e-07 -7.24067e-07 1.53681e-21 -1.40175e-07 3.01442e-22 0)
(9.41503e-07 -8.13344e-07 0 -3.20585e-07 0 0)
(1.18623e-06 -8.51183e-07 -2.61584e-21 -4.77813e-07 9.71764e-22 0)
(1.39084e-06 -8.59225e-07 3.79878e-23 -6.10706e-07 2.40988e-21 0)
(1.56e-06 -8.45746e-07 -1.34001e-22 -7.17916e-07 -1.29349e-21 0)
(1.70291e-06 -8.19612e-07 -3.81284e-22 -8.04722e-07 -1.99497e-21 0)
(1.81425e-06 -7.82728e-07 8.55966e-22 -8.71679e-07 2.78234e-22 0)
(1.91917e-06 -7.51492e-07 1.59807e-21 -9.24195e-07 5.99709e-22 0)
(9.17629e-08 -4.76523e-07 4.72104e-20 2.77408e-07 2.04398e-20 1.00143e-34)
(5.35664e-07 -8.26077e-07 -2.69457e-21 1.90318e-08 1.80959e-21 0)
(9.116e-07 -9.68709e-07 -1.63691e-21 -2.108e-07 -4.82533e-22 0)
(1.23093e-06 -1.02898e-06 -4.37814e-22 -4.35948e-07 1.76959e-21 0)
(1.49183e-06 -1.03451e-06 -1.70635e-23 -6.19221e-07 1.09049e-22 0)
(1.70051e-06 -1.01302e-06 2.52104e-21 -7.68388e-07 -6.72032e-22 0)
(1.86557e-06 -9.74237e-07 1.09981e-21 -8.84373e-07 2.89522e-22 0)
(1.99979e-06 -9.26224e-07 0 -9.75143e-07 0 0)
(2.09741e-06 -8.71979e-07 -1.1784e-21 -1.04173e-06 -1.53898e-21 0)
(2.19089e-06 -8.25756e-07 4.68405e-22 -1.09227e-06 1.14296e-22 0)
(1.78158e-07 -7.54655e-07 6.87244e-20 4.4124e-07 2.98329e-20 -1.50725e-34)
(7.82356e-07 -1.08966e-06 1.09804e-21 -2.73608e-10 -2.14887e-21 0)
(1.22117e-06 -1.18894e-06 -1.35392e-21 -3.07773e-07 -1.45948e-21 0)
(1.56803e-06 -1.20524e-06 2.95478e-22 -5.76568e-07 -8.23924e-22 0)
(1.83501e-06 -1.16976e-06 2.86142e-21 -7.80524e-07 9.5841e-22 0)
(2.03891e-06 -1.11345e-06 -2.75779e-21 -9.40056e-07 3.0244e-22 0)
(2.19293e-06 -1.04612e-06 -2.94673e-24 -1.05964e-06 7.29496e-23 0)
(2.3129e-06 -9.74284e-07 -2.1531e-21 -1.15006e-06 -1.47809e-21 0)
(2.39328e-06 -9.02128e-07 4.60105e-24 -1.21352e-06 2.85863e-23 0)
(2.47198e-06 -8.40107e-07 -2.34977e-21 -1.2596e-06 -1.07298e-21 0)
(3.38012e-07 -1.09722e-06 1.07473e-19 5.89309e-07 5.7925e-20 -1.6097e-34)
(1.09167e-06 -1.34631e-06 6.08505e-23 -4.32288e-08 -9.24711e-23 0)
(1.58193e-06 -1.37155e-06 -4.45568e-26 -4.28283e-07 7.62605e-26 0)
(1.94396e-06 -1.32899e-06 -2.92532e-21 -7.3663e-07 -2.04825e-21 0)
(2.20579e-06 -1.24559e-06 -4.93441e-22 -9.55124e-07 1.32363e-21 0)
(2.39524e-06 -1.1516e-06 -2.68006e-21 -1.11893e-06 -1.09047e-21 0)
(2.53067e-06 -1.05492e-06 4.81875e-21 -1.23658e-06 2.14646e-21 0)
(2.63004e-06 -9.59636e-07 -4.50902e-25 -1.32203e-06 5.72304e-23 0)
(2.68934e-06 -8.70767e-07 9.47433e-22 -1.379e-06 -1.35384e-24 0)
(2.74894e-06 -7.93424e-07 -1.28556e-21 -1.41793e-06 -6.11298e-22 0)
(5.95457e-07 -1.49179e-06 1.55893e-19 6.8896e-07 9.82571e-20 -3.27305e-34)
(1.46251e-06 -1.58593e-06 1.56872e-21 -1.12726e-07 -1.87977e-21 0)
(1.98244e-06 -1.50773e-06 -6.05303e-22 -5.61891e-07 8.07929e-22 0)
(2.34306e-06 -1.39306e-06 3.6984e-22 -8.99827e-07 -5.76979e-22 0)
(2.58738e-06 -1.25707e-06 3.29529e-26 -1.12473e-06 -6.47274e-26 0)
(2.75269e-06 -1.12494e-06 3.10918e-21 -1.28616e-06 2.66366e-22 0)
(2.86242e-06 -1.0003e-06 2.31354e-22 -1.39694e-06 -1.00779e-21 0)
(2.9353e-06 -8.8405e-07 -7.60744e-23 -1.47323e-06 8.28554e-22 0)
(2.97074e-06 -7.81292e-07 1.18648e-23 -1.5222e-06 4.13387e-22 0)
(3.00678e-06 -6.90677e-07 9.83728e-22 -1.55115e-06 9.13734e-22 0)
(9.6964e-07 -1.91541e-06 1.95387e-19 7.0954e-07 1.54292e-19 4.48474e-34)
(1.8922e-06 -1.79869e-06 -5.04204e-22 -2.1356e-07 3.44972e-21 0)
(2.41039e-06 -1.59345e-06 -5.85673e-26 -7.01504e-07 6.14932e-26 0)
(2.74894e-06 -1.3967e-06 4.02389e-21 -1.05367e-06 9.45793e-22 0)
(2.96203e-06 -1.20563e-06 3.07482e-21 -1.27461e-06 1.53371e-21 0)
(3.09325e-06 -1.03657e-06 2.77432e-21 -1.42691e-06 1.38361e-21 0)
(3.17058e-06 -8.86489e-07 -3.01328e-22 -1.52566e-06 8.66426e-22 0)
(3.21182e-06 -7.53411e-07 -3.34083e-21 -1.59003e-06 -1.86301e-21 0)
(3.2215e-06 -6.4019e-07 2.04926e-21 -1.62853e-06 4.87844e-22 0)
(3.23129e-06 -5.38937e-07 9.19961e-22 -1.65014e-06 5.45329e-22 0)
(1.47105e-06 -2.33748e-06 2.28859e-19 6.29196e-07 2.12007e-19 6.59863e-35)
(2.37516e-06 -1.97429e-06 -1.01871e-21 -3.47739e-07 7.54959e-22 0)
(2.85243e-06 -1.62795e-06 -1.97619e-21 -8.39286e-07 -9.22213e-22 0)
(3.14462e-06 -1.3441e-06 8.56138e-21 -1.18537e-06 2.00615e-21 0)
(3.31141e-06 -1.09779e-06 5.23405e-23 -1.39027e-06 -5.94788e-23 0)
(3.39897e-06 -8.93957e-07 -2.72798e-21 -1.5258e-06 -1.54665e-21 0)
(3.43748e-06 -7.22568e-07 -2.91991e-21 -1.6079e-06 -4.61902e-22 0)
(3.44214e-06 -5.7811e-07 -1.10124e-21 -1.65554e-06 -6.57289e-22 0)
(3.42709e-06 -4.61096e-07 1.18731e-22 -1.68615e-06 -9.06239e-22 0)
(3.40212e-06 -3.597e-07 5.54301e-22 -1.68818e-06 1.14637e-21 0)
(1.39098e-06 -1.38909e-07 1.83227e-21 -6.0333e-07 1.88561e-20 -1.1159e-35)
(1.50372e-06 -1.24334e-07 1.70895e-21 -6.49155e-07 1.75697e-20 -2.44807e-35)
(1.60733e-06 -1.11638e-07 -1.83074e-22 -6.91689e-07 1.53356e-20 -1.42588e-35)
(1.70049e-06 -1.00109e-07 1.56116e-22 -7.30176e-07 1.6509e-20 -6.24878e-37)
(1.78455e-06 -8.94086e-08 -8.72162e-22 -7.64807e-07 1.66482e-20 3.70651e-35)
(1.85988e-06 -7.98226e-08 5.64841e-22 -7.96021e-07 1.71064e-20 0)
(1.9274e-06 -7.10273e-08 5.31944e-22 -8.23955e-07 1.70712e-20 0)
(1.98759e-06 -6.30894e-08 1.05242e-21 -8.48945e-07 1.77121e-20 4.79945e-37)
(2.04114e-06 -5.58082e-08 9.54131e-22 -8.71184e-07 1.719e-20 -1.25337e-35)
(2.08845e-06 -4.91334e-08 1.59516e-21 -8.90887e-07 1.83436e-20 8.12476e-37)
(2.13001e-06 -4.29199e-08 1.87875e-21 -9.08218e-07 1.75168e-20 -3.79004e-35)
(2.16609e-06 -3.70786e-08 -1.32242e-22 -9.2331e-07 1.6741e-20 1.26858e-35)
(2.19697e-06 -3.14959e-08 1.83231e-21 -9.36262e-07 1.74837e-20 -3.82196e-35)
(2.22279e-06 -2.60893e-08 -1.56037e-21 -9.47147e-07 1.47665e-20 -7.66986e-37)
(2.24364e-06 -2.0792e-08 3.7671e-22 -9.55996e-07 1.73961e-20 1.30704e-35)
(2.25963e-06 -1.55964e-08 2.26294e-22 -9.62846e-07 1.68598e-20 -3.09276e-45)
(2.27071e-06 -1.0576e-08 -4.41104e-22 -9.67679e-07 1.61175e-20 -1.39491e-37)
(2.27731e-06 -6.0194e-09 7.89374e-22 -9.70572e-07 1.75771e-20 1.00067e-37)
(2.27939e-06 -2.51815e-09 4.22905e-22 -9.71421e-07 1.59278e-20 -3.94319e-35)
(2.27862e-06 -1.69786e-09 1.79925e-20 -9.70046e-07 1.4285e-20 -4.3066e-35)
(1.54874e-06 -3.95247e-07 1.79843e-21 -6.84117e-07 2.1949e-21 0)
(1.63212e-06 -3.56241e-07 1.16107e-21 -7.18926e-07 3.18936e-22 0)
(1.71191e-06 -3.21807e-07 8.46159e-23 -7.50947e-07 -5.00085e-22 0)
(1.78348e-06 -2.8966e-07 2.64473e-21 -7.80327e-07 2.36941e-21 0)
(1.84942e-06 -2.59503e-07 -5.06425e-22 -8.06541e-07 -1.2013e-22 0)
(1.90896e-06 -2.32231e-07 -2.15808e-21 -8.30607e-07 -2.17114e-21 0)
(1.9632e-06 -2.06974e-07 1.0964e-21 -8.52206e-07 4.05688e-22 0)
(2.01204e-06 -1.8402e-07 0 -8.71842e-07 0 0)
(2.05614e-06 -1.62833e-07 5.22346e-22 -8.89503e-07 1.85054e-22 0)
(2.09559e-06 -1.43329e-07 1.07413e-21 -9.05421e-07 4.13799e-22 0)
(2.13079e-06 -1.25142e-07 3.22413e-21 -9.19665e-07 1.66164e-21 0)
(2.16192e-06 -1.08061e-07 1.46072e-23 -9.32348e-07 1.65682e-23 0)
(2.18918e-06 -9.18091e-08 4.15096e-22 -9.4352e-07 -3.22793e-22 0)
(2.21274e-06 -7.61963e-08 6.17749e-22 -9.53213e-07 7.01335e-22 0)
(2.23268e-06 -6.10703e-08 6.3373e-22 -9.614e-07 7.21444e-22 0)
(2.24912e-06 -4.64276e-08 -6.27775e-22 -9.67989e-07 -7.18375e-22 0)
(2.26196e-06 -3.24404e-08 -6.31315e-22 -9.72752e-07 -7.26566e-22 0)
(2.27136e-06 -1.9719e-08 -1.26781e-21 -9.75284e-07 -1.46774e-21 0)
(2.27654e-06 -9.15608e-09 -9.58833e-24 -9.74647e-07 -1.0426e-23 0)
(2.27779e-06 -3.53085e-09 2.05364e-20 -9.69317e-07 1.09625e-21 4.62237e-35)
(1.74759e-06 -5.71689e-07 4.92767e-22 -8.14659e-07 6.68241e-22 0)
(1.79992e-06 -5.18496e-07 6.6933e-22 -8.35168e-07 2.38963e-22 0)
(1.85417e-06 -4.70656e-07 -1.56134e-21 -8.52241e-07 -1.94906e-21 0)
(1.90168e-06 -4.26219e-07 -1.37458e-22 -8.68418e-07 3.54588e-22 0)
(1.94728e-06 -3.83837e-07 2.84248e-21 -8.82181e-07 2.35214e-21 0)
(1.98861e-06 -3.45328e-07 -2.25922e-21 -8.95364e-07 -2.14163e-21 0)
(2.02738e-06 -3.09276e-07 -6.02062e-22 -9.07238e-07 -6.91299e-22 0)
(2.06275e-06 -2.76311e-07 1.15057e-21 -9.1846e-07 1.29769e-21 0)
(2.09546e-06 -2.45692e-07 4.86213e-25 -9.28864e-07 -8.40601e-22 0)
(2.12528e-06 -2.17408e-07 -1.21737e-21 -9.38654e-07 -1.35782e-21 0)
(2.15254e-06 -1.91001e-07 1.16648e-21 -9.47818e-07 1.2966e-21 0)
(2.17724e-06 -1.66247e-07 1.80245e-21 -9.56408e-07 2.00493e-21 0)
(2.19953e-06 -1.42812e-07 1.37896e-23 -9.64402e-07 1.50848e-23 0)
(2.21947e-06 -1.20465e-07 -6.17146e-22 -9.71748e-07 -6.90634e-22 0)
(2.23708e-06 -9.89982e-08 6.1093e-22 -9.78295e-07 6.87891e-22 0)
(2.25236e-06 -7.83354e-08 9.00435e-29 -9.83761e-07 9.95705e-29 0)
(2.26499e-06 -5.85242e-08 -6.2941e-22 -9.87591e-07 -7.17785e-22 0)
(2.27481e-06 -3.98712e-08 8.767e-23 -9.88893e-07 5.1803e-22 0)
(2.28018e-06 -2.29164e-08 -2.05733e-21 -9.85795e-07 -2.66382e-22 0)
(2.28102e-06 -8.42286e-09 2.10881e-20 -9.76213e-07 3.01528e-22 3.48131e-38)
(1.9756e-06 -6.96286e-07 0 -9.56621e-07 0 0)
(1.99581e-06 -6.35363e-07 7.16131e-22 -9.64059e-07 2.61069e-22 0)
(2.02425e-06 -5.79009e-07 5.6234e-22 -9.67038e-07 6.3736e-22 0)
(2.04669e-06 -5.27595e-07 6.17167e-22 -9.70924e-07 7.08435e-22 0)
(2.07094e-06 -4.77495e-07 0 -9.72558e-07 0 0)
(2.09268e-06 -4.31969e-07 8.13478e-23 -9.74946e-07 -3.56214e-22 0)
(2.11462e-06 -3.88817e-07 -1.84212e-21 -9.76922e-07 -1.12671e-21 0)
(2.13506e-06 -3.49168e-07 -1.17816e-21 -9.79377e-07 -1.26986e-21 0)
(2.15497e-06 -3.12085e-07 -6.60294e-22 -9.82045e-07 -3.04288e-22 0)
(2.17373e-06 -2.77697e-07 2.68163e-25 -9.85124e-07 8.10045e-22 0)
(2.19166e-06 -2.45509e-07 -5.78437e-22 -9.88549e-07 1.76462e-22 0)
(2.20854e-06 -2.1532e-07 1.21445e-21 -9.92315e-07 5.20405e-22 0)
(2.22445e-06 -1.86776e-07 1.15054e-21 -9.96336e-07 5.95798e-23 0)
(2.23932e-06 -1.59617e-07 3.02793e-23 -1.00047e-06 4.33649e-22 0)
(2.25302e-06 -1.33584e-07 5.20605e-23 -1.00447e-06 4.59886e-22 0)
(2.26544e-06 -1.08477e-07 -6.22346e-22 -1.00792e-06 -6.95268e-22 0)
(2.276e-06 -8.41656e-08 -1.32908e-28 -1.01007e-06 -1.4859e-28 0)
(2.28444e-06 -6.04811e-08 1.32931e-21 -1.00986e-06 1.93272e-21 0)
(2.28866e-06 -3.7596e-08 -6.97193e-23 -1.00521e-06 -5.0804e-22 0)
(2.28879e-06 -1.38488e-08 1.87059e-20 -9.93998e-07 -2.19732e-21 -6.91606e-35)
(2.22283e-06 -7.61052e-07 5.8043e-23 -1.11465e-06 8.88427e-22 0)
(2.20976e-06 -6.99905e-07 -7.78764e-22 -1.10878e-06 -3.40038e-22 0)
(2.21229e-06 -6.40044e-07 -1.96118e-21 -1.09655e-06 -1.58859e-21 0)
(2.20903e-06 -5.87348e-07 1.29036e-21 -1.08769e-06 8.7416e-22 0)
(2.2116e-06 -5.34349e-07 3.35728e-21 -1.0765e-06 2.19522e-21 0)
(2.21303e-06 -4.86396e-07 -6.17648e-22 -1.06731e-06 -6.40411e-22 0)
(2.21742e-06 -4.40249e-07 0 -1.05856e-06 0 0)
(2.22204e-06 -3.97616e-07 6.01396e-22 -1.05132e-06 6.20917e-22 0)
(2.22821e-06 -3.57411e-07 -1.93021e-21 -1.04532e-06 -8.24158e-22 0)
(2.2349e-06 -3.19923e-07 -1.25373e-21 -1.04075e-06 -9.19254e-22 0)
(2.24243e-06 -2.84685e-07 6.67449e-23 -1.03752e-06 -7.06359e-22 0)
(2.2504e-06 -2.51545e-07 -6.3444e-22 -1.0356e-06 -1.06063e-21 0)
(2.2588e-06 -2.20166e-07 -5.88595e-23 -1.03484e-06 1.11219e-21 0)
(2.26741e-06 -1.90267e-07 1.23849e-21 -1.03506e-06 1.72956e-21 0)
(2.276e-06 -1.61531e-07 6.00203e-22 -1.03592e-06 2.55657e-22 0)
(2.28435e-06 -1.33601e-07 -2.46431e-23 -1.03696e-06 -4.30796e-22 0)
(2.29177e-06 -1.06156e-07 1.16314e-21 -1.03735e-06 4.78052e-22 0)
(2.29791e-06 -7.85017e-08 5.72001e-22 -1.03606e-06 2.2941e-22 0)
(2.30065e-06 -5.05965e-08 2.35178e-21 -1.03111e-06 1.84911e-21 0)
(2.30028e-06 -1.87468e-08 2.38828e-20 -1.02059e-06 2.48204e-21 7.09826e-35)
(2.47859e-06 -7.69243e-07 4.60861e-22 -1.27105e-06 6.27302e-22 0)
(2.43194e-06 -7.15823e-07 1.1128e-23 -1.2539e-06 2.40504e-23 0)
(2.40937e-06 -6.57263e-07 -1.41766e-21 -1.22737e-06 -9.77838e-22 0)
(2.38046e-06 -6.08474e-07 -3.40494e-21 -1.20681e-06 -2.53417e-21 0)
(2.36177e-06 -5.569e-07 1.32976e-21 -1.18382e-06 9.01597e-22 0)
(2.34294e-06 -5.10419e-07 1.25296e-21 -1.16367e-06 1.23422e-21 0)
(2.32975e-06 -4.64864e-07 -6.1384e-22 -1.14477e-06 -6.05585e-22 0)
(2.31834e-06 -4.22426e-07 -9.71122e-23 -1.12811e-06 2.69977e-22 0)
(2.31039e-06 -3.8203e-07 2.6884e-21 -1.11356e-06 1.59559e-21 0)
(2.3045e-06 -3.4406e-07 -1.7998e-21 -1.10124e-06 -1.82228e-21 0)
(2.30098e-06 -3.08154e-07 -6.40187e-22 -1.09113e-06 -6.5634e-22 0)
(2.29929e-06 -2.74202e-07 1.74333e-21 -1.08315e-06 2.55641e-21 0)
(2.29933e-06 -2.41921e-07 -2.53444e-21 -1.07719e-06 -7.57122e-22 0)
(2.30079e-06 -2.11021e-07 -1.81192e-21 -1.07305e-06 -1.92172e-21 0)
(2.30339e-06 -1.81156e-07 2.78866e-24 -1.07041e-06 -3.87166e-22 0)
(2.30681e-06 -1.51833e-07 -2.43804e-21 -1.06883e-06 -1.85658e-21 0)
(2.31038e-06 -1.22584e-07 -1.77595e-23 -1.06759e-06 -1.65986e-23 0)
(2.31373e-06 -9.2267e-08 2.39777e-21 -1.0658e-06 2.27871e-21 0)
(2.31511e-06 -6.07279e-08 3.96158e-23 -1.06188e-06 4.69534e-22 0)
(2.31466e-06 -2.27103e-08 2.48053e-20 -1.05422e-06 1.01549e-21 -5.36298e-37)
(2.73035e-06 -7.20737e-07 -4.82812e-22 -1.41752e-06 -6.13919e-22 0)
(2.65164e-06 -6.83613e-07 6.6637e-22 -1.39239e-06 6.04201e-22 0)
(2.60643e-06 -6.3143e-07 8.21479e-22 -1.3541e-06 4.28223e-22 0)
(2.55313e-06 -5.91516e-07 -6.50181e-22 -1.32333e-06 -6.05188e-22 0)
(2.51444e-06 -5.45995e-07 -1.5378e-21 -1.29023e-06 -7.66805e-22 0)
(2.47619e-06 -5.04709e-07 7.5067e-22 -1.25986e-06 3.72662e-22 0)
(2.44586e-06 -4.63251e-07 2.12551e-21 -1.2314e-06 1.36166e-21 0)
(2.41874e-06 -4.23892e-07 -3.41971e-21 -1.20558e-06 -2.28521e-21 0)
(2.39669e-06 -3.85913e-07 -2.10907e-21 -1.18261e-06 -1.38299e-21 0)
(2.37817e-06 -3.49735e-07 3.31017e-21 -1.16257e-06 2.23104e-21 0)
(2.3634e-06 -3.1522e-07 -1.34891e-21 -1.14552e-06 -6.44133e-22 0)
(2.35174e-06 -2.8232e-07 1.79066e-21 -1.13141e-06 1.82031e-21 0)
(2.34302e-06 -2.50852e-07 1.92532e-21 -1.12014e-06 1.24923e-21 0)
(2.33688e-06 -2.2054e-07 -1.12676e-21 -1.11154e-06 -1.55388e-21 0)
(2.33299e-06 -1.91033e-07 -7.29975e-22 -1.10536e-06 3.74584e-22 0)
(2.331e-06 -1.61746e-07 3.47752e-23 -1.10125e-06 3.18843e-23 0)
(2.33038e-06 -1.32111e-07 -2.97211e-21 -1.09866e-06 -2.46029e-21 0)
(2.33071e-06 -1.0066e-07 5.90786e-22 -1.09695e-06 6.59115e-22 0)
(2.3309e-06 -6.71989e-08 1.16948e-21 -1.09509e-06 9.10907e-22 0)
(2.33071e-06 -2.54423e-08 2.55051e-20 -1.09189e-06 8.72937e-22 -2.29811e-37)
(2.96487e-06 -6.18978e-07 5.82641e-24 -1.54127e-06 1.95215e-23 0)
(2.85791e-06 -6.06561e-07 -6.88852e-22 -1.51216e-06 -6.01999e-22 0)
(2.79387e-06 -5.66244e-07 1.4679e-22 -1.46717e-06 -1.57931e-22 0)
(2.7189e-06 -5.3854e-07 0 -1.42814e-06 0 0)
(2.66227e-06 -5.03239e-07 0 -1.38818e-06 0 0)
(2.60688e-06 -4.70076e-07 -2.06205e-21 -1.34998e-06 -1.60477e-21 0)
(2.56076e-06 -4.35939e-07 1.83548e-21 -1.3141e-06 1.69864e-21 0)
(2.51917e-06 -4.02463e-07 3.86862e-21 -1.28073e-06 3.35034e-21 0)
(2.4837e-06 -3.69533e-07 -2.92697e-21 -1.25042e-06 -2.78955e-21 0)
(2.45298e-06 -3.37478e-07 -2.56281e-21 -1.2233e-06 -2.16793e-21 0)
(2.42707e-06 -3.06412e-07 1.18237e-21 -1.19961e-06 1.16684e-21 0)
(2.40542e-06 -2.76374e-07 -1.14434e-22 -1.1794e-06 2.29784e-22 0)
(2.38778e-06 -2.47313e-07 2.01949e-21 -1.1627e-06 9.96431e-22 0)
(2.37378e-06 -2.19021e-07 3.14759e-21 -1.14946e-06 2.16752e-21 0)
(2.36312e-06 -1.912e-07 4.29935e-23 -1.13957e-06 3.90365e-23 0)
(2.35545e-06 -1.63242e-07 1.42699e-21 -1.13283e-06 -3.83207e-22 0)
(2.35046e-06 -1.34551e-07 0 -1.12899e-06 0 0)
(2.34768e-06 -1.03482e-07 -1.20418e-21 -1.12768e-06 -5.31468e-22 0)
(2.34688e-06 -6.98527e-08 5.7924e-22 -1.12855e-06 2.45046e-22 0)
(2.34726e-06 -2.68509e-08 2.79231e-20 -1.13089e-06 1.37096e-21 -6.3746e-37)
(3.17208e-06 -4.73525e-07 -4.57841e-24 -1.63342e-06 -1.70768e-23 0)
(3.04068e-06 -4.9064e-07 8.53941e-22 -1.6032e-06 5.08889e-22 0)
(2.96357e-06 -4.70712e-07 -8.49474e-22 -1.56188e-06 -5.15716e-22 0)
(2.87201e-06 -4.57675e-07 -8.36131e-22 -1.51788e-06 -5.02336e-22 0)
(2.79927e-06 -4.36827e-07 2.29644e-21 -1.47369e-06 1.55949e-21 0)
(2.72936e-06 -4.13783e-07 1.63553e-21 -1.42919e-06 9.73367e-22 0)
(2.66886e-06 -3.88642e-07 -2.17288e-21 -1.38686e-06 -1.44793e-21 0)
(2.61437e-06 -3.62324e-07 2.87101e-22 -1.34701e-06 -3.00424e-22 0)
(2.56669e-06 -3.3557e-07 4.937e-22 -1.31036e-06 4.54488e-22 0)
(2.52482e-06 -3.08787e-07 -2.6604e-22 -1.27722e-06 3.54852e-22 0)
(2.48861e-06 -2.82327e-07 -2.20487e-21 -1.24783e-06 -1.2061e-21 0)
(2.45756e-06 -2.56345e-07 1.97581e-23 -1.22238e-06 1.89205e-23 0)
(2.4314e-06 -2.30891e-07 -1.01123e-21 -1.20097e-06 -1.36273e-21 0)
(2.40978e-06 -2.05838e-07 -3.41079e-23 -1.18367e-06 -3.09952e-23 0)
(2.39247e-06 -1.8094e-07 1.28724e-21 -1.17052e-06 6.26022e-22 0)
(2.37915e-06 -1.55618e-07 -2.57091e-23 -1.16153e-06 -2.2337e-23 0)
(2.3698e-06 -1.29289e-07 1.57403e-21 -1.15676e-06 2.09256e-21 0)
(2.3639e-06 -1.00276e-07 -5.92386e-22 -1.1562e-06 -2.64968e-22 0)
(2.36221e-06 -6.84093e-08 -2.78083e-21 -1.16017e-06 -2.73563e-21 0)
(2.36323e-06 -2.68262e-08 2.58088e-20 -1.16855e-06 -8.46753e-22 -5.00973e-35)
(3.33667e-06 -2.87102e-07 -1.08766e-22 -1.69257e-06 -5.47995e-23 0)
(3.20074e-06 -3.23644e-07 -9.15118e-22 -1.65531e-06 -5.38212e-22 0)
(3.11259e-06 -3.32744e-07 7.43765e-22 -1.62703e-06 5.80873e-22 0)
(3.01452e-06 -3.36639e-07 -1.94785e-21 -1.58704e-06 -1.76139e-21 0)
(2.9288e-06 -3.35224e-07 -2.00358e-21 -1.54549e-06 -1.65526e-21 0)
(2.84777e-06 -3.27886e-07 1.18646e-21 -1.50087e-06 1.21506e-21 0)
(2.77441e-06 -3.16471e-07 1.03194e-21 -1.45581e-06 1.21852e-21 0)
(2.7078e-06 -3.01633e-07 1.79667e-21 -1.41174e-06 1.60785e-21 0)
(2.64828e-06 -2.84397e-07 -2.10686e-21 -1.36982e-06 -1.56468e-21 0)
(2.59538e-06 -2.65551e-07 5.31463e-24 -1.33094e-06 4.26624e-23 0)
(2.54891e-06 -2.45723e-07 -2.59139e-23 -1.29571e-06 -1.27281e-22 0)
(2.50847e-06 -2.25367e-07 -1.64874e-21 -1.26459e-06 -1.59974e-21 0)
(2.47378e-06 -2.04756e-07 0 -1.23792e-06 0 0)
(2.4445e-06 -1.83961e-07 -1.49052e-21 -1.21596e-06 -4.86368e-22 0)
(2.42048e-06 -1.62885e-07 -7.05743e-24 -1.19898e-06 -2.9442e-23 0)
(2.4014e-06 -1.41082e-07 -1.92509e-21 -1.18722e-06 -9.36399e-22 0)
(2.38755e-06 -1.18061e-07 5.28276e-22 -1.18108e-06 5.53438e-22 0)
(2.3784e-06 -9.22757e-08 1.21378e-21 -1.18095e-06 5.5534e-22 0)
(2.37575e-06 -6.35966e-08 1.50597e-23 -1.18791e-06 -1.1639e-24 0)
(2.37747e-06 -2.55563e-08 2.74892e-20 -1.20242e-06 -4.98496e-24 -2.19491e-37)
(3.41664e-06 -1.34059e-07 9.42436e-22 -1.69607e-06 8.24797e-22 0)
(3.29297e-06 -1.53757e-07 -8.70708e-22 -1.66487e-06 -5.4593e-22 0)
(3.19778e-06 -1.89714e-07 -5.05095e-22 -1.64544e-06 -4.16903e-22 0)
(3.10056e-06 -2.06996e-07 8.36876e-22 -1.61317e-06 5.10234e-22 0)
(3.0105e-06 -2.19129e-07 -1.65327e-21 -1.57524e-06 -7.52218e-22 0)
(2.92518e-06 -2.24553e-07 -1.11525e-21 -1.53362e-06 -5.27111e-22 0)
(2.84645e-06 -2.24839e-07 -1.39201e-21 -1.48995e-06 -1.00527e-21 0)
(2.77378e-06 -2.20914e-07 1.66806e-22 -1.4461e-06 -1.14166e-22 0)
(2.70779e-06 -2.13554e-07 2.81317e-21 -1.40339e-06 1.78705e-21 0)
(2.64824e-06 -2.03604e-07 -9.69152e-23 -1.36297e-06 -1.03318e-22 0)
(2.59517e-06 -1.91721e-07 1.50326e-21 -1.32568e-06 8.49559e-22 0)
(2.5483e-06 -1.78459e-07 -7.43146e-23 -1.29221e-06 -8.34645e-23 0)
(2.50751e-06 -1.642e-07 5.50152e-36 -1.2631e-06 5.545e-36 0)
(2.47256e-06 -1.49147e-07 -6.60688e-22 -1.23883e-06 -3.28902e-22 0)
(2.44343e-06 -1.33335e-07 6.45808e-22 -1.21989e-06 3.14273e-22 0)
(2.41989e-06 -1.16495e-07 -2.90891e-23 -1.20675e-06 -4.16065e-23 0)
(2.40253e-06 -9.82881e-08 1.01609e-22 -1.20017e-06 -2.69375e-22 0)
(2.39079e-06 -7.7516e-08 5.9068e-24 -1.20085e-06 1.92838e-23 0)
(2.38727e-06 -5.41199e-08 -5.93082e-24 -1.21052e-06 7.64704e-24 0)
(2.38935e-06 -2.2583e-08 2.94842e-20 -1.23021e-06 1.5163e-22 2.62726e-37)
(3.34826e-06 1.57985e-08 8.74434e-22 -1.63229e-06 6.8831e-22 0)
(3.26612e-06 -6.76542e-09 0 -1.64242e-06 0 0)
(3.18009e-06 -5.04127e-08 -6.82696e-22 -1.62781e-06 -5.97823e-22 0)
(3.09394e-06 -7.9139e-08 8.92148e-36 -1.60363e-06 7.18269e-36 0)
(3.01186e-06 -1.01675e-07 2.04412e-36 -1.57133e-06 1.47608e-36 0)
(2.93273e-06 -1.17531e-07 9.69656e-36 -1.53437e-06 7.17552e-36 0)
(2.85841e-06 -1.27783e-07 1.48796e-35 -1.4945e-06 1.19532e-35 0)
(2.78861e-06 -1.33364e-07 -5.98654e-22 -1.45358e-06 -5.56952e-22 0)
(2.7242e-06 -1.34995e-07 0 -1.41301e-06 0 0)
(2.66515e-06 -1.33472e-07 5.72148e-22 -1.37402e-06 5.50303e-22 0)
(2.61174e-06 -1.29429e-07 -8.21275e-37 -1.3376e-06 -1.3627e-36 0)
(2.56394e-06 -1.23429e-07 -5.50421e-22 -1.30456e-06 -5.48124e-22 0)
(2.5218e-06 -1.15884e-07 5.41375e-22 -1.27558e-06 5.48445e-22 0)
(2.48526e-06 -1.07071e-07 7.76748e-36 -1.2513e-06 5.63218e-36 0)
(2.45449e-06 -9.71012e-08 -5.26925e-22 -1.23236e-06 -5.51604e-22 0)
(2.4294e-06 -8.58937e-08 -4.66926e-36 -1.21942e-06 -4.28984e-36 0)
(2.41081e-06 -7.32155e-08 5.17548e-22 -1.21346e-06 5.58197e-22 0)
(2.39826e-06 -5.83229e-08 5.14853e-22 -1.21541e-06 5.63096e-22 0)
(2.39496e-06 -4.13181e-08 -5.55342e-36 -1.22749e-06 -4.81687e-36 0)
(2.39791e-06 -1.83153e-08 3.01907e-20 -1.25088e-06 -4.89146e-36 -1.78098e-49)