/*--------------------------------*- C++ -*----------------------------------*\
  =========                 |
  \\      /  F ield         | OpenFOAM: The Open Source CFD Toolbox
   \\    /   O peration     | Website:  https://openfoam.org
    \\  /    A nd           | Version:  9
     \\/     M anipulation  |
\*---------------------------------------------------------------------------*/
FoamFile
{
    format      ascii;
    class       volScalarField;
    location    "5";
    object      epsilonEq;
}
// * * * * * * * * * * * * * * * * * * * * * * * * * * * * * * * * * * * * * //

dimensions      [0 0 0 0 0 0 0];

internalField   nonuniform List<scalar> 
1000
(
3.39282e-06
3.22793e-06
3.18394e-06
3.2105e-06
3.21477e-06
3.20827e-06
3.18595e-06
3.15176e-06
3.11354e-06
3.06588e-06
3.95947e-06
3.59855e-06
3.4254e-06
3.37252e-06
3.32472e-06
3.28334e-06
3.23487e-06
3.18321e-06
3.12462e-06
3.07286e-06
4.51423e-06
3.95518e-06
3.6432e-06
3.5002e-06
3.3918e-06
3.30897e-06
3.22986e-06
3.15617e-06
3.07862e-06
3.01654e-06
5.04463e-06
4.29335e-06
3.83876e-06
3.59695e-06
3.42023e-06
3.29059e-06
3.17777e-06
3.08071e-06
2.98484e-06
2.91179e-06
5.53365e-06
4.60553e-06
4.00825e-06
3.66181e-06
3.4107e-06
3.22983e-06
3.08092e-06
2.9591e-06
2.84631e-06
2.76201e-06
5.98475e-06
4.88957e-06
4.1492e-06
3.69467e-06
3.36504e-06
3.13036e-06
2.94455e-06
2.7982e-06
2.6697e-06
2.57384e-06
6.37202e-06
5.1263e-06
4.24175e-06
3.68099e-06
3.27568e-06
2.99081e-06
2.772e-06
2.60422e-06
2.46341e-06
2.35722e-06
6.73389e-06
5.30506e-06
4.26803e-06
3.61223e-06
3.14294e-06
2.81966e-06
2.57776e-06
2.39621e-06
2.24914e-06
2.1359e-06
6.97961e-06
5.31972e-06
4.1347e-06
3.42396e-06
2.93921e-06
2.61122e-06
2.37064e-06
2.19054e-06
2.04687e-06
1.9319e-06
7.18264e-06
5.01175e-06
3.82202e-06
3.15783e-06
2.73773e-06
2.44641e-06
2.23189e-06
2.06481e-06
1.92959e-06
1.81467e-06
1.13065e-08
2.84064e-08
1.27079e-07
2.60066e-07
4.05468e-07
5.55449e-07
7.01082e-07
8.39884e-07
9.67336e-07
1.08545e-06
3.5251e-08
1.70569e-07
3.65977e-07
5.58317e-07
7.28812e-07
8.79997e-07
1.01167e-06
1.12925e-06
1.23e-06
1.32456e-06
1.36409e-07
4.04314e-07
6.51267e-07
8.74938e-07
1.06137e-06
1.21607e-06
1.34159e-06
1.4467e-06
1.52882e-06
1.60635e-06
3.16073e-07
6.91811e-07
9.70457e-07
1.20658e-06
1.39456e-06
1.54512e-06
1.66197e-06
1.75539e-06
1.82218e-06
1.88624e-06
5.73931e-07
1.01638e-06
1.31366e-06
1.55181e-06
1.7312e-06
1.86993e-06
1.97313e-06
2.05197e-06
2.10294e-06
2.15321e-06
9.08316e-07
1.36209e-06
1.66033e-06
1.89186e-06
2.05629e-06
2.17837e-06
2.26457e-06
2.32664e-06
2.36138e-06
2.39707e-06
1.31217e-06
1.72284e-06
2.00076e-06
2.21633e-06
2.36071e-06
2.46286e-06
2.52994e-06
2.57377e-06
2.59208e-06
2.61224e-06
1.7758e-06
2.09359e-06
2.32661e-06
2.51483e-06
2.634e-06
2.71362e-06
2.76047e-06
2.78531e-06
2.78852e-06
2.7922e-06
2.28639e-06
2.47081e-06
2.63398e-06
2.78214e-06
2.8701e-06
2.92434e-06
2.94958e-06
2.95551e-06
2.94437e-06
2.93391e-06
2.83045e-06
2.85047e-06
2.92008e-06
3.01412e-06
3.06359e-06
3.08866e-06
3.09085e-06
3.0761e-06
3.05538e-06
3.02258e-06
1.19181e-06
1.28324e-06
1.36806e-06
1.44477e-06
1.51414e-06
1.57655e-06
1.63259e-06
1.68266e-06
1.72726e-06
1.76675e-06
1.80146e-06
1.83164e-06
1.8575e-06
1.87915e-06
1.89667e-06
1.91013e-06
1.91951e-06
1.9251e-06
1.92684e-06
1.92567e-06
1.39758e-06
1.45064e-06
1.50418e-06
1.55394e-06
1.60063e-06
1.64404e-06
1.68417e-06
1.72101e-06
1.75466e-06
1.78516e-06
1.81263e-06
1.83713e-06
1.85874e-06
1.87752e-06
1.89348e-06
1.90661e-06
1.91673e-06
1.92373e-06
1.92662e-06
1.92479e-06
1.6495e-06
1.66626e-06
1.68773e-06
1.70841e-06
1.72948e-06
1.7505e-06
1.77133e-06
1.7916e-06
1.81123e-06
1.82995e-06
1.8477e-06
1.86432e-06
1.87977e-06
1.89393e-06
1.90666e-06
1.91777e-06
1.92673e-06
1.93299e-06
1.93452e-06
1.93023e-06
1.90467e-06
1.89124e-06
1.88515e-06
1.88018e-06
1.87768e-06
1.87734e-06
1.87916e-06
1.8826e-06
1.8876e-06
1.89365e-06
1.90064e-06
1.90823e-06
1.91623e-06
1.92438e-06
1.93238e-06
1.93985e-06
1.946e-06
1.95009e-06
1.94972e-06
1.94391e-06
2.1498e-06
2.11158e-06
2.08183e-06
2.05486e-06
2.03168e-06
2.01201e-06
1.99625e-06
1.98361e-06
1.97428e-06
1.96762e-06
1.96352e-06
1.96153e-06
1.9614e-06
1.96276e-06
1.96518e-06
1.96818e-06
1.97084e-06
1.97237e-06
1.97046e-06
1.9643e-06
2.37436e-06
2.31643e-06
2.26712e-06
2.22176e-06
2.1813e-06
2.14491e-06
2.11382e-06
2.08678e-06
2.06435e-06
2.04574e-06
2.03094e-06
2.01946e-06
2.01104e-06
2.00527e-06
2.00171e-06
1.99984e-06
1.99881e-06
1.99786e-06
1.99518e-06
1.99006e-06
2.57275e-06
2.50013e-06
2.43608e-06
2.37562e-06
2.32146e-06
2.27084e-06
2.22653e-06
2.1867e-06
2.1524e-06
2.12279e-06
2.09796e-06
2.07746e-06
2.06104e-06
2.0483e-06
2.03884e-06
2.03216e-06
2.02763e-06
2.02458e-06
2.02192e-06
2.01894e-06
2.73943e-06
2.65662e-06
2.58365e-06
2.51087e-06
2.44678e-06
2.38518e-06
2.33044e-06
2.28024e-06
2.23583e-06
2.19656e-06
2.16261e-06
2.13366e-06
2.10957e-06
2.09003e-06
2.07478e-06
2.06341e-06
2.05558e-06
2.05078e-06
2.04881e-06
2.04887e-06
2.87396e-06
2.78193e-06
2.7093e-06
2.62806e-06
2.55651e-06
2.48609e-06
2.42219e-06
2.36313e-06
2.30999e-06
2.26243e-06
2.22059e-06
2.18429e-06
2.15345e-06
2.12787e-06
2.10742e-06
2.09185e-06
2.08118e-06
2.07505e-06
2.07425e-06
2.07783e-06
2.97344e-06
2.87497e-06
2.80728e-06
2.72684e-06
2.65246e-06
2.57846e-06
2.50832e-06
2.4423e-06
2.38141e-06
2.32601e-06
2.27641e-06
2.2327e-06
2.19496e-06
2.16314e-06
2.13729e-06
2.11733e-06
2.10365e-06
2.09611e-06
2.09651e-06
2.10384e-06
3.01101e-06
2.91881e-06
2.85213e-06
2.77657e-06
2.70233e-06
2.62856e-06
2.55734e-06
2.48932e-06
2.42566e-06
2.36688e-06
2.31353e-06
2.26589e-06
2.22422e-06
2.18866e-06
2.15948e-06
2.13677e-06
2.12132e-06
2.11312e-06
2.11482e-06
2.12534e-06
2.93192e-06
2.88517e-06
2.82426e-06
2.75878e-06
2.69188e-06
2.62437e-06
2.55821e-06
2.49409e-06
2.43327e-06
2.3764e-06
2.32418e-06
2.27705e-06
2.23544e-06
2.19965e-06
2.17013e-06
2.1472e-06
2.13187e-06
2.12435e-06
2.12785e-06
2.14115e-06
2.86797e-06
2.83289e-06
2.78652e-06
2.73066e-06
2.67269e-06
2.61185e-06
2.55117e-06
2.49127e-06
2.43369e-06
2.37916e-06
2.32855e-06
2.28243e-06
2.24139e-06
2.20586e-06
2.17647e-06
2.15369e-06
2.13876e-06
2.13192e-06
2.13675e-06
2.15196e-06
2.79229e-06
2.77169e-06
2.73738e-06
2.69098e-06
2.64142e-06
2.5873e-06
2.53244e-06
2.47731e-06
2.42368e-06
2.37233e-06
2.32424e-06
2.28007e-06
2.24051e-06
2.20612e-06
2.1776e-06
2.1556e-06
2.14131e-06
2.13535e-06
2.14154e-06
2.15781e-06
2.70684e-06
2.69761e-06
2.67448e-06
2.63781e-06
2.59717e-06
2.55061e-06
2.50238e-06
2.45287e-06
2.40405e-06
2.35672e-06
2.31199e-06
2.2706e-06
2.2333e-06
2.20076e-06
2.17365e-06
2.15293e-06
2.1392e-06
2.13495e-06
2.13822e-06
2.15832e-06
2.61627e-06
2.61711e-06
2.60394e-06
2.57633e-06
2.54409e-06
2.505e-06
2.46349e-06
2.4199e-06
2.37631e-06
2.33355e-06
2.29281e-06
2.25484e-06
2.22048e-06
2.19039e-06
2.16541e-06
2.1462e-06
2.13415e-06
2.12994e-06
2.13649e-06
2.15229e-06
2.52212e-06
2.53119e-06
2.52667e-06
2.50752e-06
2.48323e-06
2.45154e-06
2.41682e-06
2.37941e-06
2.34141e-06
2.30366e-06
2.26739e-06
2.23338e-06
2.20249e-06
2.17538e-06
2.15288e-06
2.1356e-06
2.12489e-06
2.12099e-06
2.12711e-06
2.14202e-06
2.4263e-06
2.44215e-06
2.44513e-06
2.43359e-06
2.41658e-06
2.39193e-06
2.36383e-06
2.33263e-06
2.30038e-06
2.26793e-06
2.2365e-06
2.20686e-06
2.17987e-06
2.15615e-06
2.13649e-06
2.12142e-06
2.11211e-06
2.10884e-06
2.11428e-06
2.12723e-06
2.32964e-06
2.35083e-06
2.36013e-06
2.35537e-06
2.34501e-06
2.32704e-06
2.30537e-06
2.28036e-06
2.25397e-06
2.22704e-06
2.20073e-06
2.17581e-06
2.15307e-06
2.13311e-06
2.11663e-06
2.10405e-06
2.09632e-06
2.09358e-06
2.09807e-06
2.10866e-06
2.23253e-06
2.25787e-06
2.2725e-06
2.27371e-06
2.2694e-06
2.25772e-06
2.24226e-06
2.22338e-06
2.20291e-06
2.18165e-06
2.16069e-06
2.14075e-06
2.12258e-06
2.10669e-06
2.09368e-06
2.08385e-06
2.07791e-06
2.07585e-06
2.07925e-06
2.08709e-06
2.1348e-06
2.16329e-06
2.18238e-06
2.18891e-06
2.19018e-06
2.18448e-06
2.17508e-06
2.1623e-06
2.14781e-06
2.13236e-06
2.11696e-06
2.10225e-06
2.08889e-06
2.07736e-06
2.06809e-06
2.06129e-06
2.05736e-06
2.05613e-06
2.05847e-06
2.06345e-06
2.03596e-06
2.06687e-06
2.08978e-06
2.10115e-06
2.10768e-06
2.10778e-06
2.10437e-06
2.09771e-06
2.08933e-06
2.07985e-06
2.07019e-06
2.06092e-06
2.05262e-06
2.04567e-06
2.04039e-06
2.03688e-06
2.03522e-06
2.03509e-06
2.03657e-06
2.03877e-06
1.93502e-06
1.96794e-06
1.99429e-06
2.01029e-06
2.02199e-06
2.02791e-06
2.03058e-06
2.03022e-06
2.02812e-06
2.02484e-06
2.02115e-06
2.01754e-06
2.0145e-06
2.01234e-06
2.01126e-06
2.01125e-06
2.01214e-06
2.01343e-06
2.01439e-06
2.01414e-06
1.83104e-06
1.86589e-06
1.89564e-06
1.91636e-06
1.9334e-06
1.94536e-06
1.9544e-06
1.96063e-06
1.96512e-06
1.96831e-06
1.97084e-06
1.97311e-06
1.9755e-06
1.97827e-06
1.98153e-06
1.98518e-06
1.98886e-06
1.99189e-06
1.99282e-06
1.99067e-06
1.72239e-06
1.75959e-06
1.79314e-06
1.81909e-06
1.842e-06
1.86057e-06
1.87651e-06
1.88984e-06
1.90138e-06
1.91144e-06
1.92051e-06
1.92889e-06
1.93688e-06
1.94466e-06
1.9523e-06
1.95967e-06
1.96627e-06
1.97131e-06
1.97279e-06
1.96948e-06
1.60847e-06
1.64894e-06
1.68712e-06
1.7192e-06
1.74885e-06
1.77483e-06
1.79841e-06
1.81947e-06
1.83861e-06
1.85597e-06
1.87189e-06
1.88657e-06
1.90024e-06
1.91302e-06
1.92496e-06
1.93593e-06
1.94541e-06
1.95259e-06
1.95516e-06
1.95157e-06
1.48708e-06
1.53259e-06
1.57701e-06
1.61678e-06
1.65457e-06
1.68921e-06
1.7215e-06
1.75121e-06
1.77866e-06
1.80387e-06
1.82704e-06
1.84826e-06
1.86768e-06
1.88538e-06
1.90139e-06
1.91562e-06
1.92767e-06
1.93681e-06
1.94085e-06
1.93795e-06
1.36065e-06
1.41356e-06
1.4662e-06
1.51545e-06
1.5629e-06
1.60743e-06
1.64941e-06
1.68849e-06
1.72478e-06
1.75818e-06
1.78877e-06
1.81656e-06
1.84161e-06
1.86396e-06
1.88364e-06
1.90061e-06
1.91462e-06
1.92517e-06
1.9306e-06
1.92906e-06
1.22673e-06
1.29095e-06
1.35506e-06
1.4165e-06
1.47577e-06
1.53188e-06
1.58484e-06
1.63423e-06
1.68002e-06
1.72205e-06
1.76033e-06
1.7948e-06
1.82545e-06
1.85227e-06
1.87521e-06
1.89423e-06
1.90915e-06
1.91985e-06
1.92555e-06
1.92546e-06
1.10103e-06
1.17972e-06
1.25749e-06
1.33234e-06
1.40421e-06
1.4721e-06
1.53592e-06
1.59523e-06
1.64998e-06
1.70002e-06
1.74533e-06
1.78584e-06
1.82153e-06
1.85228e-06
1.87796e-06
1.8984e-06
1.91332e-06
1.92282e-06
1.92664e-06
1.92611e-06
1.71756e-06
1.83066e-06
2.02479e-06
2.2397e-06
2.45475e-06
2.64534e-06
2.80088e-06
2.91382e-06
2.98512e-06
3.00189e-06
1.62749e-06
1.73338e-06
1.91267e-06
2.11552e-06
2.32534e-06
2.51898e-06
2.68589e-06
2.81517e-06
2.90609e-06
2.94346e-06
1.54673e-06
1.64813e-06
1.81513e-06
2.00495e-06
2.20443e-06
2.39239e-06
2.56007e-06
2.6985e-06
2.80746e-06
2.87587e-06
1.47276e-06
1.57125e-06
1.72817e-06
1.90657e-06
2.09657e-06
2.27863e-06
2.44423e-06
2.58497e-06
2.69856e-06
2.78554e-06
1.40325e-06
1.49986e-06
1.64826e-06
1.81597e-06
1.99599e-06
2.1709e-06
2.33303e-06
2.47574e-06
2.59236e-06
2.68983e-06
1.33788e-06
1.43342e-06
1.57488e-06
1.73321e-06
1.90366e-06
2.07066e-06
2.22687e-06
2.36798e-06
2.48417e-06
2.58829e-06
1.27544e-06
1.37038e-06
1.50602e-06
1.65603e-06
1.81757e-06
1.97686e-06
2.12687e-06
2.26525e-06
2.37936e-06
2.48537e-06
1.21573e-06
1.31027e-06
1.44095e-06
1.58351e-06
1.73663e-06
1.8881e-06
2.03124e-06
2.16549e-06
2.27674e-06
2.38245e-06
1.15832e-06
1.25247e-06
1.37876e-06
1.51458e-06
1.65988e-06
1.80377e-06
1.94004e-06
2.06931e-06
2.177e-06
2.28056e-06
1.10321e-06
1.19675e-06
1.31888e-06
1.44834e-06
1.58612e-06
1.72247e-06
1.85179e-06
1.97549e-06
2.07933e-06
2.1798e-06
1.05051e-06
1.14299e-06
1.26089e-06
1.38405e-06
1.51445e-06
1.64325e-06
1.7656e-06
1.88329e-06
1.98299e-06
2.07976e-06
1.00064e-06
1.09133e-06
1.20449e-06
1.32101e-06
1.44382e-06
1.56484e-06
1.68009e-06
1.79147e-06
1.88684e-06
1.97962e-06
9.5441e-07
1.04212e-06
1.14942e-06
1.2584e-06
1.37297e-06
1.48577e-06
1.59368e-06
1.69849e-06
1.78939e-06
1.87809e-06
9.13063e-07
9.95988e-07
1.09559e-06
1.19553e-06
1.30075e-06
1.40463e-06
1.50482e-06
1.60283e-06
1.68919e-06
1.77387e-06
8.78981e-07
9.53877e-07
1.04228e-06
1.13053e-06
1.22468e-06
1.3187e-06
1.41075e-06
1.50191e-06
1.58388e-06
1.66488e-06
8.55054e-07
9.16324e-07
9.88749e-07
1.06223e-06
1.14325e-06
1.22636e-06
1.30991e-06
1.39426e-06
1.47219e-06
1.55005e-06
8.47595e-07
8.84249e-07
9.31022e-07
9.84434e-07
1.04987e-06
1.1214e-06
1.19676e-06
1.27516e-06
1.35023e-06
1.42629e-06
8.58162e-07
8.52076e-07
8.64734e-07
8.95075e-07
9.43709e-07
1.00374e-06
1.07185e-06
1.14568e-06
1.21955e-06
1.29555e-06
9.02389e-07
8.11892e-07
7.69939e-07
7.72052e-07
8.05912e-07
8.58164e-07
9.2329e-07
9.9684e-07
1.07365e-06
1.15342e-06
9.22626e-07
7.13381e-07
6.40114e-07
6.2028e-07
6.47085e-07
6.9735e-07
7.65146e-07
8.43771e-07
9.28249e-07
1.01606e-06
)
;

boundaryField
{
    left
    {
        type            calculated;
        value           nonuniform List<scalar> 
30
(
1.69765e-06
1.6085e-06
1.52862e-06
1.45542e-06
1.38677e-06
1.32234e-06
1.26103e-06
1.20268e-06
1.14696e-06
1.09394e-06
1.04384e-06
9.97158e-07
9.54808e-07
9.18177e-07
8.89792e-07
8.73399e-07
8.76629e-07
9.08706e-07
1.00102e-06
1.14522e-06
7.63418e-06
4.90605e-06
3.70172e-06
3.07972e-06
2.69126e-06
2.41531e-06
2.20852e-06
2.04438e-06
1.91044e-06
1.79488e-06
)
;
    }
    right
    {
        type            calculated;
        value           nonuniform List<scalar> 
30
(
1.92534e-06
1.92479e-06
1.93004e-06
1.9436e-06
1.96392e-06
1.98969e-06
2.01864e-06
2.0487e-06
2.07782e-06
2.10407e-06
2.12566e-06
2.14174e-06
2.15264e-06
2.15855e-06
2.15852e-06
2.15296e-06
2.14274e-06
2.12785e-06
2.10916e-06
2.08743e-06
2.06364e-06
2.03883e-06
2.01408e-06
1.99052e-06
1.96929e-06
1.9514e-06
1.93785e-06
1.92905e-06
1.92554e-06
1.92574e-06
)
;
    }
    down
    {
        type            calculated;
        value           nonuniform List<scalar> 
30
(
2.3424e-09
1.66835e-08
9.61365e-08
2.22638e-07
3.68735e-07
5.21754e-07
6.71368e-07
8.14132e-07
9.45141e-07
1.06655e-06
1.17588e-06
1.27118e-06
1.35875e-06
1.4375e-06
1.50855e-06
1.57222e-06
1.62929e-06
1.68016e-06
1.72542e-06
1.76542e-06
1.80054e-06
1.83104e-06
1.85714e-06
1.87897e-06
1.89659e-06
1.9101e-06
1.91947e-06
1.92505e-06
1.92681e-06
1.92615e-06
)
;
    }
    up
    {
        type            calculated;
        value           nonuniform List<scalar> 
30
(
9.10215e-07
7.05481e-07
6.35921e-07
6.15603e-07
6.41755e-07
6.91343e-07
7.58741e-07
8.37284e-07
9.21729e-07
1.00994e-06
1.09519e-06
1.17451e-06
1.25303e-06
1.32849e-06
1.40099e-06
1.46942e-06
1.53376e-06
1.59352e-06
1.64868e-06
1.69906e-06
1.74467e-06
1.78544e-06
1.82133e-06
1.85225e-06
1.87803e-06
1.89852e-06
1.91342e-06
1.92286e-06
1.9266e-06
1.92639e-06
)
;
    }
    hole
    {
        type            calculated;
        value           nonuniform List<scalar> 
20
(
3.4165e-06
4.013e-06
4.59723e-06
5.1561e-06
5.66994e-06
6.14448e-06
6.55315e-06
6.94502e-06
7.24081e-06
7.5792e-06
1.17846e-08
1.24768e-08
5.80204e-08
2.19985e-07
4.73024e-07
8.14611e-07
1.23347e-06
1.71796e-06
2.25336e-06
2.82496e-06
)
;
    }
    frontAndBack
    {
        type            empty;
    }
}


// ************************************************************************* //
