/*--------------------------------*- C++ -*----------------------------------*\
  =========                 |
  \\      /  F ield         | OpenFOAM: The Open Source CFD Toolbox
   \\    /   O peration     | Website:  https://openfoam.org
    \\  /    A nd           | Version:  9
     \\/     M anipulation  |
\*---------------------------------------------------------------------------*/
FoamFile
{
    format      ascii;
    class       volScalarField;
    location    "5";
    object      sigmaEq;
}
// * * * * * * * * * * * * * * * * * * * * * * * * * * * * * * * * * * * * * //

dimensions      [1 -1 -2 0 0 0 0];

internalField   nonuniform List<scalar> 
1000
(
862146
815091
800557
800291
797771
792509
784435
773835
762865
749355
1.00588e+06
913530
869834
850852
834964
820229
804950
789144
772587
756896
1.14617e+06
1.00979e+06
935507
894358
863319
837653
814168
792111
770305
751072
1.28242e+06
1.10337e+06
996276
931350
883611
845872
813463
784850
757834
735061
1.41082e+06
1.1903e+06
1.05093e+06
961345
895862
845225
803447
767976
736506
710512
1.52918e+06
1.2702e+06
1.09908e+06
984408
900544
836600
785672
744244
708276
678748
1.63085e+06
1.33852e+06
1.13608e+06
997036
895694
819867
761490
714296
674595
641926
1.72768e+06
1.3952e+06
1.15999e+06
998703
882155
798066
733584
682342
640238
605306
1.79968e+06
1.41827e+06
1.15066e+06
974808
854627
767878
702303
650252
607890
572052
1.88873e+06
1.38925e+06
1.11154e+06
940588
829243
746431
683576
632776
591151
555021
4862.56
6206.36
28225.2
60314.5
96126.5
133365
169678
204370
236233
265868
7162.91
40882.8
87642.5
133535
174734
211593
244025
273225
298372
322230
32507.2
97443.7
156677
209530
253953
291049
321497
347308
367692
387311
77499.3
167163
233905
289431
333909
369627
397625
420301
436696
452893
142694
246522
317076
372564
414663
447228
471669
490605
502961
515720
227879
332387
402203
455374
493509
521760
541861
556547
564770
573910
331085
423347
487159
535553
568389
591465
606685
616741
620779
626040
449693
518239
570264
611033
637234
654414
664407
669595
669672
670783
580224
616006
650622
680702
698776
709253
713829
714227
710580
707837
719044
715437
727521
743671
752058
755377
753879
748691
742065
733659
292469
315503
336822
356076
373490
389140
403191
415737
426912
436798
445488
453040
459507
464920
469293
472652
474985
476378
476814
476598
340620
354419
368310
381119
393158
404282
414565
423966
432544
440299
447272
453479
458947
463693
467725
471055
473648
475510
476441
476404
398438
403508
409892
415854
421948
427865
433692
439270
444624
449668
454410
458810
462864
466557
469864
472763
475149
476941
477723
477367
457899
455492
455292
455050
455559
456405
457766
459391
461326
463420
465660
467962
470294
472601
474823
476897
478662
479997
480391
479754
515322
506614
500743
495100
490671
486885
484084
481915
480491
479609
479262
479334
479774
480497
481420
482446
483389
484110
484108
483328
568690
554727
544097
533812
525171
517303
510805
505181
500634
496918
494044
491879
490367
489412
488916
488775
488809
488880
488589
487875
616602
598407
584082
569880
557800
546407
536669
527947
520541
514193
508929
504618
501200
498578
496659
495337
494472
493934
493485
493021
657861
636386
619595
602122
587385
573175
560777
549470
539574
530876
523407
517069
511815
507561
504236
501747
500018
498930
498451
498406
692736
667890
650380
630548
613659
597156
582401
568866
556791
546046
536640
528503
521597
515857
511241
507678
505168
503610
503198
503671
719663
693418
675777
655428
637232
619460
602886
587471
573402
560695
549387
539456
530890
523647
517718
513058
509747
507712
507385
508437
731604
706991
688808
669190
650508
632456
615344
599207
584273
570594
558257
547277
537682
529464
522660
517258
513415
511083
510878
512420
714095
699499
682780
665517
648576
631947
615953
600658
586311
572999
560846
549907
540249
531903
524947
519410
515508
513226
513318
515351
700453
688365
675061
659924
645039
629820
614978
600544
586841
573973
562105
551321
541719
533365
526369
520798
516911
514706
515022
517376
683220
674464
664128
651301
638352
624648
611112
597728
584885
572694
561352
550963
541652
533510
526665
521224
517435
515383
515944
518476
663653
657620
650010
639453
628579
616607
604579
592460
580689
569389
558785
548998
540172
532422
525869
520696
516999
515327
515167
518632
642477
638933
633780
625405
616536
606327
595871
585126
574559
564304
554604
545592
537429
530231
524160
519324
516029
514343
515007
517461
620158
618756
615784
609490
602553
594118
585276
575987
566730
557643
548982
540887
533526
527019
521528
517155
514188
512626
513234
515535
597158
597607
596566
592192
587062
580351
573113
565316
557432
549603
542085
535021
528581
522878
518070
514240
511646
510287
510814
512787
573726
575727
576366
573746
570302
565255
559602
553314
546849
540346
534056
528119
522698
517900
513865
510662
508500
507354
507771
509354
549986
553289
555389
554363
552488
549039
544939
540169
535154
530030
525036
520303
515986
512178
509000
506499
504828
503948
504249
505387
525938
530333
533706
534141
533741
531840
529275
526031
522498
518803
515164
511705
508562
505820
503572
501845
500731
500168
500376
501072
501492
506826
511337
513139
514158
513776
512748
511053
509041
506824
504597
502472
500567
498952
497697
496810
496319
496138
496310
496601
476469
482655
488230
491362
493789
494943
495485
495387
494952
494273
493520
492785
492171
491735
491523
491528
491723
491994
492211
492176
450649
457685
464323
468818
472704
475460
477647
479225
480446
481378
482163
482874
483595
484373
485236
486167
487093
487882
488244
487992
423741
431725
439522
445502
450976
455467
459427
462803
465787
468425
470823
473036
475129
477139
479083
480941
482617
483964
484576
484243
395525
404688
413848
421534
428804
435225
441137
446465
451345
455793
459881
463644
467131
470369
473369
476118
478516
480420
481365
481094
365714
376451
387332
397071
406449
415078
423178
430656
437589
443966
449828
455190
460080
464519
468517
472067
475094
477477
478785
478707
334503
347388
360472
372700
384556
395695
406226
416039
425161
433560
441248
448224
454501
460088
464991
469212
472708
475405
476989
477150
302040
317908
333881
349161
363942
377930
391144
403468
414897
425388
434938
443534
451174
457851
463556
468282
471994
474687
476221
476513
270470
290144
309601
328313
346285
363256
379212
394037
407721
420225
431546
441669
450580
458260
464665
469761
473471
475826
476764
476678
524507
541127
573207
609450
646904
680092
706611
724786
734539
733171
496450
512171
542352
577394
615137
650423
680855
703700
718608
721692
471154
486144
514373
547355
583559
618258
649484
675076
694614
706064
447954
462513
489303
520681
555706
589970
621521
648325
669345
685223
426174
440370
465807
495467
528929
562232
593606
621512
643833
662946
405681
419663
444053
472261
504260
536435
567048
595131
617767
638985
386074
399881
423351
450216
480780
511782
541521
569522
592152
614375
367252
380923
403623
429298
458506
488270
516941
544469
566851
589469
349023
362547
384553
409137
437067
465610
493188
520033
542017
564546
331327
344667
366015
389566
416264
443565
470010
496001
517501
539666
314110
327188
347848
370366
395843
421885
447182
472205
493152
514773
297404
310088
329956
351366
375568
400292
424405
448374
468721
489707
281316
293397
312247
332364
355156
378464
401337
424191
443904
464217
266066
277196
294640
313157
334307
356047
377599
399286
418353
438002
252105
261668
276992
293380
312528
332504
352652
373157
391612
410672
240085
246905
259048
272636
289339
307330
326001
345349
363285
381892
231308
233139
240082
249803
263551
279422
296686
315066
332741
351194
226662
219223
218874
223943
234447
248218
264308
282061
299889
318613
229578
203341
191577
191100
198858
211362
227203
245260
264127
283946
230559
174357
155634
150505
157151
169668
186579
206214
227289
249255
)
;

boundaryField
{
    left
    {
        type            calculated;
        value           nonuniform List<scalar> 
30
(
520206
492192
466933
443734
421971
401512
381977
363276
345230
327796
310939
294706
279228
264756
251778
241152
234584
234983
251113
288828
2.00312e+06
1.35216e+06
1.07608e+06
919151
817351
739052
678527
628593
587315
550945
)
;
    }
    right
    {
        type            calculated;
        value           nonuniform List<scalar> 
30
(
476500
476404
477315
479675
483236
487793
492965
498394
503706
508538
512543
515543
517584
518694
518687
517643
515729
512950
509479
505471
501114
496605
492147
487941
484183
481038
478672
477143
476533
476569
)
;
    }
    down
    {
        type            calculated;
        value           nonuniform List<scalar> 
30
(
3864.68
2320.38
20607.3
52068.9
88466.9
126600
163889
199471
232125
262387
289638
313392
335218
354847
372557
388426
402653
415333
426615
436583
445338
452941
459445
464886
469278
472647
474981
476373
476812
476648
)
;
    }
    up
    {
        type            calculated;
        value           nonuniform List<scalar> 
30
(
223420
172391
155054
149990
156508
168867
185666
205242
226290
248276
269526
289297
308867
327676
345746
362805
378841
393737
407485
420044
431412
441575
450521
458227
464652
469761
473475
475828
476760
476708
)
;
    }
    hole
    {
        type            calculated;
        value           nonuniform List<scalar> 
20
(
857521
1.00546e+06
1.14963e+06
1.28696e+06
1.41859e+06
1.54012e+06
1.64436e+06
1.74383e+06
1.81853e+06
1.90368e+06
2705.97
2814.51
15658.4
55930.8
119259
205062
310476
432415
566931
710062
)
;
    }
    frontAndBack
    {
        type            empty;
    }
}


// ************************************************************************* //
