/*--------------------------------*- C++ -*----------------------------------*\
  =========                 |
  \\      /  F ield         | OpenFOAM: The Open Source CFD Toolbox
   \\    /   O peration     | Website:  https://openfoam.org
    \\  /    A nd           | Version:  9
     \\/     M anipulation  |
\*---------------------------------------------------------------------------*/
FoamFile
{
    format      ascii;
    class       volSymmTensorField;
    location    "5";
    object      sigma;
}
// * * * * * * * * * * * * * * * * * * * * * * * * * * * * * * * * * * * * * //

dimensions      [1 -1 -2 0 0 0 0];

internalField   nonuniform List<symmTensor> 
1000
(
(615814 -421170 -2.25135e-10 356847 -3.06749e-10 85277)
(722189 -324240 -1.87319e-10 194391 -2.3835e-10 84058.3)
(775596 -248212 -1.50405e-10 117711 -1.85816e-10 84087.7)
(798147 -190839 -1.20267e-10 58049.4 -1.44159e-10 81113.3)
(806163 -144843 -9.11963e-11 23096.7 -1.08992e-10 77575.7)
(802699 -108830 -6.99306e-11 -2810.35 -8.24616e-11 74515.9)
(794528 -79607.7 -5.34465e-11 -19507.4 -6.18939e-11 72333.6)
(782029 -56363.1 -4.12498e-11 -31518.8 -4.61944e-11 70467.7)
(769162 -37059.4 -3.14781e-11 -39409.3 -3.36112e-11 69067.7)
(752136 -20972.9 -2.4331e-11 -46961.3 -2.35519e-11 67462.3)
(781130 -468472 -2.49568e-10 360238 -3.38106e-10 101068)
(851029 -334662 -1.88505e-10 205077 -2.45276e-10 97239.8)
(879353 -238601 -1.35928e-10 135018 -1.77725e-10 94518.9)
(881724 -169662 -9.3919e-11 78366.3 -1.25349e-10 88183.7)
(874434 -117160 -6.31865e-11 46044.3 -8.74942e-11 84324.1)
(858434 -77894.2 -4.18529e-11 21220.9 -6.00105e-11 80832.1)
(840045 -47256.5 -2.60774e-11 5269.57 -3.9468e-11 78262.5)
(819090 -23948.8 -1.51659e-11 -7245.01 -2.43924e-11 75914.4)
(798328 -5073.93 -6.88353e-12 -14860.9 -1.28008e-11 74154.8)
(775372 10071.9 -1.27841e-12 -25166.6 -3.55227e-12 71884.1)
(959287 -498363 -2.65374e-10 347046 -3.5745e-10 117000)
(982001 -334342 -1.77815e-10 210953 -2.41076e-10 108187)
(979558 -222193 -1.09949e-10 153952 -1.60486e-10 102164)
(958661 -144063 -6.5805e-11 104009 -1.048e-10 95683.2)
(934081 -86985.7 -3.48758e-11 76552.4 -6.59631e-11 91669)
(904343 -45840.2 -1.44888e-11 54110.6 -3.86884e-11 87836.1)
(875164 -14957.6 -2.19473e-13 39755.2 -1.90927e-11 84946)
(845355 7624.46 8.86883e-12 27382.9 -5.27178e-12 82169.5)
(817388 25160.4 1.52097e-11 20073.5 4.78167e-12 80075.9)
(788270 39449.5 1.93041e-11 8146.76 1.3124e-11 77277.6)
(1.14401e+06 -506831 -2.57248e-10 320055 -3.5396e-10 128060)
(1.11211e+06 -322037 -1.49954e-10 212761 -2.22005e-10 115013)
(1.07507e+06 -199103 -8.0564e-11 174258 -1.39388e-10 109848)
(1.02816e+06 -115333 -3.68529e-11 134294 -8.33548e-11 103465)
(984593 -56139.1 -7.4805e-12 113458 -4.5511e-11 99408.2)
(940269 -14851 1.07709e-11 94291.8 -1.97707e-11 95285.5)
(899900 14982.5 2.26782e-11 81736.3 -2.03565e-12 92063.9)
(861450 36011.9 2.94694e-11 69643.2 9.98599e-12 88876.1)
(826517 51489.4 3.34532e-11 62104.4 1.81076e-11 86380.4)
(792240 64145.6 3.57262e-11 49251.5 2.50354e-11 83184)
(1.32718e+06 -489804 -2.18789e-10 282465 -3.22655e-10 132423)
(1.23793e+06 -295844 -1.14254e-10 211408 -1.93748e-10 121406)
(1.16375e+06 -169032 -4.79245e-11 195959 -1.14418e-10 117473)
(1.08896e+06 -84093.2 -7.65136e-12 168630 -6.1464e-11 111382)
(1.02537e+06 -26019.5 1.80309e-11 155877 -2.70127e-11 107377)
(966099 13134.7 3.26973e-11 140617 -4.41668e-12 102998)
(914689 40265.7 4.12492e-11 129978 1.03629e-11 99444.7)
(867923 58614.8 4.50972e-11 118031 1.98825e-11 95828.7)
(826592 71137.6 4.98905e-11 109747 2.79719e-11 91527.3)
(787734 81402.7 5.30289e-11 95982 3.50412e-11 86813.1)
(1.50449e+06 -446331 -1.65022e-10 240138 -2.73808e-10 136241)
(1.35759e+06 -254831 -7.03913e-11 209681 -1.56171e-10 127650)
(1.24491e+06 -131648 -1.19087e-11 220636 -8.55998e-11 125217)
(1.14091e+06 -51053.8 2.13457e-11 207425 -3.96571e-11 119469)
(1.05669e+06 1973.99 4.08325e-11 203234 -1.13031e-11 115496)
(982549 36291.6 5.02589e-11 191719 6.38608e-12 110805)
(920468 58900.4 5.64786e-11 182459 1.84739e-11 106064)
(865917 73295.9 6.20069e-11 170226 2.82405e-11 99989.6)
(819110 82288.9 6.47708e-11 160517 3.43586e-11 94805)
(776618 89666.4 6.58287e-11 145696 3.95116e-11 89629.9)
(1.66468e+06 -373748 -9.59945e-11 197725 -2.07159e-10 139604)
(1.4653e+06 -195941 -1.73404e-11 210563 -1.08094e-10 133892)
(1.31347e+06 -85884.9 2.7379e-11 250386 -5.29054e-11 133117)
(1.18026e+06 -16628.8 4.93055e-11 251197 -1.85904e-11 127604)
(1.07632e+06 26473.6 5.97179e-11 254543 6.35685e-13 123505)
(988617 52752.8 6.46048e-11 245445 1.31965e-11 117426)
(917222 68868.9 7.12259e-11 236286 2.40151e-11 109974)
(856574 78425.6 7.3359e-11 222860 3.05586e-11 103171)
(805715 83512.7 7.32187e-11 211005 3.41016e-11 97392)
(760586 87786.3 7.20446e-11 194856 3.72013e-11 91829.8)
(1.81835e+06 -272036 -9.85924e-12 167873 -1.23255e-10 144688)
(1.56226e+06 -116351 4.6987e-11 225476 -4.88703e-11 141721)
(1.36931e+06 -31193.8 7.03826e-11 293770 -1.69746e-11 142295)
(1.20791e+06 17147.6 7.51797e-11 304224 -2.61895e-14 136362)
(1.086e+06 44830.4 7.33405e-11 310542 7.11573e-12 131552)
(986925 59975 7.78477e-11 300357 1.6882e-11 121543)
(908702 68600 7.91886e-11 288735 2.27293e-11 113169)
(843908 73048.6 7.75754e-11 272626 2.59048e-11 105709)
(790455 74596.6 7.46547e-11 257709 2.71394e-11 99409.4)
(743762 76099.1 7.14428e-11 239947 2.84167e-11 93545.3)
(1.94498e+06 -128983 9.79304e-11 165879 -1.75472e-11 152647)
(1.62749e+06 -15993.1 1.19654e-10 274098 1.74673e-11 152674)
(1.39256e+06 25030.1 1.09599e-10 360805 1.4438e-11 152974)
(1.20956e+06 41169.9 9.11588e-11 368404 8.56516e-12 145159)
(1.07778e+06 49398 8.45527e-11 367817 8.59667e-12 135401)
(974175 52509.5 8.08407e-11 350675 1.08198e-11 124095)
(893981 54234.9 7.68791e-11 333271 1.217e-11 115019)
(828151 54629.2 7.20194e-11 312922 1.27207e-11 107094)
(774136 53982.4 6.71442e-11 294476 1.25601e-11 100449)
(727052 53772.5 6.25934e-11 275120 1.27246e-11 94407.6)
(2.10942e+06 107273 2.7075e-10 284581 1.39059e-10 179523)
(1.6574e+06 119254 2.09799e-10 425677 9.1925e-11 175817)
(1.39095e+06 78002.5 1.43559e-10 470477 3.66279e-11 167953)
(1.20218e+06 50421.9 1.01626e-10 448752 7.85713e-12 153651)
(1.06962e+06 39900.6 8.7126e-11 422669 1.09155e-12 138725)
(966580 34363.2 7.57416e-11 391316 -2.17179e-12 126299)
(886901 32705.8 6.81167e-11 364149 -2.87982e-12 116492)
(821376 31888.9 6.16995e-11 338746 -3.0334e-12 108197)
(767397 31243.2 5.63003e-11 317007 -3.12501e-12 101302)
(720106 30860.6 5.14991e-11 296797 -3.05863e-12 95174)
(-2930.94 1092.52 -3.52064e-11 -1620.39 -1.82536e-11 2057.41)
(1908.25 -3384.75 -3.75642e-11 331.572 -2.12778e-11 2631.53)
(22024.7 -10947 -4.19594e-11 -1074.9 -2.62633e-11 4395.88)
(54497 -17040.5 -4.50495e-11 -2257.31 -3.02462e-11 7387.16)
(92328.9 -20823.4 -4.64527e-11 -2889.03 -3.26845e-11 10961.6)
(132112 -22986 -4.67344e-11 -3199.53 -3.40425e-11 14765.4)
(171120 -23848.1 -4.6183e-11 -3261.33 -3.45374e-11 18525.8)
(208427 -23932.9 -4.51616e-11 -3131.78 -3.45199e-11 22144)
(242639 -23310.7 -4.37953e-11 -3070.08 -3.40349e-11 25464.4)
(274550 -22829.2 -4.25091e-11 -2545.19 -3.36583e-11 28596.4)
(3545.64 -3563.95 -3.77511e-11 -426.298 -2.13784e-11 2730.06)
(29730.6 -20201.8 -4.53587e-11 12601.2 -3.27192e-11 6099.62)
(67807.1 -38706 -5.57785e-11 13231.4 -4.50258e-11 9650.83)
(108306 -52895.6 -6.41549e-11 9300.08 -5.43483e-11 13128.8)
(149014 -61667.7 -6.91163e-11 5454.02 -6.00499e-11 16686.4)
(187726 -66605 -7.16725e-11 1974.53 -6.31992e-11 20116.5)
(223622 -68419.6 -7.22247e-11 -713.114 -6.4283e-11 23365.2)
(256857 -68346.3 -7.15476e-11 -2637.15 -6.41257e-11 26433.5)
(286158 -66489.4 -6.98205e-11 -4289.77 -6.27896e-11 29159.5)
(313972 -65010.4 -6.81344e-11 -4455.85 -6.17401e-11 31851.9)
(11245.5 -18264.6 -4.47276e-11 12218 -3.14539e-11 4300.9)
(57280.7 -50830.1 -6.1437e-11 27247.2 -5.34449e-11 9588.77)
(110013 -73777 -7.46215e-11 25406.9 -6.86406e-11 14325)
(158504 -89169.3 -8.44435e-11 15723.2 -7.86311e-11 18123.3)
(203079 -97690.2 -8.99729e-11 6649.49 -8.40484e-11 21656.7)
(242337 -101724 -9.26531e-11 -1250.86 -8.65007e-11 24809.4)
(276787 -102268 -9.29829e-11 -7273.57 -8.6669e-11 27675)
(307493 -100688 -9.182e-11 -11625.6 -8.54588e-11 30327.2)
(333152 -97168.2 -8.94146e-11 -14915.2 -8.29845e-11 32591.6)
(358014 -94214.1 -8.70173e-11 -15893.4 -8.09378e-11 34950.6)
(27266.4 -41425.8 -5.4105e-11 41567.4 -4.75158e-11 7874.91)
(94556.5 -87639.5 -8.04374e-11 46130.7 -7.83709e-11 14283.4)
(159358 -111775 -9.49543e-11 38471.5 -9.42158e-11 19729.5)
(214716 -125300 -1.04384e-10 22703.2 -1.02818e-10 23743.8)
(262536 -130936 -1.08797e-10 8724.32 -1.06197e-10 27243.1)
(302347 -132014 -1.1028e-10 -3380.37 -1.06585e-10 30155.9)
(335563 -129814 -1.09454e-10 -12716 -1.04852e-10 32674.9)
(364059 -125694 -1.0717e-10 -19628 -1.01896e-10 34941.8)
(386337 -119943 -1.03772e-10 -24860 -9.7896e-11 36751.9)
(408559 -115088 -1.00441e-10 -26982.2 -9.45599e-11 38786.4)
(54681.6 -74226.5 -6.69991e-11 84712.5 -7.02855e-11 13514.8)
(144602 -127734 -1.00834e-10 66904.5 -1.05506e-10 20326.1)
(219439 -149420 -1.15222e-10 48662.8 -1.19473e-10 25955.7)
(279516 -158409 -1.22913e-10 25143.5 -1.24872e-10 29876.6)
(328669 -159028 -1.24963e-10 6037.95 -1.24789e-10 33160.7)
(367678 -155531 -1.24224e-10 -9967.05 -1.22038e-10 35741.5)
(398764 -149416 -1.21455e-10 -22128.9 -1.17633e-10 37875.9)
(424448 -141916 -1.17463e-10 -31106.7 -1.12379e-10 39745.4)
(443058 -133486 -1.12726e-10 -37816.5 -1.06565e-10 41113.6)
(462418 -126322 -1.08155e-10 -40729.9 -1.01675e-10 42833)
(97125.5 -117419 -8.43128e-11 138313 -1.0019e-10 21308.9)
(209040 -168398 -1.20803e-10 90049.3 -1.33043e-10 27937.5)
(291820 -183287 -1.3287e-10 58257.1 -1.42167e-10 33362.8)
(354246 -185434 -1.37568e-10 26209.8 -1.4281e-10 36923.8)
(402627 -179703 -1.36435e-10 2245.84 -1.38381e-10 39822.8)
(439133 -170823 -1.32928e-10 -17099.4 -1.31967e-10 41957.9)
(466811 -160301 -1.27852e-10 -31507 -1.24577e-10 43633.5)
(488680 -149127 -1.21913e-10 -42039.6 -1.16842e-10 45050.7)
(502996 -137938 -1.1575e-10 -49893 -1.09168e-10 45942.6)
(518878 -128343 -1.09836e-10 -53319.1 -1.02649e-10 47310.1)
(157591 -170537 -1.06665e-10 196131 -1.36781e-10 31072.6)
(287640 -207981 -1.39568e-10 113985 -1.59843e-10 36990)
(375278 -211345 -1.46648e-10 67332.1 -1.60944e-10 41858.4)
(437191 -204362 -1.47053e-10 26425.2 -1.55299e-10 44779.7)
(482481 -191223 -1.42085e-10 -2047.17 -1.4583e-10 47106.3)
(514580 -176525 -1.35506e-10 -24214.4 -1.35477e-10 48655.4)
(537454 -161481 -1.27993e-10 -40254.6 -1.25039e-10 49785.4)
(554335 -146698 -1.201e-10 -51831.7 -1.14879e-10 50675)
(563705 -132938 -1.12576e-10 -60374.4 -1.05483e-10 51060.9)
(575256 -120990 -1.05354e-10 -64085.3 -9.73934e-11 52010.3)
(238794 -231612 -1.33693e-10 252216 -1.78612e-10 42632.2)
(379767 -244925 -1.56316e-10 137806 -1.84849e-10 47368.1)
(467940 -232254 -1.55536e-10 77351.1 -1.74942e-10 51386.6)
(526014 -214111 -1.5035e-10 28330.6 -1.61674e-10 53423.4)
(565819 -192856 -1.41051e-10 -3899.42 -1.46712e-10 55010.4)
(591666 -172281 -1.3131e-10 -28222.7 -1.32398e-10 55846.8)
(608392 -152935 -1.21453e-10 -45388.1 -1.19072e-10 56337.7)
(619178 -134928 -1.11807e-10 -57559.9 -1.06758e-10 56623.6)
(623034 -119033 -1.03196e-10 -66695.3 -9.59332e-11 56451.3)
(629379 -105050 -9.48519e-11 -70442.5 -8.64929e-11 56914.4)
(342337 -297061 -1.64065e-10 300572 -2.23163e-10 55717.6)
(484137 -277704 -1.7038e-10 159924 -2.0701e-10 58840.8)
(567305 -245401 -1.59141e-10 88797.7 -1.83765e-10 61748.5)
(617745 -214585 -1.4725e-10 33385.6 -1.61907e-10 62680.3)
(649564 -184845 -1.33267e-10 -1406.21 -1.41236e-10 63381.3)
(667258 -158588 -1.20433e-10 -27215.4 -1.23108e-10 63370.4)
(676555 -135407 -1.06545e-10 -44857 -1.05969e-10 62431.6)
(680104 -114900 -9.35445e-11 -57431.9 -9.0641e-11 61246.2)
(678183 -97439.2 -8.32231e-11 -66702.8 -7.81795e-11 60180.6)
(678270 -81840.1 -7.36716e-11 -71474.5 -6.72997e-11 59776.4)
(468507 -362133 -1.95539e-10 336544 -2.67157e-10 70046.1)
(599008 -304726 -1.80999e-10 179159 -2.2524e-10 71164.4)
(670675 -250679 -1.57384e-10 102238 -1.87361e-10 72727.4)
(709284 -206445 -1.38018e-10 43069.2 -1.56478e-10 72357.7)
(730391 -168275 -1.17652e-10 7239.9 -1.29142e-10 71442.2)
(738070 -136853 -9.74854e-11 -19031.8 -1.04652e-10 68821.4)
(738800 -110425 -8.13501e-11 -36667.6 -8.50622e-11 66917.2)
(734451 -88137.9 -6.84789e-11 -48975.4 -6.92639e-11 65401.6)
(726792 -70070.2 -5.86881e-11 -58965.1 -5.68092e-11 63967.3)
(719809 -54426.4 -5.01917e-11 -62490.4 -4.66498e-11 63377.5)
(303081 -21186.3 -4.06739e-11 -2544.98 -3.25014e-11 31372.6)
(328200 -18913.2 -3.84506e-11 -1984.2 -3.09415e-11 33867.7)
(351231 -16931.1 -3.64934e-11 -1580.57 -2.95772e-11 36146.1)
(371915 -15130.6 -3.4733e-11 -1280.91 -2.83371e-11 38187.6)
(390589 -13460.4 -3.31119e-11 -985.701 -2.71882e-11 40033)
(407301 -11963.9 -3.16675e-11 -769.395 -2.61576e-11 41680.9)
(422288 -10591.2 -3.03515e-11 -563.282 -2.52134e-11 43160)
(435635 -9352.33 -2.91731e-11 -404.105 -2.43612e-11 44475.4)
(447509 -8216.55 -2.81035e-11 -264.042 -2.35802e-11 45646)
(457995 -7175.78 -2.71376e-11 -154.773 -2.28651e-11 46679)
(467202 -6207.44 -2.62566e-11 -65.893 -2.22006e-11 47585.9)
(475192 -5298.04 -2.54507e-11 -0.90543 -2.15774e-11 48372.6)
(482022 -4429.93 -2.47067e-11 42.632 -2.09838e-11 49045.2)
(487730 -3590.28 -2.40157e-11 64.8255 -2.04112e-11 49607.3)
(492329 -2768.68 -2.33709e-11 64.9317 -1.98524e-11 50060.3)
(495850 -1963.91 -2.27704e-11 46.1363 -1.93068e-11 50407.3)
(498280 -1188.01 -2.22212e-11 8.54538 -1.8782e-11 50647)
(499726 -484.407 -2.17443e-11 -19.5947 -1.83083e-11 50791.6)
(500189 54.9541 -2.13924e-11 -14.9224 -1.79467e-11 50842.1)
(500139 178.703 -2.12721e-11 260.319 -1.78697e-11 50859.6)
(336351 -60554.8 -6.49153e-11 -5740.95 -5.86884e-11 33961.9)
(354816 -54528.1 -6.0597e-11 -5613.52 -5.46236e-11 35816.7)
(372633 -49209 -5.66856e-11 -5146.82 -5.10402e-11 37628)
(388539 -44242.2 -5.30855e-11 -4903.97 -4.76918e-11 39233.8)
(403293 -39585.3 -4.96786e-11 -4454.26 -4.45572e-11 40741.1)
(416569 -35372.9 -4.66159e-11 -4153.74 -4.17197e-11 42089.6)
(428701 -31472.6 -4.37717e-11 -3794.5 -3.90945e-11 43328.8)
(439604 -27927.7 -4.11987e-11 -3520.22 -3.67078e-11 44439.2)
(449453 -24656.1 -3.88279e-11 -3256.55 -3.45055e-11 45444.2)
(458254 -21644.5 -3.66599e-11 -3051.93 -3.24783e-11 46340.6)
(466101 -18836.5 -3.46511e-11 -2880.96 -3.05881e-11 47140.3)
(473028 -16199.5 -3.27829e-11 -2755.76 -2.88134e-11 47845.8)
(479090 -13691.4 -3.1025e-11 -2663.8 -2.71258e-11 48463.7)
(484322 -11282.2 -2.93574e-11 -2597.76 -2.55057e-11 48998.4)
(488751 -8949.02 -2.77607e-11 -2540.41 -2.39379e-11 49454)
(492422 -6691.48 -2.62289e-11 -2453.44 -2.24229e-11 49837.9)
(495332 -4536.7 -2.47698e-11 -2288.64 -2.09795e-11 50153.1)
(497573 -2579.45 -2.34208e-11 -1918.89 -1.96737e-11 50417.3)
(499046 -958.153 -2.22454e-11 -1181.09 -1.86023e-11 50632.2)
(500000 -104.342 -2.14374e-11 362.685 -1.80614e-11 50851.2)
(374917 -87548.5 -8.26363e-11 -17607.8 -7.6411e-11 36519.4)
(386651 -79350.7 -7.71062e-11 -17220.2 -7.09138e-11 37764.4)
(399308 -71985 -7.18893e-11 -15695.5 -6.59946e-11 39177.5)
(410250 -65140.6 -6.71301e-11 -14688.5 -6.14169e-11 40380)
(420955 -58616.3 -6.25112e-11 -13255.4 -5.70626e-11 41589.2)
(430576 -52687 -5.83461e-11 -12144 -5.31016e-11 42663)
(439657 -47136.9 -5.44249e-11 -10971.5 -4.93964e-11 43685.5)
(447898 -42061.8 -5.08565e-11 -10004.2 -4.60061e-11 44606.5)
(455517 -37347.2 -4.75455e-11 -9116.59 -4.28566e-11 45457.6)
(462425 -32991.5 -4.45047e-11 -8389.83 -3.99453e-11 46224.2)
(468717 -28924.6 -4.16815e-11 -7782.11 -3.7226e-11 46919.1)
(474382 -25112.1 -3.90569e-11 -7310.1 -3.4675e-11 47540.5)
(479467 -21502 -3.65933e-11 -6948.95 -3.22584e-11 48095.4)
(483994 -18059.1 -3.42651e-11 -6679.66 -2.99529e-11 48587.5)
(487983 -14752.4 -3.20453e-11 -6460.7 -2.77383e-11 49022.5)
(491471 -11570.5 -2.9914e-11 -6216.46 -2.56088e-11 49409.7)
(494431 -8521.11 -2.78589e-11 -5837.47 -2.35717e-11 49754.9)
(496928 -5653.65 -2.5874e-11 -5103.07 -2.16646e-11 50080.8)
(498734 -3054.53 -2.39704e-11 -3703.08 -1.99521e-11 50388.2)
(500073 -844.695 -2.2131e-11 -1091.78 -1.8526e-11 50739.5)
(420018 -106557 -9.51399e-11 -29291.3 -8.8785e-11 39801.1)
(424597 -97178.3 -8.90993e-11 -29077.2 -8.25093e-11 40352.1)
(431918 -88516.9 -8.30925e-11 -26745.8 -7.67517e-11 41323.6)
(437516 -80610.3 -7.77525e-11 -25322.9 -7.14832e-11 42051.4)
(443863 -72911.5 -7.23932e-11 -23098.3 -6.6369e-11 42911.1)
(449448 -65913.7 -6.75707e-11 -21347.5 -6.17151e-11 43654)
(455133 -59281.8 -6.29536e-11 -19463.6 -5.73085e-11 44413.1)
(460359 -53187.5 -5.87323e-11 -17869.4 -5.32559e-11 45100.4)
(465419 -47487.2 -5.47806e-11 -16387 -4.94651e-11 45759.2)
(470120 -42199.9 -5.11354e-11 -15139.6 -4.59463e-11 46361.2)
(474556 -37250.1 -4.77384e-11 -14073.9 -4.26499e-11 46920.3)
(478671 -32606.4 -4.45743e-11 -13214.1 -3.95543e-11 47429.6)
(482495 -28214.9 -4.1605e-11 -12528.3 -3.66246e-11 47895)
(486022 -24035.5 -3.88007e-11 -11990.1 -3.38342e-11 48318.3)
(489251 -20028.9 -3.61275e-11 -11543.9 -3.11582e-11 48704)
(492199 -16165.6 -3.35517e-11 -11094.7 -2.85784e-11 49061.3)
(494797 -12426.3 -3.10413e-11 -10510 -2.6085e-11 49394)
(497095 -8786.91 -2.8541e-11 -9540.6 -2.36672e-11 49726.1)
(498769 -5277.59 -2.60275e-11 -7867.8 -2.1352e-11 50050.6)
(500106 -1646.92 -2.32438e-11 -4918.62 -1.89829e-11 50441.4)
(468425 -116337 -1.02115e-10 -43158.5 -9.49364e-11 43325.5)
(465566 -106932 -9.63044e-11 -43173.8 -8.86539e-11 43139.4)
(467658 -97747.4 -8.99419e-11 -39741.4 -8.25801e-11 43694.6)
(467796 -89655.3 -8.45638e-11 -37844.4 -7.72086e-11 43932.5)
(469777 -81524.6 -7.8907e-11 -34674.3 -7.18341e-11 44446.5)
(471224 -74165.5 -7.38519e-11 -32152 -6.69632e-11 44851.6)
(473418 -67085.3 -6.89152e-11 -29409.8 -6.22818e-11 45343.2)
(475496 -60542.8 -6.43776e-11 -27037.5 -5.79523e-11 45790.1)
(477852 -54372.2 -6.00892e-11 -24815.2 -5.38679e-11 46248.6)
(480182 -48616.7 -5.61126e-11 -22906.9 -5.00548e-11 46676.4)
(482583 -43205.3 -5.23904e-11 -21258.1 -4.64659e-11 47088)
(484953 -38114.2 -4.89164e-11 -19900.3 -4.30854e-11 47470.9)
(487301 -33292.6 -4.56526e-11 -18802 -3.98793e-11 47829.4)
(489593 -28696 -4.25693e-11 -17934.8 -3.68194e-11 48162.5)
(491809 -24277.3 -3.96264e-11 -17238.7 -3.3875e-11 48473.3)
(493937 -19982.1 -3.67751e-11 -16613.8 -3.10119e-11 48769.1)
(495889 -15762.4 -3.39654e-11 -15925 -2.82008e-11 49051.8)
(497690 -11513 -3.10932e-11 -14933.4 -2.53765e-11 49343.6)
(499001 -7230.97 -2.81213e-11 -13356.1 -2.25436e-11 49633.1)
(500115 -2351.59 -2.46017e-11 -10661.6 -1.9335e-11 49995.1)
(519316 -117418 -1.0336e-10 -55717.9 -9.52945e-11 47275.1)
(508699 -109207 -9.86432e-11 -56523.3 -8.98094e-11 46266.5)
(505677 -100238 -9.24068e-11 -52132.2 -8.39099e-11 46398.2)
(500249 -92756.7 -8.75357e-11 -50025.9 -7.89628e-11 46107.7)
(497862 -84857.5 -8.20297e-11 -46124.5 -7.37672e-11 46253)
(495109 -77736.2 -7.71438e-11 -42984.6 -6.90766e-11 46296.9)
(493737 -70757.9 -7.22593e-11 -39534.9 -6.44855e-11 46496.7)
(492582 -64255.8 -6.77288e-11 -36475.9 -6.02039e-11 46683)
(492116 -58065.4 -6.34008e-11 -33583.4 -5.61261e-11 46920.1)
(491949 -52244.8 -5.93522e-11 -31043.7 -5.22874e-11 47155.5)
(492167 -46738.8 -5.55405e-11 -28817.4 -4.86518e-11 47401.1)
(492631 -41529.9 -5.19645e-11 -26947.3 -4.5207e-11 47640.1)
(493328 -36575 -4.8595e-11 -25414.2 -4.19244e-11 47873.4)
(494198 -31829.5 -4.54029e-11 -24200.2 -3.8775e-11 48097)
(495199 -27240.9 -4.23479e-11 -23255.7 -3.57246e-11 48311)
(496300 -22734 -3.93717e-11 -22497 -3.27247e-11 48519.7)
(497403 -18237.6 -3.64138e-11 -21811.6 -2.97306e-11 48722.8)
(498509 -13578.4 -3.33338e-11 -21005.5 -2.66296e-11 48937.1)
(499329 -8733.99 -3.00917e-11 -19860.7 -2.34128e-11 49151.5)
(500090 -2899.37 -2.61081e-11 -17943 -1.95502e-11 49429.1)
(570269 -109794 -9.88146e-11 -66187.1 -8.98748e-11 51476.1)
(551924 -104088 -9.61218e-11 -68471.7 -8.60502e-11 49581.9)
(544156 -96112.2 -9.05508e-11 -63511.9 -8.08362e-11 49288.5)
(533329 -90003.6 -8.66974e-11 -61437.9 -7.68172e-11 48459.8)
(526718 -83045.5 -8.18324e-11 -57105.2 -7.22685e-11 48220.3)
(519910 -76733.5 -7.74843e-11 -53440.9 -6.81384e-11 47904.3)
(515021 -70396.1 -7.30034e-11 -49386.9 -6.39952e-11 47803.9)
(510689 -64377.6 -6.87608e-11 -45668.9 -6.00573e-11 47728.7)
(507397 -58568.7 -6.46489e-11 -42131 -5.62536e-11 47738.2)
(504718 -53032.6 -6.07503e-11 -38967.9 -5.26234e-11 47775.5)
(502702 -47748.7 -5.705e-11 -36173.1 -4.91526e-11 47846.3)
(501187 -42708.7 -5.35556e-11 -33800.5 -4.58352e-11 47930.9)
(500137 -37884.9 -5.02504e-11 -31847.6 -4.26527e-11 48026.1)
(499470 -33234.7 -4.71102e-11 -30310.8 -3.95769e-11 48124.8)
(499131 -28704.9 -4.40971e-11 -29160 -3.65729e-11 48224.5)
(499066 -24205.5 -4.11484e-11 -28340.3 -3.35817e-11 48324.9)
(499193 -19650.5 -3.81996e-11 -27771.9 -3.05478e-11 48425.2)
(499474 -14814.4 -3.50907e-11 -27330.3 -2.7323e-11 48533.4)
(499733 -9669.32 -3.1786e-11 -26869.5 -2.38922e-11 48644.1)
(500046 -3250.31 -2.76326e-11 -26108.9 -1.96153e-11 48795.3)
(619193 -94012.9 -8.85783e-11 -72669.2 -7.90884e-11 55866)
(593690 -92101 -8.8799e-11 -77047.8 -7.77715e-11 53081.7)
(581617 -85953.7 -8.45483e-11 -72416.4 -7.37823e-11 52328.9)
(565901 -81728.8 -8.20518e-11 -70582.4 -7.10279e-11 50990.4)
(555246 -76347.3 -7.83187e-11 -66439.9 -6.75375e-11 50329.8)
(544721 -71291.9 -7.48388e-11 -62622.4 -6.42584e-11 49653.6)
(536430 -66087 -7.11332e-11 -58375 -6.08836e-11 49228)
(529070 -60981.4 -6.74878e-11 -54280.5 -5.75702e-11 48879.7)
(523007 -55956.9 -6.38757e-11 -50304.1 -5.43057e-11 48647.1)
(517855 -51062.9 -6.03697e-11 -46637.4 -5.11203e-11 48477.6)
(513608 -46317 -5.69874e-11 -43331.3 -4.80245e-11 48366.5)
(510103 -41724.6 -5.37511e-11 -40467.1 -4.50206e-11 48291.9)
(507275 -37277.1 -5.06628e-11 -38079.2 -4.21024e-11 48244.8)
(505026 -32943.1 -4.77097e-11 -36196.7 -3.92485e-11 48213.9)
(503292 -28676.5 -4.48657e-11 -34822.3 -3.64279e-11 48193.1)
(501998 -24383.9 -4.20726e-11 -33946.6 -3.35787e-11 48177)
(501089 -19974.4 -3.9269e-11 -33536.7 -3.06405e-11 48163.6)
(500483 -15194 -3.62933e-11 -33554.6 -2.74453e-11 48150.2)
(500159 -10016.9 -3.3118e-11 -33928.2 -2.3977e-11 48140.7)
(499980 -3395.04 -2.9076e-11 -34572.9 -1.95366e-11 48138.6)
(664267 -71713.1 -6.96492e-11 -73858.3 -6.15228e-11 58913.4)
(632408 -74211.9 -7.62471e-11 -80708.7 -6.51095e-11 56411.8)
(616413 -71153.5 -7.52634e-11 -78510.4 -6.36889e-11 55372.4)
(596799 -69186.3 -7.43761e-11 -77204.7 -6.2441e-11 53594.2)
(582289 -66028.5 -7.22534e-11 -73739.4 -6.04311e-11 52487)
(568576 -62534.8 -6.9835e-11 -69875.4 -5.82038e-11 51490.8)
(557154 -58719.4 -6.70729e-11 -65528.2 -5.57666e-11 50756.3)
(547065 -54721.2 -6.41551e-11 -61160.9 -5.32047e-11 50154.1)
(538443 -50653.3 -6.11655e-11 -56873.9 -5.05917e-11 49688.4)
(530984 -46576.8 -5.81801e-11 -52858.9 -4.79647e-11 49314.5)
(524614 -42545.8 -5.52504e-11 -49202.3 -4.53586e-11 49017.9)
(519182 -38582.6 -5.24092e-11 -46003.6 -4.27864e-11 48776.4)
(514601 -34695.5 -4.9675e-11 -43323.2 -4.02524e-11 48576.6)
(510768 -30863.7 -4.70464e-11 -41218.6 -3.77421e-11 48404.5)
(507617 -27049.8 -4.4507e-11 -39727.4 -3.52295e-11 48251.4)
(505060 -23164.2 -4.20105e-11 -38888.6 -3.26543e-11 48106.2)
(503082 -19117.4 -3.95036e-11 -38721.2 -2.99561e-11 47967.2)
(501549 -14650.5 -3.68374e-11 -39283.3 -2.69611e-11 47819.4)
(500623 -9737.48 -3.39916e-11 -40578.3 -2.36513e-11 47678.5)
(499915 -3321.8 -3.0337e-11 -42748.3 -1.9318e-11 47506.2)
(701651 -43160.7 -4.62056e-11 -71174.5 -3.97449e-11 61502)
(669399 -48652.4 -5.4688e-11 -76645.7 -4.55052e-11 59120)
(648964 -49971.4 -5.87173e-11 -79126.6 -4.78396e-11 57769.3)
(627219 -50499.4 -6.21947e-11 -79637 -4.98337e-11 56533)
(608899 -50318.8 -6.23864e-11 -78305.1 -4.97783e-11 54864.4)
(592201 -49235.6 -6.1754e-11 -75640.2 -4.91438e-11 53464)
(577626 -47530.9 -6.05156e-11 -71998.3 -4.81094e-11 52349.9)
(564756 -45300.9 -5.88218e-11 -67862.6 -4.67308e-11 51443.7)
(553553 -42702 -5.68122e-11 -63499.1 -4.51066e-11 50719.8)
(543782 -39852.3 -5.46166e-11 -59197.5 -4.3311e-11 50132.3)
(535326 -36847.8 -5.23245e-11 -55138 -4.14037e-11 49654.7)
(528017 -33757 -5.00114e-11 -51489.4 -3.94278e-11 49257.6)
(521746 -30621 -4.77257e-11 -48370.2 -3.74089e-11 48920.6)
(516386 -27449.9 -4.54939e-11 -45890.4 -3.53512e-11 48623.3)
(511868 -24228.3 -4.33224e-11 -44135.6 -3.32428e-11 48352.2)
(508079 -20886.9 -4.1187e-11 -43205.8 -3.10358e-11 48089.5)
(505047 -17349.2 -3.90513e-11 -43178.7 -2.86772e-11 47832.8)
(502586 -13375.9 -3.67972e-11 -44217.3 -2.60044e-11 47553.9)
(501052 -8947.01 -3.44139e-11 -46407.1 -2.30007e-11 47280.8)
(499822 -3063.75 -3.13543e-11 -50117.3 -1.89928e-11 46934.8)
(722760 -19701.2 -2.83572e-11 -63293.8 -2.3332e-11 63896.4)
(693098 -22608.7 -3.48481e-11 -69007.6 -2.71328e-11 61646.1)
(669735 -28042.8 -4.19129e-11 -74583.2 -3.20815e-11 59689.9)
(647325 -30614.1 -4.70202e-11 -77022.7 -3.54183e-11 58229.9)
(627480 -32439.2 -5.04724e-11 -77147.2 -3.78098e-11 56925.3)
(609276 -33311.3 -5.13086e-11 -75742.6 -3.84594e-11 55263.4)
(593093 -33401 -5.13932e-11 -73057 -3.86084e-11 53902.9)
(578563 -32846.4 -5.09112e-11 -69646.5 -3.83382e-11 52764.2)
(565708 -31764.7 -4.99814e-11 -65789.3 -3.77217e-11 51826.8)
(554323 -30283.6 -4.87404e-11 -61815.1 -3.68371e-11 51044.6)
(544321 -28502.1 -4.72884e-11 -57944.6 -3.5747e-11 50391.2)
(535552 -26503.9 -4.57159e-11 -54385.9 -3.4503e-11 49835.2)
(527918 -24347 -4.40872e-11 -51299.5 -3.31406e-11 49354.4)
(521296 -22061.1 -4.24488e-11 -48837.8 -3.1677e-11 48924.8)
(515629 -19650.6 -4.08257e-11 -47130.9 -3.01122e-11 48531)
(510797 -17073.4 -3.92191e-11 -46332.8 -2.84155e-11 48149.9)
(506867 -14275.1 -3.76159e-11 -46578.8 -2.65477e-11 47778.2)
(503612 -11070.2 -3.59457e-11 -48117.5 -2.43798e-11 47376.6)
(501534 -7447.86 -3.42123e-11 -51113.3 -2.18998e-11 46981.2)
(499800 -2554.86 -3.1998e-11 -56145.5 -1.85274e-11 46475.4)
(711782 3383.07 -1.57201e-11 -54400.8 -1.00321e-11 64834.5)
(688470 28.093 -2.15881e-11 -66340.4 -1.28633e-11 62077.9)
(667013 -6596.33 -2.9093e-11 -72142.8 -1.84101e-11 60169.8)
(646638 -10934.3 -3.49839e-11 -75452.2 -2.26406e-11 58672.2)
(628275 -14374 -3.8969e-11 -76142.9 -2.57508e-11 57255.5)
(611206 -16845.4 -4.08578e-11 -75256.6 -2.74565e-11 55648.1)
(595771 -18463.2 -4.19576e-11 -73066.2 -2.86153e-11 54307.1)
(581681 -19366.9 -4.24476e-11 -70092.3 -2.93103e-11 53163.1)
(569002 -19665.6 -4.24369e-11 -66609.7 -2.96083e-11 52200.7)
(557586 -19478.3 -4.20575e-11 -62947.2 -2.95827e-11 51379)
(547398 -18901.1 -4.14062e-11 -59330.7 -2.92927e-11 50676.2)
(538327 -18019.1 -4.05748e-11 -55980.5 -2.87912e-11 50064.2)
(530315 -16894.3 -3.9632e-11 -53070.8 -2.8116e-11 49523.2)
(523268 -15567.7 -3.86334e-11 -50774.5 -2.72912e-11 49030.5)
(517158 -14055.3 -3.76133e-11 -49243.9 -2.63243e-11 48571.6)
(511885 -12343.1 -3.65968e-11 -48664.8 -2.52023e-11 48122.5)
(507553 -10393.8 -3.55837e-11 -49204.5 -2.38967e-11 47681.2)
(503934 -8090.93 -3.4555e-11 -51161 -2.23238e-11 47203.5)
(501634 -5446.91 -3.35375e-11 -54761.1 -2.04859e-11 46730.8)
(499708 -1859.81 -3.22861e-11 -60661 -1.79694e-11 46127.1)
(703488 26509.5 -2.61702e-12 -43963.2 3.34655e-12 66107.4)
(682011 21232.2 -9.41176e-12 -57836.5 -3.75089e-13 63162.3)
(663842 13429 -1.71505e-11 -65022.4 -6.25976e-12 61219.4)
(645094 7668.29 -2.36692e-11 -69805.6 -1.11102e-11 59583.6)
(628204 2854.26 -2.74714e-11 -71739.8 -1.43233e-11 57754.3)
(612038 -978.199 -3.03696e-11 -71991.2 -1.69136e-11 56133.8)
(597264 -3917.02 -3.2431e-11 -70753.7 -1.89348e-11 54770.8)
(583557 -6115.36 -3.38497e-11 -68585.3 -2.04777e-11 53589.5)
(571082 -7657.01 -3.47169e-11 -65759.2 -2.15926e-11 52584.4)
(559712 -8656.08 -3.51642e-11 -62626.8 -2.2349e-11 51714.8)
(549453 -9199.19 -3.52844e-11 -59428.9 -2.27998e-11 50962.2)
(540223 -9370.11 -3.51698e-11 -56409.2 -2.29956e-11 50299.2)
(531988 -9233 -3.48942e-11 -53764.7 -2.29757e-11 49706.6)
(524677 -8838.77 -3.45227e-11 -51692.5 -2.27701e-11 49162.1)
(518280 -8216.82 -3.41034e-11 -50373.3 -2.23948e-11 48650.4)
(512719 -7380.24 -3.36794e-11 -50017.2 -2.18545e-11 48147.9)
(508115 -6311.14 -3.327e-11 -50837.7 -2.11319e-11 47650.1)
(504251 -4979.31 -3.29105e-11 -53128.9 -2.02019e-11 47113.6)
(501811 -3381 -3.26194e-11 -57148.6 -1.90549e-11 46585)
(499688 -1150.99 -3.2328e-11 -63703.1 -1.74323e-11 45898.8)
(688893 44462.6 6.29407e-12 -35190.2 1.29561e-11 66780.6)
(670295 39068.7 -1.4625e-13 -50605.4 9.58268e-12 63774.5)
(655216 30893.3 -7.04829e-12 -58651.4 4.20746e-12 61644.7)
(638562 24431 -1.24871e-11 -64407.4 -2.79335e-14 59529.1)
(623557 18744.7 -1.69232e-11 -67220.1 -3.80235e-12 57806.4)
(608770 13936.8 -2.05244e-11 -68292.1 -7.02488e-12 56246.9)
(595125 9958.04 -2.33226e-11 -67783.8 -9.72388e-12 54926.9)
(582255 6697.81 -2.5487e-11 -66266.9 -1.19614e-11 53766.4)
(570409 4095.22 -2.70923e-11 -64011.9 -1.37728e-11 52767.9)
(559480 2055.64 -2.82578e-11 -61372.8 -1.52137e-11 51893)
(549516 505.046 -2.90678e-11 -58595.5 -1.63287e-11 51126.9)
(540462 -633.146 -2.96114e-11 -55931.7 -1.71634e-11 50444.2)
(532312 -1422.68 -2.99623e-11 -53587.2 -1.77567e-11 49827.8)
(525017 -1922.08 -3.01916e-11 -51773.5 -1.81433e-11 49256.3)
(518587 -2168.24 -3.03528e-11 -50679.2 -1.83438e-11 48715.7)
(512969 -2214.21 -3.05183e-11 -50542.5 -1.83888e-11 48182.3)
(508283 -2030.06 -3.06988e-11 -51564.6 -1.82543e-11 47652.4)
(504375 -1722.56 -3.10184e-11 -54081.5 -1.80045e-11 47084.4)
(501891 -1158.07 -3.14341e-11 -58465.6 -1.7541e-11 46513.4)
(499675 -364.534 -3.20992e-11 -65356.5 -1.68721e-11 45778.5)
(670426 59284 1.63005e-11 -26526.8 2.25542e-11 65856.1)
(654777 53838 9.88912e-12 -42545 1.92133e-11 63061)
(642799 45732 3.09743e-12 -51148.8 1.39476e-11 61163.5)
(628461 38995.2 -2.58829e-12 -57786.4 9.55164e-12 59201.7)
(615539 32810.9 -7.41288e-12 -61444.5 5.4661e-12 57610.9)
(602399 27367.4 -1.15009e-11 -63359.5 1.83922e-12 56139.8)
(590145 22640 -1.48514e-11 -63622.2 -1.34122e-12 54888)
(578389 18570.1 -1.76041e-11 -62809.8 -4.10335e-12 53773.3)
(567453 15117.9 -1.9816e-11 -61177.9 -6.46775e-12 52806.8)
(557245 12215 -2.15889e-11 -59084.4 -8.47303e-12 51951.5)
(547854 9802.35 -2.29985e-11 -56775.8 -1.01537e-11 51196.4)
(539246 7814.22 -2.41253e-11 -54509.8 -1.15476e-11 50518)