/*--------------------------------*- C++ -*----------------------------------*\
  =========                 |
  \\      /  F ield         | OpenFOAM: The Open Source CFD Toolbox
   \\    /   O peration     | Website:  https://openfoam.org
    \\  /    A nd           | Version:  9
     \\/     M anipulation  |
\*---------------------------------------------------------------------------*/
FoamFile
{
    format      ascii;
    class       volVectorField;
    location    "5";
    object      D_0;
}
// * * * * * * * * * * * * * * * * * * * * * * * * * * * * * * * * * * * * * //

dimensions      [0 1 0 0 0 0 0];

internalField   nonuniform List<vector> 
1000
(
(2.70497e-06 9.08284e-07 0)
(2.52374e-06 1.00343e-06 0)
(2.39204e-06 1.08329e-06 0)
(2.29684e-06 1.14577e-06 0)
(2.22893e-06 1.19963e-06 0)
(2.18101e-06 1.246e-06 0)
(2.14858e-06 1.28775e-06 0)
(2.12798e-06 1.32578e-06 0)
(2.11637e-06 1.36126e-06 0)
(2.11226e-06 1.39487e-06 0)
(2.43766e-06 8.18929e-07 0)
(2.24947e-06 8.88098e-07 0)
(2.11364e-06 9.48544e-07 0)
(2.0159e-06 9.95283e-07 0)
(1.94626e-06 1.03626e-06 0)
(1.89697e-06 1.07153e-06 0)
(1.86319e-06 1.10349e-06 0)
(1.84109e-06 1.13272e-06 0)
(1.82773e-06 1.15985e-06 0)
(1.82113e-06 1.18628e-06 0)
(2.16465e-06 7.29385e-07 0)
(1.97474e-06 7.70867e-07 0)
(1.83848e-06 8.11094e-07 0)
(1.74096e-06 8.41899e-07 0)
(1.67172e-06 8.70212e-07 0)
(1.6227e-06 8.94836e-07 0)
(1.58889e-06 9.17641e-07 0)
(1.56636e-06 9.3876e-07 0)
(1.55216e-06 9.58331e-07 0)
(1.5442e-06 9.77896e-07 0)
(1.88733e-06 6.41097e-07 0)
(1.70116e-06 6.54277e-07 0)
(1.56845e-06 6.74218e-07 0)
(1.47413e-06 6.89425e-07 0)
(1.40757e-06 7.05688e-07 0)
(1.36061e-06 7.20433e-07 0)
(1.3282e-06 7.3494e-07 0)
(1.30639e-06 7.48802e-07 0)
(1.29239e-06 7.61756e-07 0)
(1.28394e-06 7.75191e-07 0)
(1.60639e-06 5.55386e-07 0)
(1.42961e-06 5.40797e-07 0)
(1.30458e-06 5.41256e-07 0)
(1.21669e-06 5.41878e-07 0)
(1.15524e-06 5.47259e-07 0)
(1.11222e-06 5.5334e-07 0)
(1.08265e-06 5.60779e-07 0)
(1.06269e-06 5.68544e-07 0)
(1.04977e-06 5.76044e-07 0)
(1.04159e-06 5.84308e-07 0)
(1.32301e-06 4.72869e-07 0)
(1.16083e-06 4.32183e-07 0)
(1.04776e-06 4.15042e-07 0)
(9.69618e-07 4.02924e-07 0)
(9.15819e-07 3.99267e-07 0)
(8.78602e-07 3.98411e-07 0)
(8.53255e-07 4.00393e-07 0)
(8.36161e-07 4.03528e-07 0)
(8.25084e-07 4.06971e-07 0)
(8.17778e-07 4.11297e-07 0)
(1.03617e-06 3.93496e-07 0)
(8.94205e-07 3.29606e-07 0)
(7.97691e-07 2.98096e-07 0)
(7.32896e-07 2.76255e-07 0)
(6.89335e-07 2.66239e-07 0)
(6.59721e-07 2.60746e-07 0)
(6.39828e-07 2.59227e-07 0)
(6.26452e-07 2.59416e-07 0)
(6.17789e-07 2.60317e-07 0)
(6.11835e-07 2.62053e-07 0)
(7.47763e-07 3.15002e-07 0)
(6.30771e-07 2.32656e-07 0)
(5.55779e-07 1.92359e-07 0)
(5.07781e-07 1.65461e-07 0)
(4.76629e-07 1.52783e-07 0)
(4.55895e-07 1.45547e-07 0)
(4.42195e-07 1.42758e-07 0)
(4.32993e-07 1.41803e-07 0)
(4.2702e-07 1.4169e-07 0)
(4.22708e-07 1.42209e-07 0)
(4.51474e-07 2.29735e-07 0)
(3.68759e-07 1.38629e-07 0)
(3.21322e-07 9.90198e-08 0)
(2.93151e-07 7.4491e-08 0)
(2.76057e-07 6.39167e-08 0)
(2.64873e-07 5.81232e-08 0)
(2.57638e-07 5.60958e-08 0)
(2.5269e-07 5.54289e-08 0)
(2.49421e-07 5.53888e-08 0)
(2.46858e-07 5.56687e-08 0)
(1.55636e-07 1.20105e-07 0)
(1.17216e-07 5.09292e-08 0)
(1.02648e-07 2.66083e-08 0)
(9.49229e-08 1.44221e-08 0)
(9.04319e-08 1.02096e-08 0)
(8.72995e-08 8.32348e-09 0)
(8.52458e-08 8.05823e-09 0)
(8.37425e-08 8.22259e-09 0)
(8.27091e-08 8.53628e-09 0)
(8.18013e-08 8.88062e-09 0)
(4.76997e-06 1.47197e-06 0)
(4.76203e-06 1.65518e-06 0)
(4.7565e-06 1.82592e-06 0)
(4.75659e-06 1.98226e-06 0)
(4.76365e-06 2.12576e-06 0)
(4.77821e-06 2.25822e-06 0)
(4.80037e-06 2.38168e-06 0)
(4.82967e-06 2.49795e-06 0)
(4.86584e-06 2.60844e-06 0)
(4.90798e-06 2.71471e-06 0)
(4.62031e-06 1.45986e-06 0)
(4.59906e-06 1.64256e-06 0)
(4.58453e-06 1.81122e-06 0)
(4.57804e-06 1.9644e-06 0)
(4.5803e-06 2.10405e-06 0)
(4.59088e-06 2.23207e-06 0)
(4.60943e-06 2.35072e-06 0)
(4.63509e-06 2.46188e-06 0)
(4.66748e-06 2.56705e-06 0)
(4.70537e-06 2.66798e-06 0)
(4.46165e-06 1.43531e-06 0)
(4.42461e-06 1.61756e-06 0)
(4.3978e-06 1.78278e-06 0)
(4.38163e-06 1.93103e-06 0)
(4.37623e-06 2.06525e-06 0)
(4.38038e-06 2.18762e-06 0)
(4.39328e-06 2.30055e-06 0)
(4.41365e-06 2.40597e-06 0)
(4.44097e-06 2.50542e-06 0)
(4.47356e-06 2.6007e-06 0)
(4.29021e-06 1.3996e-06 0)
(4.23542e-06 1.58102e-06 0)
(4.19435e-06 1.74201e-06 0)
(4.1667e-06 1.88422e-06 0)
(4.15192e-06 2.0119e-06 0)
(4.1481e-06 2.12757e-06 0)
(4.15404e-06 2.23386e-06 0)
(4.16802e-06 2.33272e-06 0)
(4.18941e-06 2.42575e-06 0)
(4.21603e-06 2.51474e-06 0)
(4.104e-06 1.3531e-06 0)
(4.02976e-06 1.53223e-06 0)
(3.97343e-06 1.68768e-06 0)
(3.93369e-06 1.82245e-06 0)
(3.90899e-06 1.94231e-06 0)
(3.89674e-06 2.05013e-06 0)
(3.89533e-06 2.1488e-06 0)
(3.9026e-06 2.24025e-06 0)
(3.91781e-06 2.32616e-06 0)
(3.93831e-06 2.40821e-06 0)
(3.90276e-06 1.29688e-06 0)
(3.80794e-06 1.47125e-06 0)
(3.73605e-06 1.61954e-06 0)
(3.68423e-06 1.7456e-06 0)
(3.64971e-06 1.85658e-06 0)
(3.62917e-06 1.95561e-06 0)
(3.62052e-06 2.04584e-06 0)
(3.62123e-06 2.12914e-06 0)
(3.63038e-06 2.2073e-06 0)
(3.64496e-06 2.2818e-06 0)
(3.68699e-06 1.23179e-06 0)
(3.5713e-06 1.39808e-06 0)
(3.4842e-06 1.53718e-06 0)
(3.42085e-06 1.65312e-06 0)
(3.37714e-06 1.75421e-06 0)
(3.3489e-06 1.84363e-06 0)
(3.33355e-06 1.92473e-06 0)
(3.32821e-06 1.99931e-06 0)
(3.33175e-06 2.06921e-06 0)
(3.34092e-06 2.13568e-06 0)
(3.45782e-06 1.15905e-06 0)
(3.32198e-06 1.3134e-06 0)
(3.22063e-06 1.44103e-06 0)
(3.14678e-06 1.54548e-06 0)
(3.09484e-06 1.63578e-06 0)
(3.05979e-06 1.71495e-06 0)
(3.03854e-06 1.78645e-06 0)
(3.02791e-06 1.85188e-06 0)
(3.02648e-06 1.91319e-06 0)
(3.03095e-06 1.97122e-06 0)
(3.21667e-06 1.07991e-06 0)
(3.0625e-06 1.21826e-06 0)
(2.94856e-06 1.33209e-06 0)
(2.86564e-06 1.42369e-06 0)
(2.80675e-06 1.5024e-06 0)
(2.76603e-06 1.57085e-06 0)
(2.73988e-06 1.63242e-06 0)
(2.72485e-06 1.68855e-06 0)
(2.71919e-06 1.74101e-06 0)
(2.71981e-06 1.79049e-06 0)
(2.96517e-06 9.95804e-07 0)
(2.79554e-06 1.11426e-06 0)
(2.67129e-06 1.21207e-06 0)
(2.58112e-06 1.2896e-06 0)
(2.51681e-06 1.3561e-06 0)
(2.47173e-06 1.41354e-06 0)
(2.44178e-06 1.46514e-06 0)
(2.42337e-06 1.51195e-06 0)
(2.41433e-06 1.55572e-06 0)
(2.41222e-06 1.59612e-06 0)
(4.95835e-06 2.81695e-06 0)
(5.01621e-06 2.91839e-06 0)
(5.07853e-06 3.01821e-06 0)
(5.14478e-06 3.11687e-06 0)
(5.21465e-06 3.21486e-06 0)
(5.28773e-06 3.3125e-06 0)
(5.3637e-06 3.4101e-06 0)
(5.44225e-06 3.50788e-06 0)
(5.52311e-06 3.60608e-06 0)
(5.606e-06 3.70485e-06 0)
(5.6907e-06 3.80436e-06 0)
(5.77697e-06 3.90471e-06 0)
(5.8646e-06 4.00603e-06 0)
(5.95338e-06 4.10838e-06 0)
(6.04312e-06 4.21184e-06 0)
(6.13361e-06 4.31642e-06 0)
(6.22467e-06 4.42211e-06 0)
(6.31607e-06 4.52883e-06 0)
(6.40767e-06 4.6364e-06 0)
(6.49925e-06 4.74448e-06 0)
(4.75789e-06 2.76636e-06 0)
(4.8229e-06 2.86611e-06 0)
(4.89139e-06 2.96433e-06 0)
(4.96283e-06 3.06158e-06 0)
(5.0371e-06 3.15838e-06 0)
(5.11386e-06 3.255e-06 0)
(5.19294e-06 3.35177e-06 0)
(5.27408e-06 3.44889e-06 0)
(5.35712e-06 3.5466e-06 0)
(5.44183e-06 3.64503e-06 0)
(5.52806e-06 3.74435e-06 0)
(5.61563e-06 3.84465e-06 0)
(5.70439e-06 3.94606e-06 0)
(5.79418e-06 4.04863e-06 0)
(5.88486e-06 4.15245e-06 0)
(5.97628e-06 4.25751e-06 0)
(6.0683e-06 4.36382e-06 0)
(6.16077e-06 4.4713e-06 0)
(6.25357e-06 4.57976e-06 0)
(6.34647e-06 4.68893e-06 0)
(4.529e-06 2.69616e-06 0)
(4.60322e-06 2.79609e-06 0)
(4.67996e-06 2.89453e-06 0)
(4.75851e-06 2.99197e-06 0)
(4.83905e-06 3.08903e-06 0)
(4.92125e-06 3.18593e-06 0)
(5.00512e-06 3.28305e-06 0)
(5.09044e-06 3.38059e-06 0)
(5.17716e-06 3.47878e-06 0)
(5.26513e-06 3.57777e-06 0)
(5.35426e-06 3.67771e-06 0)
(5.44444e-06 3.77872e-06 0)
(5.53558e-06 3.88092e-06 0)
(5.62758e-06 3.98437e-06 0)
(5.72034e-06 4.08916e-06 0)
(5.81378e-06 4.19531e-06 0)
(5.90779e-06 4.30283e-06 0)
(6.00226e-06 4.4117e-06 0)
(6.09708e-06 4.52182e-06 0)
(6.19199e-06 4.63303e-06 0)
(4.2751e-06 2.60785e-06 0)
(4.36028e-06 2.70939e-06 0)
(4.44701e-06 2.80952e-06 0)
(4.53434e-06 2.90845e-06 0)
(4.62277e-06 3.00699e-06 0)
(4.71196e-06 3.10529e-06 0)
(4.80208e-06 3.2038e-06 0)
(4.89299e-06 3.30271e-06 0)
(4.98473e-06 3.40226e-06 0)
(5.07722e-06 3.50262e-06 0)
(5.17045e-06 3.60397e-06 0)
(5.26437e-06 3.70641e-06 0)
(5.35896e-06 3.81008e-06 0)
(5.45418e-06 3.91507e-06 0)
(5.54998e-06 4.02146e-06 0)
(5.64631e-06 4.12932e-06 0)
(5.74312e-06 4.23869e-06 0)
(5.84032e-06 4.34961e-06 0)
(5.93782e-06 4.46209e-06 0)
(6.03537e-06 4.57608e-06 0)
(4.00171e-06 2.49978e-06 0)
(4.09914e-06 2.60458e-06 0)
(4.19719e-06 2.70804e-06 0)
(4.29453e-06 2.80994e-06 0)
(4.39209e-06 2.91135e-06 0)
(4.48944e-06 3.01231e-06 0)
(4.58694e-06 3.11336e-06 0)
(4.68451e-06 3.21469e-06 0)
(4.78228e-06 3.31659e-06 0)
(4.88026e-06 3.41923e-06 0)
(4.97851e-06 3.52281e-06 0)
(5.07704e-06 3.62747e-06 0)
(5.17589e-06 3.73334e-06 0)
(5.27508e-06 3.84055e-06 0)
(5.37462e-06 3.94919e-06 0)
(5.4745e-06 4.05938e-06 0)
(5.57471e-06 4.1712e-06 0)
(5.6752e-06 4.28476e-06 0)
(5.77592e-06 4.40021e-06 0)
(5.87663e-06 4.51757e-06 0)
(3.71331e-06 2.37254e-06 0)
(3.8239e-06 2.48214e-06 0)
(3.93428e-06 2.59049e-06 0)
(4.04256e-06 2.69674e-06 0)
(4.15016e-06 2.80231e-06 0)
(4.25655e-06 2.90713e-06 0)
(4.36231e-06 3.01184e-06 0)
(4.46737e-06 3.11663e-06 0)
(4.57198e-06 3.22183e-06 0)
(4.67621e-06 3.32764e-06 0)
(4.78019e-06 3.43428e-06 0)
(4.88401e-06 3.54192e-06 0)
(4.98776e-06 3.65072e-06 0)
(5.0915e-06 3.76081e-06 0)
(5.19532e-06 3.87234e-06 0)
(5.29924e-06 3.98545e-06 0)
(5.40331e-06 4.10029e-06 0)
(5.50751e-06 4.21702e-06 0)
(5.61185e-06 4.3359e-06 0)
(5.71616e-06 4.45706e-06 0)
(3.41465e-06 2.2264e-06 0)
(3.53889e-06 2.34233e-06 0)
(3.66219e-06 2.45707e-06 0)
(3.782e-06 2.5691e-06 0)
(3.90026e-06 2.68009e-06 0)
(4.01633e-06 2.78998e-06 0)
(4.13094e-06 2.89943e-06 0)
(4.24409e-06 3.00869e-06 0)
(4.35612e-06 3.11813e-06 0)
(4.46714e-06 3.22799e-06 0)
(4.57737e-06 3.33851e-06 0)
(4.68696e-06 3.4499e-06 0)
(4.79606e-06 3.56234e-06 0)
(4.90478e-06 3.67599e-06 0)
(5.01326e-06 3.79103e-06 0)
(5.12158e-06 3.90763e-06 0)
(5.22983e-06 4.026e-06 0)
(5.33806e-06 4.14635e-06 0)
(5.44631e-06 4.26904e-06 0)
(5.55454e-06 4.39427e-06 0)
(3.11024e-06 2.06265e-06 0)
(3.24816e-06 2.18636e-06 0)
(3.38453e-06 2.30871e-06 0)
(3.51616e-06 2.42781e-06 0)
(3.64534e-06 2.54538e-06 0)
(3.77146e-06 2.66147e-06 0)
(3.8953e-06 2.77671e-06 0)
(4.01695e-06 2.89144e-06 0)
(4.13679e-06 3.00604e-06 0)
(4.255e-06 3.1208e-06 0)
(4.37186e-06 3.23599e-06 0)
(4.48757e-06 3.35186e-06 0)
(4.60233e-06 3.46861e-06 0)
(4.71633e-06 3.58645e-06 0)
(4.82972e-06 3.70557e-06 0)
(4.94267e-06 3.82618e-06 0)
(5.05531e-06 3.94852e-06 0)
(5.16776e-06 4.07286e-06 0)
(5.28012e-06 4.19963e-06 0)
(5.39247e-06 4.32908e-06 0)
(2.80464e-06 1.88286e-06 0)
(2.95588e-06 2.01585e-06 0)
(3.10497e-06 2.14675e-06 0)
(3.24847e-06 2.27413e-06 0)
(3.38855e-06 2.39921e-06 0)
(3.52483e-06 2.52242e-06 0)
(3.65801e-06 2.6443e-06 0)
(3.78831e-06 2.76534e-06 0)
(3.91612e-06 2.8859e-06 0)
(4.04171e-06 3.00635e-06 0)
(4.16538e-06 3.12698e-06 0)
(4.2874e-06 3.24805e-06 0)
(4.408e-06 3.3698e-06 0)
(4.52743e-06 3.49246e-06 0)
(4.6459e-06 3.61623e-06 0)
(4.76361e-06 3.74136e-06 0)
(4.88075e-06 3.86811e-06 0)
(4.99753e-06 3.99677e-06 0)
(5.11408e-06 4.12782e-06 0)
(5.23068e-06 4.26155e-06 0)
(2.50144e-06 1.68977e-06 0)
(2.66529e-06 1.83298e-06 0)
(2.8258e-06 1.97273e-06 0)
(2.98087e-06 2.10926e-06 0)
(3.13164e-06 2.24286e-06 0)
(3.27813e-06 2.37414e-06 0)
(3.42078e-06 2.50361e-06 0)
(3.5599e-06 2.63176e-06 0)
(3.69586e-06 2.75905e-06 0)
(3.82898e-06 2.88586e-06 0)
(3.95961e-06 3.01255e-06 0)
(4.08804e-06 3.13941e-06 0)
(4.21458e-06 3.26672e-06 0)
(4.3395e-06 3.3947e-06 0)
(4.46308e-06 3.52361e-06 0)
(4.58558e-06 3.65367e-06 0)
(4.70723e-06 3.78518e-06 0)
(4.82834e-06 3.91842e-06 0)
(4.94907e-06 4.05388e-06 0)
(5.0699e-06 4.19186e-06 0)
(2.2676e-06 1.545e-06 0)
(2.43842e-06 1.69561e-06 0)
(2.60493e-06 1.84036e-06 0)
(2.76629e-06 1.98212e-06 0)
(2.92313e-06 2.12093e-06 0)
(3.07549e-06 2.25737e-06 0)
(3.22377e-06 2.3919e-06 0)
(3.36821e-06 2.52496e-06 0)
(3.50916e-06 2.65697e-06 0)
(3.64694e-06 2.7883e-06 0)
(3.78188e-06 2.91927e-06 0)
(3.91429e-06 3.05018e-06 0)
(4.04448e-06 3.18128e-06 0)
(4.17275e-06 3.3128e-06 0)
(4.29939e-06 3.44498e-06 0)
(4.42471e-06 3.57804e-06 0)
(4.54896e-06 3.71223e-06 0)
(4.67251e-06 3.84783e-06 0)
(4.79557e-06 3.98526e-06 0)
(4.91877e-06 4.12479e-06 0)
(2.11158e-06 1.45836e-06 0)
(2.28241e-06 1.60896e-06 0)
(2.44897e-06 1.75488e-06 0)
(2.61085e-06 1.89825e-06 0)
(2.76849e-06 2.03902e-06 0)
(2.92185e-06 2.17763e-06 0)
(3.07127e-06 2.31442e-06 0)
(3.21692e-06 2.44976e-06 0)
(3.35909e-06 2.58399e-06 0)
(3.49806e-06 2.71741e-06 0)
(3.63412e-06 2.85032e-06 0)
(3.76757e-06 2.98296e-06 0)
(3.89868e-06 3.11558e-06 0)
(4.02777e-06 3.24837e-06 0)
(4.15512e-06 3.38153e-06 0)
(4.28102e-06 3.51527e-06 0)
(4.40577e-06 3.64979e-06 0)
(4.52975e-06 3.78532e-06 0)
(4.6532e-06 3.9222e-06 0)
(4.77682e-06 4.06061e-06 0)
(1.97385e-06 1.37519e-06 0)
(2.14161e-06 1.52532e-06 0)
(2.30646e-06 1.67166e-06 0)
(2.46711e-06 1.81599e-06 0)
(2.6241e-06 1.95819e-06 0)
(2.77718e-06 2.09851e-06 0)
(2.92661e-06 2.23722e-06 0)
(3.07247e-06 2.37456e-06 0)
(3.21501e-06 2.5108e-06 0)
(3.35442e-06 2.64619e-06 0)
(3.49097e-06 2.78095e-06 0)
(3.6249e-06 2.91529e-06 0)
(3.7565e-06 3.04939e-06 0)
(3.88603e-06 3.18344e-06 0)
(4.01377e-06 3.31759e-06 0)
(4.14003e-06 3.45199e-06 0)
(4.26508e-06 3.58681e-06 0)
(4.38934e-06 3.72222e-06 0)
(4.51305e-06 3.85842e-06 0)
(4.63697e-06 3.99555e-06 0)
(1.85042e-06 1.29509e-06 0)
(2.01416e-06 1.444e-06 0)
(2.17605e-06 1.5902e-06 0)
(2.3343e-06 1.7351e-06 0)
(2.48953e-06 1.87837e-06 0)
(2.64127e-06 2.02013e-06 0)
(2.78975e-06 2.16052e-06 0)
(2.93496e-06 2.29968e-06 0)
(3.07707e-06 2.43778e-06 0)
(3.21623e-06 2.57501e-06 0)
(3.35267e-06 2.71153e-06 0)
(3.48658e-06 2.84748e-06 0)
(3.61821e-06 2.98303e-06 0)
(3.74782e-06 3.11829e-06 0)
(3.87566e-06 3.25338e-06 0)
(4.00202e-06 3.38842e-06 0)
(4.12719e-06 3.5235e-06 0)
(4.25155e-06 3.65874e-06 0)
(4.3754e-06 3.79421e-06 0)
(4.49948e-06 3.92996e-06 0)
(1.73986e-06 1.21891e-06 0)
(1.89868e-06 1.36614e-06 0)
(2.0566e-06 1.51172e-06 0)
(2.21148e-06 1.65669e-06 0)
(2.364e-06 1.8006e-06 0)
(2.51352e-06 1.9434e-06 0)
(2.66024e-06 2.08513e-06 0)
(2.80404e-06 2.22581e-06 0)
(2.94505e-06 2.36554e-06 0)
(3.08336e-06 2.50441e-06 0)
(3.21914e-06 2.64252e-06 0)
(3.35256e-06 2.77997e-06 0)
(3.48383e-06 2.91686e-06 0)
(3.61317e-06 3.05325e-06 0)
(3.74082e-06 3.18923e-06 0)
(3.86704e-06 3.32485e-06 0)
(3.99214e-06 3.46015e-06 0)
(4.11639e-06 3.59517e-06 0)
(4.24033e-06 3.72982e-06 0)
(4.3645e-06 3.86414e-06 0)
(1.64004e-06 1.14659e-06 0)
(1.79345e-06 1.29174e-06 0)
(1.94673e-06 1.43628e-06 0)
(2.09758e-06 1.58094e-06 0)
(2.24667e-06 1.7251e-06 0)
(2.39329e-06 1.86862e-06 0)
(2.53756e-06 2.01138e-06 0)
(2.67932e-06 2.15332e-06 0)
(2.81864e-06 2.29444e-06 0)
(2.95556e-06 2.43475e-06 0)
(3.09021e-06 2.57428e-06 0)
(3.22272e-06 2.71307e-06 0)
(3.35326e-06 2.85117e-06 0)
(3.48202e-06 2.9886e-06 0)
(3.60923e-06 3.12538e-06 0)
(3.73513e-06 3.26152e-06 0)
(3.85995e-06 3.39699e-06 0)
(3.98409e-06 3.53171e-06 0)
(4.10777e-06 3.66558e-06 0)
(4.2317e-06 3.79855e-06 0)
(1.54924e-06 1.07819e-06 0)
(1.69693e-06 1.22101e-06 0)
(1.8451e-06 1.36422e-06 0)
(1.99143e-06 1.50822e-06 0)
(2.13655e-06 1.65231e-06 0)
(2.27972e-06 1.79621e-06 0)
(2.42101e-06 1.9397e-06 0)
(2.5602e-06 2.08261e-06 0)
(2.69735e-06 2.22486e-06 0)
(2.83243e-06 2.36638e-06 0)
(2.96554e-06 2.50713e-06 0)
(3.09677e-06 2.64709e-06 0)
(3.22626e-06 2.78625e-06 0)
(3.35418e-06 2.92459e-06 0)
(3.4807e-06 3.06208e-06 0)
(3.60607e-06 3.19866e-06 0)
(3.73048e-06 3.33425e-06 0)
(3.85429e-06 3.46872e-06 0)
(3.97767e-06 3.60183e-06 0)
(4.10131e-06 3.73347e-06 0)
(1.46575e-06 1.01354e-06 0)
(1.60757e-06 1.15387e-06 0)
(1.75035e-06 1.29553e-06 0)
(1.89183e-06 1.43862e-06 0)
(2.0326e-06 1.58236e-06 0)
(2.1719e-06 1.72637e-06 0)
(2.30979e-06 1.87031e-06 0)
(2.44602e-06 2.01394e-06 0)
(2.58059e-06 2.15707e-06 0)
(2.71345e-06 2.29957e-06 0)
(2.84467e-06 2.44134e-06 0)
(2.97431e-06 2.58228e-06 0)
(3.10248e-06 2.72235e-06 0)
(3.22932e-06 2.86146e-06 0)
(3.35496e-06 2.99954e-06 0)
(3.47963e-06 3.13648e-06 0)
(3.60348e-06 3.27215e-06 0)
(3.72683e-06 3.40636e-06 0)
(3.84982e-06 3.53877e-06 0)
(3.97306e-06 3.66922e-06 0)
(1.38807e-06 9.52449e-07 0)
(1.52396e-06 1.09024e-06 0)
(1.66119e-06 1.23022e-06 0)
(1.79759e-06 1.37221e-06 0)
(1.93374e-06 1.51538e-06 0)
(2.06888e-06 1.65927e-06 0)
(2.20305e-06 1.80342e-06 0)
(2.33598e-06 1.94752e-06 0)
(2.46766e-06 2.0913e-06 0)
(2.59802e-06 2.23456e-06 0)
(2.72707e-06 2.37712e-06 0)
(2.85487e-06 2.51887e-06 0)
(2.98149e-06 2.65966e-06 0)
(3.10704e-06 2.7994e-06 0)
(3.23164e-06 2.93796e-06 0)
(3.35545e-06 3.07518e-06 0)
(3.47861e-06 3.21089e-06 0)
(3.6014e-06 3.34485e-06 0)
(3.72391e-06 3.47666e-06 0)
(3.84664e-06 3.60607e-06 0)
(1.3148e-06 8.94681e-07 0)
(1.44475e-06 1.02997e-06 0)
(1.57634e-06 1.1682e-06 0)
(1.70753e-06 1.30898e-06 0)
(1.83887e-06 1.45142e-06 0)
(1.96964e-06 1.59498e-06 0)
(2.09986e-06 1.73914e-06 0)
(2.22927e-06 1.88349e-06 0)
(2.35782e-06 2.0277e-06 0)
(2.48543e-06 2.17149e-06 0)
(2.61211e-06 2.31466e-06 0)
(2.73787e-06 2.45701e-06 0)
(2.86276e-06 2.59836e-06 0)
(2.98686e-06 2.73858e-06 0)
(3.11026e-06 2.87749e-06 0)
(3.2331e-06 3.01491e-06 0)
(3.35549e-06 3.15063e-06 0)
(3.47762e-06 3.28436e-06 0)
(3.59957e-06 3.41567e-06 0)
(3.72171e-06 3.54427e-06 0)
(1.24464e-06 8.4001e-07 0)
(1.36868e-06 9.72896e-07 0)
(1.49459e-06 1.10936e-06 0)
(1.62049e-06 1.24887e-06 0)
(1.74691e-06 1.39047e-06 0)
(1.87316e-06 1.53356e-06 0)
(1.99927e-06 1.67753e-06 0)
(2.12498e-06 1.82194e-06 0)
(2.25024e-06 1.96637e-06 0)
(2.37495e-06 2.11051e-06 0)
(2.49909e-06 2.25407e-06 0)
(2.62266e-06 2.39683e-06 0)
(2.74569e-06 2.53858e-06 0)
(2.86822e-06 2.67912e-06 0)
(2.99033e-06 2.81826e-06 0)
(3.11211e-06 2.9558e-06 0)
(3.23364e-06 3.09148e-06 0)
(3.35505e-06 3.22503e-06 0)
(3.47638e-06 3.35595e-06 0)
(3.59788e-06 3.48397e-06 0)
(1.17639e-06 7.88244e-07 0)
(1.29454e-06 9.18861e-07 0)
(1.41475e-06 1.05362e-06 0)
(1.53532e-06 1.19182e-06 0)
(1.65673e-06 1.33251e-06 0)
(1.77839e-06 1.475e-06 0)
(1.90029e-06 1.61864e-06 0)
(2.0222e-06 1.76292e-06 0)
(2.14406e-06 1.90739e-06 0)
(2.26576e-06 2.05168e-06 0)
(2.38727e-06 2.19545e-06 0)
(2.50856e-06 2.33844e-06 0)
(2.62964e-06 2.4804e-06 0)
(2.75053e-06 2.62111e-06 0)
(2.87128e-06 2.76036e-06 0)
(2.99194e-06 2.89793e-06 0)
(3.11255e-06 3.03355e-06 0)
(3.2332e-06 3.16693e-06 0)
(3.35388e-06 3.29761e-06 0)
(3.4747e-06 3.42528e-06 0)
(1.10889e-06 7.39206e-07 0)
(1.22115e-06 8.6772e-07 0)
(1.33563e-06 1.00083e-06 0)
(1.45084e-06 1.13775e-06 0)
(1.56722e-06 1.27746e-06 0)
(1.68424e-06 1.41926e-06 0)
(1.80189e-06 1.56244e-06 0)
(1.91996e-06 1.70644e-06 0)
(2.03838e-06 1.85078e-06 0)
(2.15703e-06 1.99502e-06 0)
(2.27586e-06 2.13882e-06 0)
(2.39484e-06 2.28186e-06 0)
(2.51394e-06 2.42387e-06 0)
(2.63316e-06 2.56462e-06 0)
(2.75252e-06 2.70385e-06 0)
(2.87203e-06 2.84136e-06 0)
(2.99171e-06 2.97687e-06 0)
(3.11157e-06 3.11012e-06 0)
(3.23159e-06 3.24067e-06 0)
(3.35173e-06 3.36824e-06 0)
(1.04099e-06 6.92822e-07 0)
(1.14733e-06 8.19403e-07 0)
(1.25606e-06 9.50954e-07 0)
(1.3659e-06 1.08659e-06 0)
(1.47724e-06 1.22529e-06 0)
(1.58962e-06 1.3663e-06 0)
(1.70303e-06 1.5089e-06 0)
(1.81727e-06 1.65248e-06 0)
(1.93226e-06 1.79651e-06 0)
(2.04788e-06 1.94055e-06 0)
(2.16406e-06 2.08419e-06 0)
(2.28075e-06 2.22712e-06 0)
(2.39789e-06 2.36902e-06 0)
(2.51546e-06 2.50965e-06 0)
(2.63344e-06 2.64875e-06 0)
(2.75181e-06 2.78611e-06 0)
(2.87056e-06 2.92147e-06 0)
(2.98966e-06 3.0546e-06 0)
(3.10902e-06 3.18512e-06 0)
(3.22851e-06 3.31282e-06 0)
(9.71488e-07 6.48968e-07 0)
(1.07185e-06 7.73784e-07 0)
(1.1748e-06 9.03852e-07 0)
(1.27927e-06 1.03823e-06 0)
(1.38559e-06 1.17588e-06 0)
(1.49337e-06 1.31603e-06 0)
(1.6026e-06 1.45792e-06 0)
(1.71308e-06 1.60094e-06 0)
(1.82473e-06 1.74451e-06 0)
(1.93741e-06 1.88818e-06 0)
(2.05103e-06 2.03151e-06 0)
(2.16552e-06 2.17416e-06 0)
(2.28079e-06 2.31581e-06 0)
(2.39678e-06 2.45618e-06 0)
(2.51345e-06 2.59504e-06 0)
(2.63075e-06 2.73216e-06 0)
(2.74862e-06 2.86732e-06 0)
(2.86698e-06 3.00032e-06 0)
(2.98573e-06 3.13089e-06 0)
(3.10462e-06 3.25889e-06 0)
(8.99163e-07 6.07781e-07 0)
(9.93442e-07 7.30954e-07 0)
(1.09058e-06 8.59577e-07 0)
(1.18968e-06 9.92675e-07 0)
(1.29104e-06 1.12921e-06 0)
(1.39431e-06 1.2684e-06 0)
(1.49947e-06 1.40946e-06 0)
(1.60634e-06 1.55176e-06 0)
(1.7148e-06 1.69471e-06 0)
(1.8247e-06 1.83783e-06 0)
(1.93594e-06 1.98068e-06 0)
(2.04839e-06 2.1229e-06 0)
(2.16195e-06 2.26415e-06 0)
(2.27651e-06 2.40414e-06 0)
(2.39201e-06 2.54265e-06 0)
(2.50833e-06 2.67944e-06 0)
(2.62541e-06 2.81434e-06 0)
(2.74312e-06 2.94719e-06 0)
(2.86132e-06 3.07785e-06 0)
(2.97971e-06 3.20627e-06 0)
(8.22579e-07 5.69059e-07 0)
(9.10667e-07 6.90687e-07 0)
(1.00195e-06 8.17889e-07 0)
(1.09573e-06 9.49687e-07 0)
(1.19223e-06 1.08504e-06 0)
(1.29115e-06 1.22316e-06 0)
(1.39244e-06 1.36326e-06 0)
(1.4959e-06 1.50469e-06 0)
(1.60141e-06 1.64687e-06 0)
(1.70879e-06 1.7893e-06 0)
(1.8179e-06 1.93152e-06 0)
(1.92857e-06 2.07316e-06 0)
(2.04066e-06 2.21389e-06 0)
(2.15404e-06 2.3534e-06 0)
(2.26857e-06 2.49145e-06 0)
(2.38412e-06 2.62784e-06 0)
(2.50056e-06 2.76242e-06 0)
(2.61774e-06 2.8951e-06 0)
(2.73549e-06 3.02583e-06 0)
(2.85349e-06 3.15471e-06 0)
(7.40308e-07 5.33391e-07 0)
(8.22086e-07 6.53439e-07 0)
(9.07508e-07 7.79122e-07 0)
(9.96049e-07 9.09484e-07 0)
(1.08784e-06 1.04349e-06 0)
(1.18263e-06 1.18036e-06 0)
(1.28032e-06 1.3193e-06 0)
(1.38069e-06 1.45968e-06 0)
(1.48358e-06 1.60089e-06 0)
(1.58878e-06 1.74243e-06 0)
(1.6961e-06 1.88385e-06 0)
(1.80535e-06 2.02476e-06 0)
(1.91633e-06 2.16482e-06 0)
(2.02884e-06 2.30373e-06 0)
(2.14272e-06 2.44125e-06 0)
(2.25777e-06 2.57718e-06 0)
(2.37382e-06 2.71139e-06 0)
(2.49066e-06 2.84384e-06 0)
(2.60811e-06 2.97459e-06 0)
(2.72584e-06 3.10389e-06 0)
(6.50288e-07 4.99953e-07 0)
(7.25671e-07 6.18395e-07 0)
(8.05287e-07 7.42483e-07 0)
(8.88765e-07 8.71308e-07 0)
(9.76131e-07 1.00385e-06 0)
(1.06713e-06 1.13933e-06 0)
(1.1616e-06 1.27698e-06 0)
(1.25931e-06 1.41614e-06 0)
(1.36003e-06 1.55624e-06 0)
(1.46353e-06 1.69676e-06 0)
(1.56955e-06 1.83726e-06 0)
(1.67786e-06 1.97733e-06 0)
(1.7882e-06 2.11663e-06 0)
(1.90033e-06 2.25488e-06 0)
(2.01402e-06 2.39181e-06 0)
(2.129e-06 2.52724e-06 0)
(2.24503e-06 2.66104e-06 0)
(2.36186e-06 2.79322e-06 0)
(2.47924e-06 2.92391e-06 0)
(2.59687e-06 3.05349e-06 0)
(5.51305e-07 4.70672e-07 0)
(6.2025e-07 5.87126e-07 0)
(6.94199e-07 7.0923e-07 0)
(7.72858e-07 8.36129e-07 0)
(8.56142e-07 9.66831e-07 0)
(9.43759e-07 1.10057e-06 0)
(1.03549e-06 1.23658e-06 0)
(1.13104e-06 1.37422e-06 0)
(1.23014e-06 1.51292e-06 0)
(1.33247e-06 1.65216e-06 0)
(1.43775e-06 1.7915e-06 0)
(1.54568e-06 1.93054e-06 0)
(1.65595e-06 2.06893e-06 0)
(1.76826e-06 2.20638e-06 0)
(1.8823e-06 2.34266e-06 0)
(1.99776e-06 2.47755e-06 0)
(2.11429e-06 2.61097e-06 0)
(2.23156e-06 2.74288e-06 0)
(2.34923e-06 2.87347e-06 0)
(2.46694e-06 3.00312e-06 0)
(7.90766e-08 8.47659e-09 0)
(2.38901e-07 5.2473e-08 0)
(4.08765e-07 1.34433e-07 0)
(5.90867e-07 2.49015e-07 0)
(7.88671e-07 3.93067e-07 0)
(1.00329e-06 5.61491e-07 0)
(1.23557e-06 7.48808e-07 0)
(1.48513e-06 9.49271e-07 0)
(1.7512e-06 1.15709e-06 0)
(2.03238e-06 1.36745e-06 0)
(7.44867e-08 7.56664e-09 0)
(2.25197e-07 4.70907e-08 0)
(3.84968e-07 1.21498e-07 0)
(5.55505e-07 2.26478e-07 0)
(7.39965e-07 3.59646e-07 0)
(9.39382e-07 5.16719e-07 0)
(1.15462e-06 6.92942e-07 0)
(1.38533e-06 8.83244e-07 0)
(1.63064e-06 1.08209e-06 0)
(1.88912e-06 1.2856e-06 0)
(7.03607e-08 6.49517e-09 0)
(2.12902e-07 4.1651e-08 0)
(3.63742e-07 1.09007e-07 0)
(5.24031e-07 2.05035e-07 0)
(6.96582e-07 3.27938e-07 0)
(8.8227e-07 4.74086e-07 0)
(1.08202e-06 6.39339e-07 0)
(1.29569e-06 8.19326e-07 0)
(1.52294e-06 1.00903e-06 0)
(1.76224e-06 1.20564e-06 0)
(6.65841e-08 5.25268e-09 0)
(2.01698e-07 3.61864e-08 0)
(3.44629e-07 9.7166e-08 0)
(4.9602e-07 1.85224e-07 0)
(6.58379e-07 2.98997e-07 0)
(8.32356e-07 4.35356e-07 0)
(1.01881e-06 5.90608e-07 0)
(1.2175e-06 7.60844e-07 0)
(1.42844e-06 9.41319e-07 0)
(1.64976e-06 1.12959e-06 0)
(6.30545e-08 3.82759e-09 0)
(1.91245e-07 3.05142e-08 0)
(3.26919e-07 8.54523e-08 0)
(4.70255e-07 1.66091e-07 0)
(6.23491e-07 2.71386e-07 0)
(7.87067e-07 3.98611e-07 0)
(9.61829e-07 5.44464e-07 0)
(1.14744e-06 7.05475e-07 0)
(1.34427e-06 8.773e-07 0)
(1.54987e-06 1.05748e-06 0)
(5.97407e-08 2.24219e-09 0)
(1.81446e-07 2.46652e-08 0)
(3.10437e-07 7.39124e-08 0)
(4.46468e-07 1.47737e-07 0)
(5.91549e-07 2.45324e-07 0)
(7.45889e-07 3.6424e-07 0)
(9.10296e-07 5.01471e-07 0)
(1.08427e-06 6.53826e-07 0)
(1.26853e-06 8.1735e-07 0)
(1.46022e-06 9.8944e-07 0)
(5.65776e-08 4.90052e-10 0)
(1.72101e-07 1.85595e-08 0)
(2.94795e-07 6.23123e-08 0)
(4.24042e-07 1.29727e-07 0)
(5.61659e-07 2.20158e-07 0)
(7.07653e-07 3.31396e-07 0)
(8.62806e-07 4.60682e-07 0)
(1.02647e-06 6.05035e-07 0)
(1.19959e-06 7.60878e-07 0)
(1.37903e-06 9.25355e-07 0)
(5.35393e-08 -1.40751e-09 0)
(1.63126e-07 1.22191e-08 0)
(2.79838e-07 5.0652e-08 0)
(4.02716e-07 1.12035e-07 0)
(5.33415e-07 1.9584e-07 0)
(6.71758e-07 3.00015e-07 0)
(8.18496e-07 4.21997e-07 0)
(9.72872e-07 5.58943e-07 0)
(1.13596e-06 7.07622e-07 0)
(1.30456e-06 8.64978e-07 0)
(5.05873e-08 -3.45046e-09 0)
(1.54408e-07 5.61264e-09 0)
(2.65353e-07 3.88272e-08 0)
(3.82155e-07 9.44606e-08 0)
(5.06332e-07 1.72066e-07 0)
(6.37551e-07 2.69705e-07 0)
(7.76535e-07 3.84972e-07 0)
(9.22451e-07 5.15119e-07 0)
(1.07644e-06 6.57208e-07 0)
(1.23534e-06 8.08024e-07 0)
(4.76996e-08 -5.62569e-09 0)
(1.4588e-07 -1.2499e-09 0)
(2.51211e-07 2.68236e-08 0)
(3.62146e-07 7.69561e-08 0)
(4.80079e-07 1.48748e-07 0)
(6.04549e-07 2.40329e-07 0)
(7.3625e-07 3.49413e-07 0)
(8.74325e-07 4.73318e-07 0)
(1.01992e-06 6.09344e-07 0)
(1.17002e-06 7.54192e-07 0)
(4.48529e-08 -7.93153e-09 0)
(1.37473e-07 -8.38308e-09 0)
(2.37289e-07 1.45898e-08 0)
(3.42483e-07 5.94249e-08 0)
(4.54341e-07 1.25736e-07 0)
(5.72307e-07 2.11692e-07 0)
(6.97044e-07 3.15086e-07 0)
(8.27718e-07 4.33281e-07 0)
(9.65433e-07 5.63763e-07 0)
(1.10741e-06 7.03206e-07 0)
(4.20318e-08 -1.03642e-08 0)
(1.29145e-07 -1.5789e-08 0)
(2.23499e-07 2.10887e-09 0)
(3.23012e-07 4.18348e-08 0)
(4.28864e-07 1.02978e-07 0)
(5.4044e-07 1.83709e-07 0)
(6.58384e-07 2.81867e-07 0)
(7.81921e-07 3.94848e-07 0)
(9.12098e-07 5.20273e-07 0)
(1.04641e-06 6.54844e-07 0)
(3.92272e-08 -1.29296e-08 0)
(1.20878e-07 -2.34902e-08 0)
(2.09787e-07 -1.06589e-08 0)
(3.03608e-07 2.41344e-08 0)
(4.03424e-07 8.04049e-08 0)
(5.08598e-07 1.56294e-07 0)
(6.19769e-07 2.49647e-07 0)
(7.36264e-07 3.57879e-07 0)
(8.59068e-07 4.78715e-07 0)
(9.85977e-07 6.08912e-07 0)
(3.64388e-08 -1.56492e-08 0)
(1.12683e-07 -3.15141e-08 0)
(1.96134e-07 -2.37282e-08 0)
(2.84184e-07 6.33644e-09 0)
(3.77825e-07 5.80478e-08 0)
(4.76451e-07 1.29478e-07 0)
(5.80722e-07 2.18442e-07 0)
(6.901e-07 3.22368e-07 0)
(8.05516e-07 4.39053e-07 0)
(9.25086e-07 5.65339e-07 0)
(3.36911e-08 -1.85629e-08 0)
(1.04661e-07 -3.99302e-08 0)
(1.82614e-07 -3.71613e-08 0)
(2.64722e-07 -1.15986e-08 0)
(3.51909e-07 3.58866e-08 0)
(4.43677e-07 1.03244e-07 0)
(5.40744e-07 1.88227e-07 0)
(6.42746e-07 2.88267e-07 0)
(7.50572e-07 4.01216e-07 0)
(8.6267e-07 5.24016e-07 0)
(3.10379e-08 -2.18056e-08 0)
(9.69777e-08 -4.88408e-08 0)
(1.69352e-07 -5.09387e-08 0)
(2.45229e-07 -2.95175e-08 0)
(3.25524e-07 1.41611e-08 0)
(4.09944e-07 7.78741e-08 0)
(4.99318e-07 1.59288e-07 0)
(5.93493e-07 2.55841e-07 0)
(6.93336e-07 3.65433e-07 0)
(7.97633e-07 4.85125e-07 0)
(2.86741e-08 -2.55389e-08 0)
(9.01392e-08 -5.8448e-08 0)
(1.56766e-07 -6.51897e-08 0)
(2.25884e-07 -4.75025e-08 0)
(2.98564e-07 -7.17104e-09 0)
(3.74873e-07 5.33294e-08 0)
(4.55816e-07 1.31573e-07 0)
(5.41479e-07 2.25007e-07 0)
(6.32724e-07 3.31586e-07 0)
(7.28674e-07 4.485e-07 0)
(2.70233e-08 -3.04532e-08 0)
(8.47506e-08 -6.90644e-08 0)
(1.4528e-07 -7.96386e-08 0)
(2.06786e-07 -6.4856e-08 0)
(2.70845e-07 -2.72179e-08 0)
(3.38012e-07 3.0572e-08 0)
(4.09551e-07 1.0603e-07 0)
(4.858e-07 1.96663e-07 0)
(5.67627e-07 3.0049e-07 0)
(6.54483e-07 4.1486e-07 0)
(2.81073e-08 -3.7065e-08 0)
(8.29943e-08 -8.10788e-08 0)
(1.36277e-07 -9.45477e-08 0)
(1.88417e-07 -8.19591e-08 0)
(2.42147e-07 -4.64386e-08 0)
(2.98635e-07 9.04782e-09 0)
(3.59415e-07 8.203e-08 0)
(4.25032e-07 1.70103e-07 0)
(4.96358e-07 2.71386e-07 0)
(5.73115e-07 3.83392e-07 0)
(3.63316e-08 -4.90402e-08 0)
(8.63227e-08 -9.47716e-08 0)
(1.30447e-07 -1.08042e-07 0)
(1.70715e-07 -9.59131e-08 0)
(2.12127e-07 -6.17553e-08 0)
(2.56165e-07 -8.1972e-09 0)
(3.04675e-07 6.24656e-08 0)
(3.58291e-07 1.48039e-07 0)
(4.17912e-07 2.46765e-07 0)
(4.83408e-07 3.56348e-07 0)
)
;

boundaryField
{
    left
    {
        type            fixedDisplacement;
        value           uniform (0 0 0);
    }
    right
    {
        type            solidTraction;
        tractionSeries  
{
        file            "$FOAM_CASE/constant/timeVsTraction";
        outOfBounds     clamp;
}
        pressure        uniform 0;
        secondOrder     false;
        setEffectiveTraction false;
        relaxationFactor 1;
        value           nonuniform List<vector> 
30
(
(6.54486e-06 4.79841e-06 1.18469e-22)
(6.39234e-06 4.7434e-06 1.28838e-23)
(6.23848e-06 4.68877e-06 -4.791e-26)
(6.08284e-06 4.63352e-06 1.2359e-22)
(5.92544e-06 4.577e-06 -5.55419e-23)
(5.76664e-06 4.51866e-06 -4.87202e-23)
(5.60701e-06 4.45813e-06 -2.53868e-23)
(5.44721e-06 4.39525e-06 -7.9057e-23)
(5.28794e-06 4.33001e-06 8.07064e-23)
(5.12989e-06 4.26259e-06 5.53978e-23)
(4.98042e-06 4.19626e-06 9.30531e-25)
(4.83869e-06 4.13106e-06 2.86608e-37)
(4.69899e-06 4.06489e-06 2.97701e-23)
(4.56158e-06 3.99808e-06 2.92472e-23)
(4.4266e-06 3.93108e-06 -5.74852e-23)
(4.29373e-06 3.86435e-06 1.88748e-37)
(4.16319e-06 3.79813e-06 3.73714e-37)
(4.03473e-06 3.73289e-06 -2.73367e-23)
(3.90805e-06 3.66891e-06 2.69793e-23)
(3.78282e-06 3.60646e-06 1.82077e-37)
(3.65865e-06 3.54572e-06 1.82679e-37)
(3.53512e-06 3.48682e-06 1.82041e-37)
(3.4118e-06 3.42979e-06 9.10361e-38)
(3.28825e-06 3.37459e-06 -3.27002e-39)
(3.16406e-06 3.32109e-06 -9.76133e-38)
(3.03889e-06 3.26906e-06 -2.81073e-37)