/*--------------------------------*- C++ -*----------------------------------*\
  =========                 |
  \\      /  F ield         | OpenFOAM: The Open Source CFD Toolbox
   \\    /   O peration     | Website:  https://openfoam.org
    \\  /    A nd           | Version:  9
     \\/     M anipulation  |
\*---------------------------------------------------------------------------*/
FoamFile
{
    format      ascii;
    class       volScalarField;
    location    "5";
    object      epsilonEq;
}
// * * * * * * * * * * * * * * * * * * * * * * * * * * * * * * * * * * * * * //

dimensions      [0 0 0 0 0 0 0];

internalField   nonuniform List<scalar> 
1000
(
3.40836e-06
3.23531e-06
3.18615e-06
3.21003e-06
3.21345e-06
3.20656e-06
3.18421e-06
3.15026e-06
3.11221e-06
3.06509e-06
3.97306e-06
3.60673e-06
3.43008e-06
3.37501e-06
3.32623e-06
3.28424e-06
3.23567e-06
3.18406e-06
3.12584e-06
3.07431e-06
4.52513e-06
3.96461e-06
3.65092e-06
3.5059e-06
3.39635e-06
3.31282e-06
3.23357e-06
3.1599e-06
3.08274e-06
3.02085e-06
5.05365e-06
4.30445e-06
3.84922e-06
3.60568e-06
3.42786e-06
3.29747e-06
3.18439e-06
3.08716e-06
2.99163e-06
2.91877e-06
5.54237e-06
4.61826e-06
4.0213e-06
3.67365e-06
3.42149e-06
3.23972e-06
3.09033e-06
2.96817e-06
2.85529e-06
2.77077e-06
5.99313e-06
4.90347e-06
4.16459e-06
3.70943e-06
3.37876e-06
3.14298e-06
2.95619e-06
2.80889e-06
2.67975e-06
2.58325e-06
6.38124e-06
5.1415e-06
4.259e-06
3.69799e-06
3.29154e-06
3.0051e-06
2.78459e-06
2.6152e-06
2.47304e-06
2.36567e-06
6.74607e-06
5.32209e-06
4.28634e-06
3.62998e-06
3.15914e-06
2.83342e-06
2.58909e-06
2.40533e-06
2.25641e-06
2.14167e-06
6.99934e-06
5.34084e-06
4.15209e-06
3.43889e-06
2.95127e-06
2.62063e-06
2.3776e-06
2.1954e-06
2.05002e-06
1.93372e-06
7.21901e-06
5.03337e-06
3.83304e-06
3.16433e-06
2.74146e-06
2.4486e-06
2.23272e-06
2.06457e-06
1.92841e-06
1.81277e-06
9.44437e-09
2.7363e-08
1.22615e-07
2.54504e-07
3.997e-07
5.49775e-07
6.95722e-07
8.34852e-07
9.62699e-07
1.08119e-06
3.2132e-08
1.70627e-07
3.64036e-07
5.54574e-07
7.23852e-07
8.74255e-07
1.00563e-06
1.12312e-06
1.22411e-06
1.3189e-06
1.4064e-07
4.06438e-07
6.50643e-07
8.71889e-07
1.05666e-06
1.21022e-06
1.33515e-06
1.43988e-06
1.5221e-06
1.59967e-06
3.23607e-07
6.9485e-07
9.70385e-07
1.20375e-06
1.38986e-06
1.53911e-06
1.65522e-06
1.74809e-06
1.81488e-06
1.87878e-06
5.83888e-07
1.01987e-06
1.3136e-06
1.54878e-06
1.72625e-06
1.86363e-06
1.96605e-06
2.04429e-06
2.09524e-06
2.14526e-06
9.20391e-07
1.36594e-06
1.66011e-06
1.88851e-06
2.05105e-06
2.17184e-06
2.25731e-06
2.31881e-06
2.35353e-06
2.38894e-06
1.32614e-06
1.72716e-06
2.00037e-06
2.2127e-06
2.35529e-06
2.4563e-06
2.52272e-06
2.56609e-06
2.58448e-06
2.60444e-06
1.79129e-06
2.09856e-06
2.32625e-06
2.51116e-06
2.62864e-06
2.70727e-06
2.75367e-06
2.77834e-06
2.78173e-06
2.78543e-06
2.30283e-06
2.47655e-06
2.63394e-06
2.77871e-06
2.86517e-06
2.91876e-06
2.9438e-06
2.94975e-06
2.93887e-06
2.92849e-06
2.84692e-06
2.85702e-06
2.92081e-06
3.01162e-06
3.05999e-06
3.0847e-06
3.08679e-06
3.0723e-06
3.0517e-06
3.0193e-06
1.18787e-06
1.27968e-06
1.36478e-06
1.44176e-06
1.51137e-06
1.57401e-06
1.63026e-06
1.68053e-06
1.72533e-06
1.765e-06
1.7999e-06
1.83027e-06
1.85631e-06
1.87815e-06
1.89584e-06
1.90947e-06
1.91899e-06
1.9247e-06
1.92652e-06
1.92541e-06
1.39223e-06
1.4458e-06
1.49977e-06
1.54996e-06
1.59705e-06
1.64082e-06
1.68128e-06
1.71841e-06
1.75233e-06
1.78307e-06
1.81076e-06
1.83547e-06
1.85728e-06
1.87626e-06
1.8924e-06
1.90572e-06
1.91602e-06
1.92318e-06
1.92624e-06
1.92456e-06
1.64306e-06
1.66035e-06
1.68227e-06
1.70347e-06
1.72502e-06
1.74649e-06
1.76773e-06
1.78838e-06
1.80834e-06
1.82736e-06
1.84537e-06
1.86224e-06
1.87791e-06
1.89227e-06
1.90521e-06
1.91652e-06
1.92571e-06
1.93218e-06
1.93398e-06
1.92993e-06
1.89738e-06
1.88441e-06
1.87873e-06
1.87427e-06
1.87227e-06
1.87244e-06
1.87472e-06
1.8786e-06
1.88398e-06
1.89039e-06
1.89769e-06
1.90556e-06
1.91382e-06
1.92221e-06
1.93045e-06
1.93815e-06
1.94456e-06
1.94891e-06
1.94887e-06
1.94336e-06
2.14198e-06
2.10409e-06
2.07469e-06
2.04819e-06
2.02547e-06
2.0063e-06
1.991e-06
1.97883e-06
1.96992e-06
1.96365e-06
1.95989e-06
1.95822e-06
1.95838e-06
1.96001e-06
1.96269e-06
1.96595e-06
1.9689e-06
1.97073e-06
1.96918e-06
1.96337e-06
2.36636e-06
2.30862e-06
2.25956e-06
2.21459e-06
2.17452e-06
2.13859e-06
2.10793e-06
2.08134e-06
2.05932e-06
2.0411e-06
2.02666e-06
2.01551e-06
2.0074e-06
2.00192e-06
1.99863e-06
1.99704e-06
1.99631e-06
1.99569e-06
1.99339e-06
1.98862e-06
2.56512e-06
2.49244e-06
2.42844e-06
2.36827e-06
2.31437e-06
2.26416e-06
2.2202e-06
2.18078e-06
2.14685e-06
2.11762e-06
2.09314e-06
2.07297e-06
2.05685e-06
2.0444e-06
2.03521e-06
2.02882e-06
2.02459e-06
2.02185e-06
2.01956e-06
2.01691e-06
2.73281e-06
2.64969e-06
2.57653e-06
2.50389e-06
2.43984e-06
2.37853e-06
2.32401e-06
2.27412e-06
2.23001e-06
2.19105e-06
2.1574e-06
2.12875e-06
2.10494e-06
2.08567e-06
2.07068e-06
2.05958e-06
2.05203e-06
2.04752e-06
2.04586e-06
2.0462e-06
2.86875e-06
2.77641e-06
2.70323e-06
2.62194e-06
2.55016e-06
2.47983e-06
2.41601e-06
2.35713e-06
2.30419e-06
2.25686e-06
2.21525e-06
2.17919e-06
2.14857e-06
2.12322e-06
2.10299e-06
2.08765e-06
2.0772e-06
2.07131e-06
2.07074e-06
2.07453e-06
2.97006e-06
2.87129e-06
2.80282e-06
2.7222e-06
2.64734e-06
2.57308e-06
2.50278e-06
2.43673e-06
2.37589e-06
2.32059e-06
2.27112e-06
2.22758e-06
2.19001e-06
2.15836e-06
2.13267e-06
2.11289e-06
2.09936e-06
2.09199e-06
2.09252e-06
2.09996e-06
3.00945e-06
2.91676e-06
2.84924e-06
2.77326e-06
2.69857e-06
2.62435e-06
2.55275e-06
2.4845e-06
2.4207e-06
2.36187e-06
2.30854e-06
2.26096e-06
2.21938e-06
2.18391e-06
2.15482e-06
2.13222e-06
2.11684e-06
2.10873e-06
2.11045e-06
2.12096e-06
2.93215e-06
2.88451e-06
2.82285e-06
2.75686e-06
2.68944e-06
2.62138e-06
2.5547e-06
2.4902e-06
2.42911e-06
2.37205e-06
2.31973e-06
2.27254e-06
2.23091e-06
2.19512e-06
2.16562e-06
2.1427e-06
2.12736e-06
2.11981e-06
2.12322e-06
2.13641e-06
2.86988e-06
2.83385e-06
2.7866e-06
2.73012e-06
2.6714e-06
2.60991e-06
2.54864e-06
2.48827e-06
2.43031e-06
2.3755e-06
2.32468e-06
2.27841e-06
2.23726e-06
2.20165e-06
2.17218e-06
2.14933e-06
2.13429e-06
2.12733e-06
2.13197e-06
2.14697e-06
2.79579e-06
2.77417e-06
2.73875e-06
2.69153e-06
2.64114e-06
2.58637e-06
2.53087e-06
2.47521e-06
2.42113e-06
2.3694e-06
2.32102e-06
2.27662e-06
2.23687e-06
2.20231e-06
2.17363e-06
2.15147e-06
2.13697e-06
2.1308e-06
2.13669e-06
2.15267e-06
2.71143e-06
2.70122e-06
2.67695e-06
2.63942e-06
2.59791e-06
2.55066e-06
2.50174e-06
2.45165e-06
2.40231e-06
2.35454e-06
2.30945e-06
2.26775e-06
2.23018e-06
2.19739e-06
2.17006e-06
2.14909e-06
2.13511e-06
2.13053e-06
2.13346e-06
2.15313e-06
2.62165e-06
2.62159e-06
2.60735e-06
2.57893e-06
2.5458e-06
2.50599e-06
2.46375e-06
2.41954e-06
2.37537e-06
2.33212e-06
2.29094e-06
2.2526e-06
2.2179e-06
2.18751e-06
2.16223e-06
2.14271e-06
2.13032e-06
2.12574e-06
2.13184e-06
2.14721e-06
2.52804e-06
2.53637e-06
2.53089e-06
2.51097e-06
2.48579e-06
2.45337e-06
2.4179e-06
2.37983e-06
2.34121e-06
2.30293e-06
2.26617e-06
2.23173e-06
2.20045e-06
2.17298e-06
2.15013e-06
2.13249e-06
2.12138e-06
2.11707e-06
2.1227e-06
2.13713e-06
2.43251e-06
2.44779e-06
2.44994e-06
2.4377e-06
2.41984e-06
2.39447e-06
2.36561e-06
2.33373e-06
2.30084e-06
2.26783e-06
2.23587e-06
2.20577e-06
2.17834e-06
2.15422e-06
2.13417e-06
2.11871e-06
2.10897e-06
2.10525e-06
2.11017e-06
2.12262e-06
2.33591e-06
2.3567e-06
2.36533e-06
2.35994e-06
2.34879e-06
2.33012e-06
2.30771e-06
2.28203e-06
2.25499e-06
2.22747e-06
2.20062e-06
2.1752e-06
2.15201e-06
2.13163e-06
2.11472e-06
2.10173e-06
2.09356e-06
2.09036e-06
2.09433e-06
2.10443e-06
2.23865e-06
2.26375e-06
2.27785e-06
2.27853e-06
2.27352e-06
2.26119e-06
2.24502e-06
2.22548e-06
2.20437e-06
2.18252e-06
2.16101e-06
2.14057e-06
2.12192e-06
2.1056e-06
2.09216e-06
2.08191e-06
2.07553e-06
2.07302e-06
2.07591e-06
2.08328e-06
2.14057e-06
2.16899e-06
2.18768e-06
2.19378e-06
2.19444e-06
2.18815e-06
2.17809e-06
2.16468e-06
2.14958e-06
2.13355e-06
2.1176e-06
2.10239e-06
2.08857e-06
2.0766e-06
2.06691e-06
2.0597e-06
2.05535e-06
2.0537e-06
2.05557e-06
2.06011e-06
2.04122e-06
2.0722e-06
2.09483e-06
2.10588e-06
2.11189e-06
2.11147e-06
2.10746e-06
2.10023e-06
2.09126e-06
2.08124e-06
2.07106e-06
2.06131e-06
2.05256e-06
2.04519e-06
2.03951e-06
2.03561e-06
2.03356e-06
2.03305e-06
2.03411e-06
2.03592e-06
1.93963e-06
1.97272e-06
1.99891e-06
2.01468e-06
2.02596e-06
2.03144e-06
2.03359e-06
2.03271e-06
2.03009e-06
2.02631e-06
2.02214e-06
2.01809e-06
2.01463e-06
2.01207e-06
2.01062e-06
2.01026e-06
2.01081e-06
2.01175e-06
2.01236e-06
2.01178e-06
1.83484e-06
1.86996e-06
1.89964e-06
1.92023e-06
1.93694e-06
1.94855e-06
1.95716e-06
1.96295e-06
1.967e-06
1.96975e-06
1.97186e-06
1.97373e-06
1.97575e-06
1.97816e-06
1.98109e-06
1.98443e-06
1.98781e-06
1.99055e-06
1.99121e-06
1.98879e-06
1.72522e-06
1.76275e-06
1.79633e-06
1.82224e-06
1.84494e-06
1.86326e-06
1.87887e-06
1.89187e-06
1.90305e-06
1.91276e-06
1.92149e-06
1.92953e-06
1.9372e-06
1.94468e-06
1.95203e-06
1.95913e-06
1.96548e-06
1.97029e-06
1.97156e-06
1.96803e-06
1.61013e-06
1.65099e-06
1.6893e-06
1.72143e-06
1.75099e-06
1.77685e-06
1.80023e-06
1.82108e-06
1.83997e-06
1.85708e-06
1.87275e-06
1.88718e-06
1.9006e-06
1.91313e-06
1.92482e-06
1.93556e-06
1.94483e-06
1.95183e-06
1.95425e-06
1.95051e-06
1.48732e-06
1.53329e-06
1.57795e-06
1.61791e-06
1.65577e-06
1.69043e-06
1.72268e-06
1.75232e-06
1.77966e-06
1.80474e-06
1.82776e-06
1.84882e-06
1.86805e-06
1.88556e-06
1.90137e-06
1.91541e-06
1.92728e-06
1.93627e-06
1.94021e-06
1.93721e-06
1.35919e-06
1.41266e-06
1.46571e-06
1.51532e-06
1.56303e-06
1.60777e-06
1.64989e-06
1.68907e-06
1.72539e-06
1.7588e-06
1.78934e-06
1.81706e-06
1.842e-06
1.86422e-06
1.88374e-06
1.90055e-06
1.9144e-06
1.92481e-06
1.93016e-06
1.92856e-06
1.22321e-06
1.28817e-06
1.35294e-06
1.41498e-06
1.47478e-06
1.53133e-06
1.58464e-06
1.63431e-06
1.6803e-06
1.72246e-06
1.76079e-06
1.79526e-06
1.82587e-06
1.8526e-06
1.87543e-06
1.89431e-06
1.90908e-06
1.91964e-06
1.92525e-06
1.92511e-06
1.09534e-06
1.17507e-06
1.25381e-06
1.32956e-06
1.40221e-06
1.47079e-06
1.53518e-06
1.59494e-06
1.65002e-06
1.70028e-06
1.74572e-06
1.78629e-06
1.82196e-06
1.85266e-06
1.87824e-06
1.89857e-06
1.91337e-06
1.92274e-06
1.92644e-06
1.92583e-06
1.715e-06
1.83117e-06
2.02894e-06
2.24677e-06
2.46333e-06
2.65401e-06
2.80838e-06
2.91918e-06
2.98771e-06
3.00208e-06
1.62439e-06
1.73273e-06
1.91525e-06
2.12111e-06
2.33291e-06
2.52732e-06
2.69373e-06
2.82164e-06
2.91038e-06
2.94538e-06
1.54324e-06
1.64657e-06
1.81642e-06
2.00926e-06
2.21107e-06
2.40038e-06
2.56822e-06
2.70577e-06
2.81302e-06
2.8791e-06
1.46899e-06
1.56896e-06
1.7283e-06
1.90957e-06
2.10203e-06
2.2858e-06
2.45214e-06
2.59265e-06
2.70517e-06
2.79018e-06
1.39936e-06
1.49704e-06
1.64747e-06
1.81786e-06
2.00037e-06
2.17724e-06
2.34048e-06
2.4834e-06
2.5995e-06
2.69541e-06
1.33397e-06
1.43019e-06
1.57329e-06
1.73403e-06
1.90694e-06
2.07603e-06
2.23367e-06
2.37536e-06
2.49154e-06
2.59447e-06
1.27166e-06
1.36689e-06
1.50377e-06
1.65591e-06
1.81979e-06
1.98122e-06
2.13289e-06
2.27212e-06
2.38665e-06
2.4919e-06
1.21219e-06
1.30663e-06
1.43815e-06
1.58255e-06
1.73786e-06
1.89146e-06
2.0364e-06
2.17173e-06
2.28372e-06
2.38907e-06
1.15517e-06
1.2488e-06
1.37552e-06
1.51287e-06
1.66018e-06
1.80613e-06
1.94428e-06
2.0748e-06
2.18347e-06
2.28702e-06
1.1006e-06
1.19315e-06
1.3153e-06
1.44597e-06
1.58556e-06
1.72387e-06
1.85509e-06
1.98016e-06
2.08516e-06
2.18591e-06
1.04861e-06
1.13958e-06
1.25704e-06
1.3811e-06
1.51308e-06
1.64374e-06
1.76797e-06
1.88711e-06
1.98808e-06
2.08535e-06
9.99618e-07
1.08822e-06
1.20047e-06
1.31755e-06
1.4417e-06
1.56445e-06
1.68153e-06
1.79439e-06
1.8911e-06
1.98455e-06
9.54461e-07
1.03944e-06
1.14531e-06
1.2545e-06
1.37017e-06
1.48456e-06
1.5942e-06
1.70049e-06
1.79276e-06
1.88225e-06
9.14382e-07
9.93855e-07
1.09146e-06
1.19126e-06
1.29734e-06
1.40263e-06
1.50442e-06
1.60388e-06
1.69159e-06
1.77714e-06
8.81753e-07
9.52412e-07
1.03823e-06
1.12597e-06
1.22069e-06
1.31592e-06
1.40944e-06
1.50195e-06
1.58522e-06
1.66712e-06
8.59418e-07
9.15596e-07
9.84844e-07
1.05741e-06
1.1387e-06
1.22278e-06
1.30759e-06
1.39317e-06
1.47232e-06
1.5511e-06
8.53581e-07
8.84275e-07
9.27268e-07
9.79329e-07
1.04468e-06
1.1169e-06
1.19328e-06
1.27275e-06
1.34892e-06
1.42589e-06
8.6554e-07
8.52579e-07
8.60971e-07
8.89536e-07
9.37697e-07
9.98071e-07
1.06691e-06
1.14164e-06
1.21649e-06
1.29339e-06
9.10416e-07
8.12487e-07
7.65668e-07
7.65544e-07
7.98483e-07
8.50718e-07
9.16305e-07
9.90607e-07
1.06833e-06
1.14905e-06
9.29821e-07
7.12275e-07
6.34366e-07
6.12089e-07
6.37632e-07
6.87599e-07
7.55661e-07
8.34984e-07
9.20406e-07
1.00931e-06
)
;

boundaryField
{
    left
    {
        type            calculated;
        value           nonuniform List<scalar> 
30
(
1.69516e-06
1.60562e-06
1.52548e-06
1.45211e-06
1.38346e-06
1.31913e-06
1.25807e-06
1.20012e-06
1.14496e-06
1.09267e-06
1.04348e-06
9.97916e-07
9.56884e-07
9.21764e-07
8.95046e-07
8.80428e-07
8.85324e-07
9.18899e-07
1.01163e-06
1.15728e-06
7.68575e-06
4.92608e-06
3.709e-06
3.08278e-06
2.69266e-06
2.41591e-06
2.20833e-06
2.04355e-06
1.90896e-06
1.79288e-06
)
;
    }
    right
    {
        type            calculated;
        value           nonuniform List<scalar> 
30
(
1.92508e-06
1.92457e-06
1.92976e-06
1.94309e-06
1.96304e-06
1.9883e-06
2.01667e-06
2.0461e-06
2.07458e-06
2.10025e-06
2.12134e-06
2.13704e-06
2.14766e-06
2.1534e-06
2.15333e-06
2.14784e-06
2.13779e-06
2.12318e-06
2.10485e-06
2.08355e-06
2.06023e-06
2.03591e-06
2.01166e-06
1.98859e-06
1.96782e-06
1.95032e-06
1.9371e-06
1.92854e-06
1.92519e-06
1.92545e-06
)
;
    }
    down
    {
        type            calculated;
        value           nonuniform List<scalar> 
30
(
8.29974e-09
7.72871e-09
8.82407e-08
2.15571e-07
3.62469e-07
5.16139e-07
6.66367e-07
8.09619e-07
9.411e-07
1.06292e-06
1.17256e-06
1.26818e-06
1.35599e-06
1.43496e-06
1.5062e-06
1.57005e-06
1.62729e-06
1.67833e-06
1.72375e-06
1.7639e-06
1.79918e-06
1.82985e-06
1.8561e-06
1.87809e-06
1.89586e-06
1.90951e-06
1.919e-06
1.92467e-06
1.9265e-06
1.92588e-06
)
;
    }
    up
    {
        type            calculated;
        value           nonuniform List<scalar> 
30
(
9.16299e-07
7.03908e-07
6.30011e-07
6.07288e-07
6.32132e-07
6.81354e-07
7.48955e-07
8.28145e-07
9.13501e-07
1.00278e-06
1.08909e-06
1.16946e-06
1.24897e-06
1.32536e-06
1.39867e-06
1.46783e-06
1.53276e-06
1.59299e-06
1.6485e-06
1.69914e-06
1.7449e-06
1.78575e-06
1.82165e-06
1.85253e-06
1.87823e-06
1.89863e-06
1.91343e-06
1.92277e-06
1.9264e-06
1.92612e-06
)
;
    }
    hole
    {
        type            calculated;
        value           nonuniform List<scalar> 
20
(
3.43334e-06
4.02749e-06
4.6083e-06
5.16413e-06
5.67776e-06
6.15171e-06
6.56085e-06
6.95529e-06
7.25847e-06
7.61544e-06
1.99058e-09
2.17015e-09
6.80238e-08
2.30677e-07
4.84558e-07
8.27396e-07
1.24789e-06
1.73408e-06
2.27078e-06
2.84272e-06
)
;
    }
    frontAndBack
    {
        type            empty;
    }
}


// ************************************************************************* //
