/*--------------------------------*- C++ -*----------------------------------*\
  =========                 |
  \\      /  F ield         | OpenFOAM: The Open Source CFD Toolbox
   \\    /   O peration     | Website:  https://openfoam.org
    \\  /    A nd           | Version:  9
     \\/     M anipulation  |
\*---------------------------------------------------------------------------*/
FoamFile
{
    format      ascii;
    class       pointVectorField;
    location    "5";
    object      pointD;
}
// * * * * * * * * * * * * * * * * * * * * * * * * * * * * * * * * * * * * * //

dimensions      [0 1 0 0 0 0 0];

internalField   nonuniform List<vector> 
2142
(
(3.70554e-06 1.08528e-06 -2.12095e-23)
(3.43421e-06 1.2568e-06 0)
(3.24457e-06 1.37907e-06 0)
(3.10666e-06 1.47835e-06 0)
(3.00741e-06 1.55972e-06 0)
(2.93703e-06 1.62977e-06 0)
(2.88847e-06 1.69138e-06 0)
(2.85678e-06 1.74707e-06 0)
(2.83814e-06 1.79834e-06 0)
(2.82974e-06 1.84624e-06 0)
(2.83146e-06 1.89823e-06 0)
(3.38593e-06 9.95634e-07 -1.43772e-22)
(3.09871e-06 1.13085e-06 0)
(2.89966e-06 1.22605e-06 0)
(2.75576e-06 1.30402e-06 0)
(2.65248e-06 1.36779e-06 0)
(2.57912e-06 1.42294e-06 0)
(2.52805e-06 1.47149e-06 0)
(2.49401e-06 1.51554e-06 0)
(2.47287e-06 1.55613e-06 0)
(2.46172e-06 1.59446e-06 0)
(2.41263e-06 1.59632e-06 0)
(3.05334e-06 9.07493e-07 -1.2426e-22)
(2.7583e-06 1.00227e-06 0)
(2.55511e-06 1.06831e-06 0)
(2.40906e-06 1.124e-06 0)
(2.30464e-06 1.16989e-06 0)
(2.23052e-06 1.21026e-06 0)
(2.17867e-06 1.24609e-06 0)
(2.14361e-06 1.27894e-06 0)
(2.12105e-06 1.30927e-06 0)
(2.10788e-06 1.33824e-06 0)
(2.06391e-06 1.33523e-06 0)
(2.70908e-06 8.21648e-07 -5.41016e-23)
(2.41498e-06 8.73631e-07 0)
(2.2134e-06 9.09515e-07 0)
(2.06939e-06 9.42697e-07 0)
(1.967e-06 9.71006e-07 0)
(1.89456e-06 9.97239e-07 0)
(1.84388e-06 1.0212e-06 0)
(1.80933e-06 1.04379e-06 0)
(1.78666e-06 1.06489e-06 0)
(1.77272e-06 1.08537e-06 0)
(1.73473e-06 1.07906e-06 0)
(2.3544e-06 7.3857e-07 -8.75174e-23)
(2.07017e-06 7.47362e-07 0)
(1.8762e-06 7.53295e-07 0)
(1.73871e-06 7.64617e-07 0)
(1.64176e-06 7.76327e-07 0)
(1.57364e-06 7.89599e-07 0)
(1.52615e-06 8.02965e-07 0)
(1.49373e-06 8.16582e-07 0)
(1.47227e-06 8.29732e-07 0)
(1.45866e-06 8.42905e-07 0)
(1.42694e-06 8.34767e-07 0)
(1.99093e-06 6.5823e-07 -1.0262e-22)
(1.72497e-06 6.25389e-07 0)
(1.54463e-06 6.029e-07 0)
(1.41833e-06 5.94094e-07 0)
(1.33043e-06 5.9104e-07 0)
(1.26934e-06 5.93211e-07 0)
(1.2271e-06 5.97788e-07 0)
(1.19836e-06 6.04138e-07 0)
(1.17928e-06 6.10964e-07 0)
(1.16694e-06 6.18319e-07 0)
(1.14147e-06 6.09763e-07 0)
(1.61978e-06 5.79746e-07 2.73794e-23)
(1.37946e-06 5.08803e-07 0)
(1.21891e-06 4.60917e-07 0)
(1.10874e-06 4.351e-07 0)
(1.03365e-06 4.20215e-07 0)
(9.82339e-07 4.13958e-07 0)
(9.47316e-07 4.12118e-07 0)
(9.23656e-07 4.13301e-07 0)
(9.07965e-07 4.15697e-07 0)
(8.97652e-07 4.18949e-07 0)
(8.78173e-07 4.11301e-07 0)
(1.24407e-06 5.00781e-07 2.06393e-22)
(1.03405e-06 3.97119e-07 0)
(8.99522e-07 3.28977e-07 0)
(8.10675e-07 2.91305e-07 0)
(7.52078e-07 2.68981e-07 0)
(7.12995e-07 2.57912e-07 0)
(6.86763e-07 2.52587e-07 0)
(6.69209e-07 2.51001e-07 0)
(6.5758e-07 2.51008e-07 0)
(6.49798e-07 2.51959e-07 0)
(6.35895e-07 2.46294e-07 0)
(8.65902e-07 4.14317e-07 1.32572e-22)
(6.87124e-07 2.86265e-07 0)
(5.86453e-07 2.07086e-07 0)
(5.24389e-07 1.66043e-07 0)
(4.85507e-07 1.42704e-07 0)
(4.60455e-07 1.31366e-07 0)
(4.43938e-07 1.25789e-07 0)
(4.32974e-07 1.23777e-07 0)
(4.25664e-07 1.23222e-07 0)
(4.20627e-07 1.23424e-07 0)
(4.11767e-07 1.20309e-07 0)
(5.08994e-07 3.05063e-07 4.431e-23)
(3.41595e-07 1.68569e-07 0)
(2.8436e-07 9.84984e-08 0)
(2.53765e-07 6.70456e-08 0)
(2.35802e-07 5.09504e-08 0)
(2.24582e-07 4.39293e-08 0)
(2.17205e-07 4.08128e-08 0)
(2.12287e-07 3.99392e-08 0)
(2.08926e-07 3.98677e-08 0)
(2.06497e-07 4.01482e-08 0)
(2.02136e-07 3.92355e-08 0)
(1.71193e-07 1.21243e-07 2.15676e-23)
(0 0 0)
(0 0 0)
(0 0 0)
(0 0 0)
(0 0 0)
(0 0 0)
(0 0 0)
(0 0 0)
(0 0 0)
(0 0 0)
(3.70554e-06 1.08528e-06 -2.12095e-23)
(3.43421e-06 1.2568e-06 0)
(3.24457e-06 1.37907e-06 0)
(3.10666e-06 1.47835e-06 0)
(3.00741e-06 1.55972e-06 0)
(2.93703e-06 1.62977e-06 0)
(2.88847e-06 1.69138e-06 0)
(2.85678e-06 1.74707e-06 0)
(2.83814e-06 1.79834e-06 0)
(2.82974e-06 1.84624e-06 0)
(2.83146e-06 1.89823e-06 0)
(3.38593e-06 9.95634e-07 -1.43772e-22)
(3.09871e-06 1.13085e-06 0)
(2.89966e-06 1.22605e-06 0)
(2.75576e-06 1.30402e-06 0)
(2.65248e-06 1.36779e-06 0)
(2.57912e-06 1.42294e-06 0)
(2.52805e-06 1.47149e-06 0)
(2.49401e-06 1.51554e-06 0)
(2.47287e-06 1.55613e-06 0)
(2.46172e-06 1.59446e-06 0)
(2.41263e-06 1.59632e-06 0)
(3.05334e-06 9.07493e-07 -1.2426e-22)
(2.7583e-06 1.00227e-06 0)
(2.55511e-06 1.06831e-06 0)
(2.40906e-06 1.124e-06 0)
(2.30464e-06 1.16989e-06 0)
(2.23052e-06 1.21026e-06 0)
(2.17867e-06 1.24609e-06 0)
(2.14361e-06 1.27894e-06 0)
(2.12105e-06 1.30927e-06 0)
(2.10788e-06 1.33824e-06 0)
(2.06391e-06 1.33523e-06 0)
(2.70908e-06 8.21648e-07 -5.41016e-23)
(2.41498e-06 8.73631e-07 0)
(2.2134e-06 9.09515e-07 0)
(2.06939e-06 9.42697e-07 0)
(1.967e-06 9.71006e-07 0)
(1.89456e-06 9.97239e-07 0)
(1.84388e-06 1.0212e-06 0)
(1.80933e-06 1.04379e-06 0)
(1.78666e-06 1.06489e-06 0)
(1.77272e-06 1.08537e-06 0)
(1.73473e-06 1.07906e-06 0)
(2.3544e-06 7.3857e-07 -8.75174e-23)
(2.07017e-06 7.47362e-07 0)
(1.8762e-06 7.53295e-07 0)
(1.73871e-06 7.64617e-07 0)
(1.64176e-06 7.76327e-07 0)
(1.57364e-06 7.89599e-07 0)
(1.52615e-06 8.02965e-07 0)
(1.49373e-06 8.16582e-07 0)
(1.47227e-06 8.29732e-07 0)
(1.45866e-06 8.42905e-07 0)
(1.42694e-06 8.34767e-07 0)
(1.99093e-06 6.5823e-07 -1.0262e-22)
(1.72497e-06 6.25389e-07 0)
(1.54463e-06 6.029e-07 0)
(1.41833e-06 5.94094e-07 0)
(1.33043e-06 5.9104e-07 0)
(1.26934e-06 5.93211e-07 0)
(1.2271e-06 5.97788e-07 0)
(1.19836e-06 6.04138e-07 0)
(1.17928e-06 6.10964e-07 0)
(1.16694e-06 6.18319e-07 0)
(1.14147e-06 6.09763e-07 0)
(1.61978e-06 5.79746e-07 2.73794e-23)
(1.37946e-06 5.08803e-07 0)
(1.21891e-06 4.60917e-07 0)
(1.10874e-06 4.351e-07 0)
(1.03365e-06 4.20215e-07 0)
(9.82339e-07 4.13958e-07 0)
(9.47316e-07 4.12118e-07 0)
(9.23656e-07 4.13301e-07 0)
(9.07965e-07 4.15697e-07 0)
(8.97652e-07 4.18949e-07 0)
(8.78173e-07 4.11301e-07 0)
(1.24407e-06 5.00781e-07 2.06393e-22)
(1.03405e-06 3.97119e-07 0)
(8.99522e-07 3.28977e-07 0)
(8.10675e-07 2.91305e-07 0)
(7.52078e-07 2.68981e-07 0)
(7.12995e-07 2.57912e-07 0)
(6.86763e-07 2.52587e-07 0)
(6.69209e-07 2.51001e-07 0)
(6.5758e-07 2.51008e-07 0)
(6.49798e-07 2.51959e-07 0)
(6.35895e-07 2.46294e-07 0)
(8.65902e-07 4.14317e-07 1.32572e-22)
(6.87124e-07 2.86265e-07 0)
(5.86453e-07 2.07086e-07 0)
(5.24389e-07 1.66043e-07 0)
(4.85507e-07 1.42704e-07 0)
(4.60455e-07 1.31366e-07 0)
(4.43938e-07 1.25789e-07 0)
(4.32974e-07 1.23777e-07 0)
(4.25664e-07 1.23222e-07 0)
(4.20627e-07 1.23424e-07 0)
(4.11767e-07 1.20309e-07 0)
(5.08994e-07 3.05063e-07 4.431e-23)
(3.41595e-07 1.68569e-07 0)
(2.8436e-07 9.84984e-08 0)
(2.53765e-07 6.70456e-08 0)
(2.35802e-07 5.09504e-08 0)
(2.24582e-07 4.39293e-08 0)
(2.17205e-07 4.08128e-08 0)
(2.12287e-07 3.99392e-08 0)
(2.08926e-07 3.98677e-08 0)
(2.06497e-07 4.01482e-08 0)
(2.02136e-07 3.92355e-08 0)
(1.71193e-07 1.21243e-07 2.15676e-23)
(0 0 0)
(0 0 0)
(0 0 0)
(0 0 0)
(0 0 0)
(0 0 0)
(0 0 0)
(0 0 0)
(0 0 0)
(0 0 0)
(6.01186e-06 1.78198e-06 -4.66721e-24)
(6.05472e-06 1.95447e-06 1.29212e-22)
(6.0494e-06 2.17628e-06 2.51135e-23)
(6.04577e-06 2.38211e-06 -3.04839e-23)
(6.04924e-06 2.57157e-06 -5.46146e-23)
(6.06185e-06 2.74657e-06 -6.19034e-23)
(6.08435e-06 2.90937e-06 4.66912e-23)
(6.11665e-06 3.06227e-06 7.21067e-23)
(6.15835e-06 3.20718e-06 5.03485e-23)
(6.20858e-06 3.34591e-06 4.78872e-23)
(6.26679e-06 3.4792e-06 7.66866e-23)
(5.8782e-06 1.71515e-06 -1.58487e-22)
(5.8598e-06 1.94672e-06 0)
(5.84441e-06 2.16713e-06 0)
(5.83615e-06 2.36993e-06 0)
(5.83706e-06 2.55514e-06 0)
(5.84783e-06 2.72502e-06 0)
(5.86841e-06 2.88208e-06 0)
(5.8983e-06 3.02881e-06 0)
(5.9369e-06 3.16728e-06 0)
(5.98333e-06 3.29943e-06 0)
(6.04043e-06 3.42687e-06 0)
(5.69627e-06 1.68685e-06 -1.23805e-22)
(5.65801e-06 1.92351e-06 0)
(5.62688e-06 2.1419e-06 0)
(5.60688e-06 2.34043e-06 0)
(5.59881e-06 2.52022e-06 0)
(5.60243e-06 2.68405e-06 0)
(5.61687e-06 2.83467e-06 0)
(5.64108e-06 2.97472e-06 0)
(5.67412e-06 3.10634e-06 0)
(5.71481e-06 3.23161e-06 0)
(5.7704e-06 3.35346e-06 0)
(5.50352e-06 1.64103e-06 5.20267e-23)
(5.44122e-06 1.88545e-06 0)
(5.39131e-06 2.10104e-06 0)
(5.3564e-06 2.29375e-06 0)
(5.3364e-06 2.46636e-06 0)
(5.33019e-06 2.62259e-06 0)
(5.33619e-06 2.76549e-06 0)
(5.35281e-06 2.89784e-06 0)
(5.37876e-06 3.02182e-06 0)
(5.41249e-06 3.13956e-06 0)
(5.46648e-06 3.25598e-06 0)
(5.29647e-06 1.58192e-06 -1.02858e-23)
(5.20606e-06 1.83309e-06 0)
(5.1353e-06 2.04466e-06 0)
(5.08381e-06 2.2301e-06 0)
(5.0504e-06 2.39401e-06 0)
(5.03304e-06 2.54121e-06 0)
(5.02944e-06 2.6751e-06 0)
(5.0375e-06 2.79863e-06 0)
(5.05557e-06 2.91402e-06 0)
(5.08174e-06 3.02339e-06 0)
(5.13431e-06 3.13439e-06 0)
(5.07318e-06 1.51236e-06 -2.68402e-22)
(4.9514e-06 1.76669e-06 0)
(4.8585e-06 1.97209e-06 0)
(4.78982e-06 2.14851e-06 0)
(4.74269e-06 2.30216e-06 0)
(4.71394e-06 2.43894e-06 0)
(4.70055e-06 2.56261e-06 0)
(4.6999e-06 2.67625e-06 0)
(4.71e-06 2.78213e-06 0)
(4.72858e-06 2.88233e-06 0)
(4.78014e-06 2.98797e-06 0)
(4.83289e-06 1.43494e-06 -1.58029e-22)
(4.67782e-06 1.68686e-06 0)
(4.56235e-06 1.88313e-06 0)
(4.47667e-06 2.04857e-06 0)
(4.41623e-06 2.19047e-06 0)
(4.37654e-06 2.31563e-06 0)
(4.35379e-06 2.42806e-06 0)
(4.34484e-06 2.53094e-06 0)
(4.34737e-06 2.62654e-06 0)
(4.35875e-06 2.71687e-06 0)
(4.40984e-06 2.81726e-06 0)
(4.57547e-06 1.35174e-06 1.98419e-22)
(4.38691e-06 1.59446e-06 0)
(4.24942e-06 1.77802e-06 0)
(4.14765e-06 1.93025e-06 0)
(4.07488e-06 2.05893e-06 0)
(4.02521e-06 2.17143e-06 0)
(3.99399e-06 2.2718e-06 0)
(3.97756e-06 2.36324e-06 0)
(3.97324e-06 2.44799e-06 0)
(3.97816e-06 2.5279e-06 0)
(4.02936e-06 2.62325e-06 0)
(4.30129e-06 1.26468e-06 3.71551e-22)
(4.08094e-06 1.4908e-06 0)
(3.92303e-06 1.65773e-06 0)
(3.80676e-06 1.79446e-06 0)
(3.72313e-06 1.90854e-06 0)
(3.66482e-06 2.00749e-06 0)
(3.62632e-06 2.09521e-06 0)
(3.60349e-06 2.17478e-06 0)
(3.59326e-06 2.24832e-06 0)
(3.59264e-06 2.31747e-06 0)
(3.64449e-06 2.40788e-06 0)
(4.01101e-06 1.17538e-06 1.7604e-22)
(3.76248e-06 1.37756e-06 0)
(3.58685e-06 1.52395e-06 0)
(3.45832e-06 1.64294e-06 0)
(3.36573e-06 1.74118e-06 0)
(3.30042e-06 1.8259e-06 0)
(3.25607e-06 1.90061e-06 0)
(3.22809e-06 1.96814e-06 0)
(3.21304e-06 2.03038e-06 0)
(3.20798e-06 2.08854e-06 0)
(3.26074e-06 2.174e-06 0)
(6.01186e-06 1.78198e-06 -4.66721e-24)
(6.05472e-06 1.95447e-06 1.29212e-22)
(6.0494e-06 2.17628e-06 2.51135e-23)
(6.04577e-06 2.38211e-06 -3.04839e-23)
(6.04924e-06 2.57157e-06 -5.46146e-23)
(6.06185e-06 2.74657e-06 -6.19034e-23)
(6.08435e-06 2.90937e-06 4.66912e-23)
(6.11665e-06 3.06227e-06 7.21067e-23)
(6.15835e-06 3.20718e-06 5.03485e-23)
(6.20858e-06 3.34591e-06 4.78872e-23)
(6.26679e-06 3.4792e-06 7.66866e-23)
(5.8782e-06 1.71515e-06 -1.58487e-22)
(5.8598e-06 1.94672e-06 0)
(5.84441e-06 2.16713e-06 0)
(5.83615e-06 2.36993e-06 0)
(5.83706e-06 2.55514e-06 0)
(5.84783e-06 2.72502e-06 0)
(5.86841e-06 2.88208e-06 0)
(5.8983e-06 3.02881e-06 0)
(5.9369e-06 3.16728e-06 0)
(5.98333e-06 3.29943e-06 0)
(6.04043e-06 3.42687e-06 0)
(5.69627e-06 1.68685e-06 -1.23805e-22)
(5.65801e-06 1.92351e-06 0)
(5.62688e-06 2.1419e-06 0)
(5.60688e-06 2.34043e-06 0)
(5.59881e-06 2.52022e-06 0)
(5.60243e-06 2.68405e-06 0)
(5.61687e-06 2.83467e-06 0)
(5.64108e-06 2.97472e-06 0)
(5.67412e-06 3.10634e-06 0)
(5.71481e-06 3.23161e-06 0)
(5.7704e-06 3.35346e-06 0)
(5.50352e-06 1.64103e-06 5.20267e-23)
(5.44122e-06 1.88545e-06 0)
(5.39131e-06 2.10104e-06 0)
(5.3564e-06 2.29375e-06 0)
(5.3364e-06 2.46636e-06 0)
(5.33019e-06 2.62259e-06 0)
(5.33619e-06 2.76549e-06 0)
(5.35281e-06 2.89784e-06 0)
(5.37876e-06 3.02182e-06 0)
(5.41249e-06 3.13956e-06 0)
(5.46648e-06 3.25598e-06 0)
(5.29647e-06 1.58192e-06 -1.02858e-23)
(5.20606e-06 1.83309e-06 0)
(5.1353e-06 2.04466e-06 0)
(5.08381e-06 2.2301e-06 0)
(5.0504e-06 2.39401e-06 0)
(5.03304e-06 2.54121e-06 0)
(5.02944e-06 2.6751e-06 0)
(5.0375e-06 2.79863e-06 0)
(5.05557e-06 2.91402e-06 0)
(5.08174e-06 3.02339e-06 0)
(5.13431e-06 3.13439e-06 0)
(5.07318e-06 1.51236e-06 -2.68402e-22)
(4.9514e-06 1.76669e-06 0)
(4.8585e-06 1.97209e-06 0)
(4.78982e-06 2.14851e-06 0)
(4.74269e-06 2.30216e-06 0)
(4.71394e-06 2.43894e-06 0)
(4.70055e-06 2.56261e-06 0)
(4.6999e-06 2.67625e-06 0)
(4.71e-06 2.78213e-06 0)
(4.72858e-06 2.88233e-06 0)
(4.78014e-06 2.98797e-06 0)
(4.83289e-06 1.43494e-06 -1.58029e-22)
(4.67782e-06 1.68686e-06 0)
(4.56235e-06 1.88313e-06 0)
(4.47667e-06 2.04857e-06 0)
(4.41623e-06 2.19047e-06 0)
(4.37654e-06 2.31563e-06 0)
(4.35379e-06 2.42806e-06 0)
(4.34484e-06 2.53094e-06 0)
(4.34737e-06 2.62654e-06 0)
(4.35875e-06 2.71687e-06 0)
(4.40984e-06 2.81726e-06 0)
(4.57547e-06 1.35174e-06 1.98419e-22)
(4.38691e-06 1.59446e-06 0)
(4.24942e-06 1.77802e-06 0)
(4.14765e-06 1.93025e-06 0)
(4.07488e-06 2.05893e-06 0)
(4.02521e-06 2.17143e-06 0)
(3.99399e-06 2.2718e-06 0)
(3.97756e-06 2.36324e-06 0)
(3.97324e-06 2.44799e-06 0)
(3.97816e-06 2.5279e-06 0)
(4.02936e-06 2.62325e-06 0)
(4.30129e-06 1.26468e-06 3.71551e-22)
(4.08094e-06 1.4908e-06 0)
(3.92303e-06 1.65773e-06 0)
(3.80676e-06 1.79446e-06 0)
(3.72313e-06 1.90854e-06 0)
(3.66482e-06 2.00749e-06 0)
(3.62632e-06 2.09521e-06 0)
(3.60349e-06 2.17478e-06 0)
(3.59326e-06 2.24832e-06 0)
(3.59264e-06 2.31747e-06 0)
(3.64449e-06 2.40788e-06 0)
(4.01101e-06 1.17538e-06 1.7604e-22)
(3.76248e-06 1.37756e-06 0)
(3.58685e-06 1.52395e-06 0)
(3.45832e-06 1.64294e-06 0)
(3.36573e-06 1.74118e-06 0)
(3.30042e-06 1.8259e-06 0)
(3.25607e-06 1.90061e-06 0)
(3.22809e-06 1.96814e-06 0)
(3.21304e-06 2.03038e-06 0)
(3.20798e-06 2.08854e-06 0)
(3.26074e-06 2.174e-06 0)
(6.333e-06 3.60872e-06 7.25617e-23)
(6.40606e-06 3.73619e-06 -6.23058e-23)
(6.48481e-06 3.86174e-06 -1.00083e-22)
(6.56872e-06 3.98597e-06 -4.53265e-23)
(6.65724e-06 4.10941e-06 -1.90902e-23)
(6.74986e-06 4.23245e-06 0)
(6.84614e-06 4.35544e-06 2.56201e-23)
(6.94566e-06 4.47869e-06 3.24839e-23)
(7.04807e-06 4.60245e-06 5.8171e-23)
(7.153e-06 4.72691e-06 7.23155e-23)
(7.26016e-06 4.85227e-06 1.39616e-23)
(7.36924e-06 4.97866e-06 1.41756e-23)
(7.47996e-06 5.10622e-06 -5.70077e-23)
(7.59204e-06 5.23504e-06 -5.90901e-23)
(7.70519e-06 5.36517e-06 1.914e-23)
(7.81914e-06 5.49661e-06 -2.64863e-23)
(7.93356e-06 5.62932e-06 9.03043e-26)
(8.04815e-06 5.76313e-06 -5.95507e-24)
(8.16249e-06 5.89774e-06 -1.25626e-22)
(8.20036e-06 5.98156e-06 -1.9463e-23)
(6.11108e-06 3.55248e-06 0)
(6.19036e-06 3.67724e-06 0)
(6.27426e-06 3.80034e-06 0)
(6.36233e-06 3.92244e-06 0)
(6.4542e-06 4.04401e-06 0)
(6.54947e-06 4.16545e-06 0)
(6.64783e-06 4.2871e-06 0)
(6.74895e-06 4.40923e-06 0)
(6.85254e-06 4.53208e-06 0)
(6.95833e-06 4.65583e-06 0)
(7.06607e-06 4.78067e-06 0)
(7.17552e-06 4.90672e-06 0)
(7.28644e-06 5.03411e-06 0)
(7.39863e-06 5.16292e-06 0)
(7.51185e-06 5.29321e-06 0)
(7.62591e-06 5.42497e-06 0)
(7.74058e-06 5.55816e-06 0)
(7.85566e-06 5.6926e-06 0)
(7.97093e-06 5.828e-06 0)
(8.08575e-06 5.96363e-06 8.20958e-23)
(5.84786e-06 3.47652e-06 0)
(5.93676e-06 3.60037e-06 0)
(6.02901e-06 3.72267e-06 0)
(6.12425e-06 3.84409e-06 0)
(6.22231e-06 3.96514e-06 0)
(6.3229e-06 4.0862e-06 0)
(6.42584e-06 4.20763e-06 0)
(6.53091e-06 4.32967e-06 0)
(6.63792e-06 4.45258e-06 0)
(6.74668e-06 4.57654e-06 0)
(6.85703e-06 4.70172e-06 0)
(6.96879e-06 4.82826e-06 0)
(7.08182e-06 4.95626e-06 0)
(7.19595e-06 5.08583e-06 0)
(7.31104e-06 5.21702e-06 0)
(7.42694e-06 5.34985e-06 0)
(7.54349e-06 5.48428e-06 0)
(7.66054e-06 5.62019e-06 0)
(7.77786e-06 5.75737e-06 0)
(7.89426e-06 5.89511e-06 8.02245e-24)
(5.55244e-06 3.37802e-06 0)
(5.65333e-06 3.50302e-06 0)
(5.75625e-06 3.62644e-06 0)
(5.86089e-06 3.74893e-06 0)
(5.96725e-06 3.87105e-06 0)
(6.07518e-06 3.99318e-06 0)
(6.18462e-06 4.11571e-06 0)
(6.29545e-06 4.23889e-06 0)
(6.40761e-06 4.36298e-06 0)
(6.52099e-06 4.48817e-06 0)
(6.63551e-06 4.61466e-06 0)
(6.75108e-06 4.74257e-06 0)
(6.86762e-06 4.87204e-06 0)
(6.98505e-06 5.00317e-06 0)
(7.10327e-06 5.13603e-06 0)
(7.22221e-06 5.27069e-06 0)
(7.34173e-06 5.40715e-06 0)
(7.46173e-06 5.54539e-06 0)
(7.58197e-06 5.68533e-06 0)
(7.70082e-06 5.82643e-06 7.72138e-23)
(5.23016e-06 3.25681e-06 0)
(5.34496e-06 3.38491e-06 0)
(5.46041e-06 3.51128e-06 0)
(5.57623e-06 3.63652e-06 0)
(5.69264e-06 3.76128e-06 0)
(5.80957e-06 3.88591e-06 0)
(5.92709e-06 4.01084e-06 0)
(6.04521e-06 4.13636e-06 0)
(6.16395e-06 4.26275e-06 0)
(6.2833e-06 4.39023e-06 0)
(6.40328e-06 4.51899e-06 0)
(6.52387e-06 4.64919e-06 0)
(6.64507e-06 4.78098e-06 0)
(6.76686e-06 4.91448e-06 0)
(6.88922e-06 5.04982e-06 0)
(7.0121e-06 5.18708e-06 0)
(7.13545e-06 5.32635e-06 0)
(7.25917e-06 5.46772e-06 0)
(7.38307e-06 5.61124e-06 0)
(7.50517e-06 5.75657e-06 4.253e-23)
(4.88701e-06 3.11227e-06 0)
(5.01714e-06 3.24546e-06 0)
(5.14652e-06 3.37669e-06 0)
(5.27488e-06 3.50641e-06 0)
(5.40265e-06 3.6354e-06 0)
(5.52984e-06 3.764e-06 0)
(5.65667e-06 3.89271e-06 0)
(5.78323e-06 4.02184e-06 0)
(5.90966e-06 4.15169e-06 0)
(6.03604e-06 4.28253e-06 0)
(6.16247e-06 4.41456e-06 0)
(6.28901e-06 4.54798e-06 0)
(6.41574e-06 4.68297e-06 0)
(6.5427e-06 4.81968e-06 0)
(6.66993e-06 4.95826e-06 0)
(6.79746e-06 5.09887e-06 0)
(6.92526e-06 5.24167e-06 0)
(7.05331e-06 5.38686e-06 0)
(7.18145e-06 5.53462e-06 0)
(7.30755e-06 5.68479e-06 -6.51638e-23)
(4.5285e-06 2.9449e-06 0)
(4.67489e-06 3.08509e-06 0)
(4.81918e-06 3.22301e-06 0)
(4.96103e-06 3.35889e-06 0)
(5.10112e-06 3.49366e-06 0)
(5.2395e-06 3.62768e-06 0)
(5.37655e-06 3.76149e-06 0)
(5.51243e-06 3.89545e-06 0)
(5.64739e-06 4.02992e-06 0)
(5.78159e-06 4.16518e-06 0)
(5.91522e-06 4.30148e-06 0)
(6.04842e-06 4.43906e-06 0)
(6.18133e-06 4.57811e-06 0)
(6.31406e-06 4.71883e-06 0)
(6.44672e-06 4.86142e-06 0)
(6.5794e-06 5.00608e-06 0)
(6.71213e-06 5.15304e-06 0)
(6.84495e-06 5.30261e-06 0)
(6.9778e-06 5.4551e-06 0)
(7.10853e-06 5.6105e-06 -4.63169e-23)
(4.16014e-06 2.75565e-06 0)
(4.3232e-06 2.90462e-06 0)
(4.4829e-06 3.05093e-06 0)
(4.63879e-06 3.19457e-06 0)
(4.79179e-06 3.33661e-06 0)
(4.94198e-06 3.47744e-06 0)
(5.08987e-06 3.61765e-06 0)
(5.23569e-06 3.75765e-06 0)
(5.37977e-06 3.89785e-06 0)
(5.52237e-06 4.03858e-06 0)
(5.66374e-06 4.18013e-06 0)
(5.80409e-06 4.32276e-06 0)
(5.94364e-06 4.46672e-06 0)
(6.08257e-06 4.61223e-06 0)
(6.22105e-06 4.75953e-06 0)
(6.35922e-06 4.90888e-06 0)
(6.49721e-06 5.06056e-06 0)
(6.63511e-06 5.21498e-06 0)
(6.77298e-06 5.37252e-06 0)
(6.90888e-06 5.53337e-06 -6.52774e-23)
(3.78734e-06 2.54629e-06 0)
(3.9669e-06 2.70564e-06 0)
(4.14206e-06 2.8618e-06 0)
(4.31217e-06 3.01464e-06 0)
(4.4783e-06 3.16523e-06 0)
(4.64061e-06 3.31411e-06 0)
(4.79965e-06 3.46188e-06 0)
(4.95577e-06 3.60904e-06 0)
(5.10934e-06 3.75602e-06 0)
(5.26069e-06 3.90321e-06 0)
(5.41014e-06 4.05095e-06 0)
(5.55797e-06 4.19952e-06 0)
(5.70446e-06 4.3492e-06 0)
(5.84986e-06 4.50026e-06 0)
(5.99439e-06 4.65295e-06 0)
(6.13828e-06 4.80758e-06 0)
(6.28172e-06 4.96448e-06 0)
(6.42488e-06 5.12411e-06 0)
(6.56796e-06 5.28692e-06 0)
(6.70947e-06 5.45329e-06 1.03087e-24)
(3.41496e-06 2.31936e-06 0)
(3.61016e-06 2.49023e-06 0)
(3.8002e-06 2.65727e-06 0)
(3.98438e-06 2.82057e-06 0)
(4.16362e-06 2.98092e-06 0)
(4.33817e-06 3.13899e-06 0)
(4.50855e-06 3.2954e-06 0)
(4.67516e-06 3.45071e-06 0)
(4.83842e-06 3.60543e-06 0)
(4.99873e-06 3.75998e-06 0)
(5.15646e-06 3.91474e-06 0)
(5.31195e-06 4.07004e-06 0)
(5.46553e-06 4.22619e-06 0)
(5.61753e-06 4.38348e-06 0)
(5.76823e-06 4.54218e-06 0)
(5.91792e-06 4.70263e-06 0)
(6.06687e-06 4.86517e-06 0)
(6.21536e-06 5.0303e-06 0)
(6.36371e-06 5.19849e-06 0)
(6.51115e-06 5.37038e-06 8.50651e-23)
(3.08441e-06 2.11288e-06 0)
(3.29126e-06 2.29366e-06 0)
(3.49241e-06 2.46959e-06 0)
(3.68749e-06 2.64173e-06 0)
(3.87707e-06 2.81057e-06 0)
(4.06144e-06 2.97677e-06 0)
(4.24102e-06 3.14094e-06 0)
(4.41621e-06 3.30364e-06 0)
(4.58745e-06 3.46537e-06 0)
(4.75513e-06 3.62659e-06 0)
(4.91967e-06 3.78769e-06 0)
(5.08144e-06 3.94902e-06 0)
(5.24082e-06 4.11089e-06 0)
(5.39817e-06 4.2736e-06 0)
(5.55383e-06 4.43744e-06 0)
(5.70814e-06 4.60272e-06 0)
(5.86146e-06 4.76979e-06 0)
(6.01412e-06 4.93911e-06 0)
(6.16659e-06 5.11113e-06 0)
(6.31887e-06 5.28675e-06 3.51777e-23)
(6.333e-06 3.60872e-06 7.25617e-23)
(6.40606e-06 3.73619e-06 -6.23058e-23)
(6.48481e-06 3.86174e-06 -1.00083e-22)
(6.56872e-06 3.98597e-06 -4.53265e-23)
(6.65724e-06 4.10941e-06 -1.90902e-23)
(6.74986e-06 4.23245e-06 0)
(6.84614e-06 4.35544e-06 2.56201e-23)
(6.94566e-06 4.47869e-06 3.24839e-23)
(7.04807e-06 4.60245e-06 5.8171e-23)
(7.153e-06 4.72691e-06 7.23155e-23)
(7.26016e-06 4.85227e-06 1.39616e-23)
(7.36924e-06 4.97866e-06 1.41756e-23)
(7.47996e-06 5.10622e-06 -5.70077e-23)
(7.59204e-06 5.23504e-06 -5.90901e-23)
(7.70519e-06 5.36517e-06 1.914e-23)
(7.81914e-06 5.49661e-06 -2.64863e-23)
(7.93356e-06 5.62932e-06 9.03043e-26)
(8.04815e-06 5.76313e-06 -5.95507e-24)
(8.16249e-06 5.89774e-06 -1.25626e-22)
(8.20036e-06 5.98156e-06 -1.9463e-23)
(6.11108e-06 3.55248e-06 0)
(6.19036e-06 3.67724e-06 0)
(6.27426e-06 3.80034e-06 0)
(6.36233e-06 3.92244e-06 0)
(6.4542e-06 4.04401e-06 0)
(6.54947e-06 4.16545e-06 0)
(6.64783e-06 4.2871e-06 0)
(6.74895e-06 4.40923e-06 0)
(6.85254e-06 4.53208e-06 0)
(6.95833e-06 4.65583e-06 0)
(7.06607e-06 4.78067e-06 0)
(7.17552e-06 4.90672e-06 0)
(7.28644e-06 5.03411e-06 0)
(7.39863e-06 5.16292e-06 0)
(7.51185e-06 5.29321e-06 0)
(7.62591e-06 5.42497e-06 0)
(7.74058e-06 5.55816e-06 0)
(7.85566e-06 5.6926e-06 0)
(7.97093e-06 5.828e-06 0)
(8.08575e-06 5.96363e-06 8.20958e-23)
(5.84786e-06 3.47652e-06 0)
(5.93676e-06 3.60037e-06 0)
(6.02901e-06 3.72267e-06 0)
(6.12425e-06 3.84409e-06 0)
(6.22231e-06 3.96514e-06 0)
(6.3229e-06 4.0862e-06 0)
(6.42584e-06 4.20763e-06 0)
(6.53091e-06 4.32967e-06 0)
(6.63792e-06 4.45258e-06 0)
(6.74668e-06 4.57654e-06 0)
(6.85703e-06 4.70172e-06 0)
(6.96879e-06 4.82826e-06 0)
(7.08182e-06 4.95626e-06 0)
(7.19595e-06 5.08583e-06 0)
(7.31104e-06 5.21702e-06 0)
(7.42694e-06 5.34985e-06 0)
(7.54349e-06 5.48428e-06 0)
(7.66054e-06 5.62019e-06 0)
(7.77786e-06 5.75737e-06 0)
(7.89426e-06 5.89511e-06 8.02245e-24)
(5.55244e-06 3.37802e-06 0)
(5.65333e-06 3.50302e-06 0)
(5.75625e-06 3.62644e-06 0)
(5.86089e-06 3.74893e-06 0)
(5.96725e-06 3.87105e-06 0)
(6.07518e-06 3.99318e-06 0)
(6.18462e-06 4.11571e-06 0)
(6.29545e-06 4.23889e-06 0)
(6.40761e-06 4.36298e-06 0)
(6.52099e-06 4.48817e-06 0)
(6.63551e-06 4.61466e-06 0)
(6.75108e-06 4.74257e-06 0)
(6.86762e-06 4.87204e-06 0)
(6.98505e-06 5.00317e-06 0)
(7.10327e-06 5.13603e-06 0)
(7.22221e-06 5.27069e-06 0)
(7.34173e-06 5.40715e-06 0)
(7.46173e-06 5.54539e-06 0)
(7.58197e-06 5.68533e-06 0)
(7.70082e-06 5.82643e-06 7.72138e-23)
(5.23016e-06 3.25681e-06 0)
(5.34496e-06 3.38491e-06 0)
(5.46041e-06 3.51128e-06 0)
(5.57623e-06 3.63652e-06 0)
(5.69264e-06 3.76128e-06 0)
(5.80957e-06 3.88591e-06 0)
(5.92709e-06 4.01084e-06 0)
(6.04521e-06 4.13636e-06 0)
(6.16395e-06 4.26275e-06 0)
(6.2833e-06 4.39023e-06 0)
(6.40328e-06 4.51899e-06 0)
(6.52387e-06 4.64919e-06 0)
(6.64507e-06 4.78098e-06 0)
(6.76686e-06 4.91448e-06 0)
(6.88922e-06 5.04982e-06 0)
(7.0121e-06 5.18708e-06 0)
(7.13545e-06 5.32635e-06 0)
(7.25917e-06 5.46772e-06 0)
(7.38307e-06 5.61124e-06 0)
(7.50517e-06 5.75657e-06 4.253e-23)
(4.88701e-06 3.11227e-06 0)
(5.01714e-06 3.24546e-06 0)
(5.14652e-06 3.37669e-06 0)
(5.27488e-06 3.50641e-06 0)
(5.40265e-06 3.6354e-06 0)
(5.52984e-06 3.764e-06 0)
(5.65667e-06 3.89271e-06 0)
(5.78323e-06 4.02184e-06 0)
(5.90966e-06 4.15169e-06 0)
(6.03604e-06 4.28253e-06 0)
(6.16247e-06 4.41456e-06 0)
(6.28901e-06 4.54798e-06 0)
(6.41574e-06 4.68297e-06 0)
(6.5427e-06 4.81968e-06 0)
(6.66993e-06 4.95826e-06 0)
(6.79746e-06 5.09887e-06 0)
(6.92526e-06 5.24167e-06 0)
(7.05331e-06 5.38686e-06 0)
(7.18145e-06 5.53462e-06 0)
(7.30755e-06 5.68479e-06 -6.51638e-23)
(4.5285e-06 2.9449e-06 0)
(4.67489e-06 3.08509e-06 0)
(4.81918e-06 3.22301e-06 0)
(4.96103e-06 3.35889e-06 0)
(5.10112e-06 3.49366e-06 0)
(5.2395e-06 3.62768e-06 0)
(5.37655e-06 3.76149e-06 0)
(5.51243e-06 3.89545e-06 0)
(5.64739e-06 4.02992e-06 0)
(5.78159e-06 4.16518e-06 0)
(5.91522e-06 4.30148e-06 0)
(6.04842e-06 4.43906e-06 0)
(6.18133e-06 4.57811e-06 0)
(6.31406e-06 4.71883e-06 0)
(6.44672e-06 4.86142e-06 0)
(6.5794e-06 5.00608e-06 0)
(6.71213e-06 5.15304e-06 0)
(6.84495e-06 5.30261e-06 0)
(6.9778e-06 5.4551e-06 0)
(7.10853e-06 5.6105e-06 -4.63169e-23)
(4.16014e-06 2.75565e-06 0)
(4.3232e-06 2.90462e-06 0)
(4.4829e-06 3.05093e-06 0)
(4.63879e-06 3.19457e-06 0)
(4.79179e-06 3.33661e-06 0)
(4.94198e-06 3.47744e-06 0)
(5.08987e-06 3.61765e-06 0)
(5.23569e-06 3.75765e-06 0)
(5.37977e-06 3.89785e-06 0)
(5.52237e-06 4.03858e-06 0)
(5.66374e-06 4.18013e-06 0)
(5.80409e-06 4.32276e-06 0)
(5.94364e-06 4.46672e-06 0)
(6.08257e-06 4.61223e-06 0)
(6.22105e-06 4.75953e-06 0)
(6.35922e-06 4.90888e-06 0)
(6.49721e-06 5.06056e-06 0)
(6.63511e-06 5.21498e-06 0)
(6.77298e-06 5.37252e-06 0)
(6.90888e-06 5.53337e-06 -6.52774e-23)
(3.78734e-06 2.54629e-06 0)
(3.9669e-06 2.70564e-06 0)
(4.14206e-06 2.8618e-06 0)
(4.31217e-06 3.01464e-06 0)
(4.4783e-06 3.16523e-06 0)
(4.64061e-06 3.31411e-06 0)
(4.79965e-06 3.46188e-06 0)
(4.95577e-06 3.60904e-06 0)
(5.10934e-06 3.75602e-06 0)
(5.26069e-06 3.90321e-06 0)
(5.41014e-06 4.05095e-06 0)
(5.55797e-06 4.19952e-06 0)
(5.70446e-06 4.3492e-06 0)
(5.84986e-06 4.50026e-06 0)
(5.99439e-06 4.65295e-06 0)
(6.13828e-06 4.80758e-06 0)
(6.28172e-06 4.96448e-06 0)
(6.42488e-06 5.12411e-06 0)
(6.56796e-06 5.28692e-06 0)
(6.70947e-06 5.45329e-06 1.03087e-24)
(3.41496e-06 2.31936e-06 0)
(3.61016e-06 2.49023e-06 0)
(3.8002e-06 2.65727e-06 0)
(3.98438e-06 2.82057e-06 0)
(4.16362e-06 2.98092e-06 0)
(4.33817e-06 3.13899e-06 0)
(4.50855e-06 3.2954e-06 0)
(4.67516e-06 3.45071e-06 0)
(4.83842e-06 3.60543e-06 0)
(4.99873e-06 3.75998e-06 0)
(5.15646e-06 3.91474e-06 0)
(5.31195e-06 4.07004e-06 0)
(5.46553e-06 4.22619e-06 0)
(5.61753e-06 4.38348e-06 0)
(5.76823e-06 4.54218e-06 0)
(5.91792e-06 4.70263e-06 0)
(6.06687e-06 4.86517e-06 0)
(6.21536e-06 5.0303e-06 0)
(6.36371e-06 5.19849e-06 0)
(6.51115e-06 5.37038e-06 8.50651e-23)
(3.08441e-06 2.11288e-06 0)
(3.29126e-06 2.29366e-06 0)
(3.49241e-06 2.46959e-06 0)
(3.68749e-06 2.64173e-06 0)
(3.87707e-06 2.81057e-06 0)
(4.06144e-06 2.97677e-06 0)
(4.24102e-06 3.14094e-06 0)
(4.41621e-06 3.30364e-06 0)
(4.58745e-06 3.46537e-06 0)
(4.75513e-06 3.62659e-06 0)
(4.91967e-06 3.78769e-06 0)
(5.08144e-06 3.94902e-06 0)
(5.24082e-06 4.11089e-06 0)
(5.39817e-06 4.2736e-06 0)
(5.55383e-06 4.43744e-06 0)
(5.70814e-06 4.60272e-06 0)
(5.86146e-06 4.76979e-06 0)
(6.01412e-06 4.93911e-06 0)
(6.16659e-06 5.11113e-06 0)
(6.31887e-06 5.28675e-06 3.51777e-23)
(2.59471e-06 1.76809e-06 0)
(2.84375e-06 1.97123e-06 0)
(3.0546e-06 2.15619e-06 0)
(3.2597e-06 2.33613e-06 0)
(3.45899e-06 2.5126e-06 0)
(3.6528e-06 2.68592e-06 0)
(3.84137e-06 2.85666e-06 0)
(4.02505e-06 3.02533e-06 0)
(4.20418e-06 3.1924e-06 0)
(4.37914e-06 3.35833e-06 0)
(4.55031e-06 3.52353e-06 0)
(4.71808e-06 3.68835e-06 0)
(4.88282e-06 3.85312e-06 0)
(5.0449e-06 4.01813e-06 0)
(5.2047e-06 4.18365e-06 0)
(5.36257e-06 4.34994e-06 0)
(5.51889e-06 4.51729e-06 0)
(5.67406e-06 4.68599e-06 0)
(5.82845e-06 4.85644e-06 0)
(5.98262e-06 5.02902e-06 0)
(6.13695e-06 5.20457e-06 5.81582e-25)
(2.41837e-06 1.66442e-06 0)
(2.6592e-06 1.86495e-06 0)
(2.86857e-06 2.05026e-06 0)
(3.07293e-06 2.23149e-06 0)
(3.27205e-06 2.40983e-06 0)
(3.46613e-06 2.58542e-06 0)
(3.65529e-06 2.75868e-06 0)
(3.83977e-06 2.92999e-06 0)
(4.01984e-06 3.09972e-06 0)
(4.19581e-06 3.26825e-06 0)
(4.36799e-06 3.4359e-06 0)
(4.53674e-06 3.60297e-06 0)
(4.70239e-06 3.76976e-06 0)
(4.86531e-06 3.93649e-06 0)
(5.02584e-06 4.10342e-06 0)
(5.18435e-06 4.27074e-06 0)
(5.34122e-06 4.43871e-06 0)
(5.49686e-06 4.60755e-06 0)
(5.65167e-06 4.77755e-06 0)
(5.80626e-06 4.94899e-06 0)
(5.96105e-06 5.12247e-06 1.86063e-23)
(2.26186e-06 1.56459e-06 0)
(2.49376e-06 1.76238e-06 0)
(2.69946e-06 1.94725e-06 0)
(2.90123e-06 2.12905e-06 0)
(3.09845e-06 2.30864e-06 0)
(3.29128e-06 2.486e-06 0)
(3.47963e-06 2.66137e-06 0)
(3.66369e-06 2.83499e-06 0)
(3.8436e-06 3.00713e-06 0)
(4.0196e-06 3.17806e-06 0)
(4.19196e-06 3.34802e-06 0)
(4.36097e-06 3.51726e-06 0)
(4.52694e-06 3.686e-06 0)
(4.69017e-06 3.85442e-06 0)
(4.85102e-06 4.02272e-06 0)
(5.00983e-06 4.19106e-06 0)
(5.16697e-06 4.3596e-06 0)
(5.32286e-06 4.52852e-06 0)
(5.47792e-06 4.698e-06 0)
(5.63278e-06 4.86817e-06 0)
(5.78786e-06 5.03935e-06 3.68858e-23)
(2.12229e-06 1.46941e-06 0)
(2.34473e-06 1.6638e-06 0)
(2.54547e-06 1.84752e-06 0)
(2.74326e-06 2.02929e-06 0)
(2.93729e-06 2.20961e-06 0)
(3.1276e-06 2.38828e-06 0)
(3.314e-06 2.56537e-06 0)
(3.49656e-06 2.74098e-06 0)
(3.67535e-06 2.91525e-06 0)
(3.85054e-06 3.08836e-06 0)
(4.02231e-06 3.26046e-06 0)
(4.19092e-06 3.43172e-06 0)
(4.35662e-06 3.60229e-06 0)
(4.5197e-06 3.77232e-06 0)
(4.68046e-06 3.94193e-06 0)
(4.83923e-06 4.11122e-06 0)
(4.99637e-06 4.28029e-06 0)
(5.15227e-06 4.44924e-06 0)
(5.3074e-06 4.61811e-06 0)
(5.46241e-06 4.78691e-06 0)
(5.61761e-06 4.95572e-06 -1.76488e-23)
(1.99724e-06 1.37917e-06 0)
(2.21001e-06 1.56981e-06 0)
(2.40483e-06 1.75184e-06 0)
(2.59762e-06 1.93301e-06 0)
(2.78742e-06 2.11354e-06 0)
(2.97421e-06 2.29304e-06 0)
(3.15769e-06 2.47142e-06 0)
(3.33786e-06 2.64864e-06 0)
(3.5147e-06 2.82472e-06 0)
(3.68832e-06 2.99973e-06 0)
(3.85883e-06 3.17374e-06 0)
(4.02645e-06 3.34683e-06 0)
(4.19136e-06 3.51908e-06 0)
(4.35384e-06 3.69059e-06 0)
(4.51414e-06 3.8614e-06 0)
(4.67257e-06 4.03156e-06 0)
(4.82946e-06 4.2011e-06 0)
(4.98518e-06 4.37001e-06 0)
(5.14018e-06 4.53821e-06 0)
(5.29509e-06 4.70565e-06 0)
(5.4502e-06 4.87214e-06 -3.59283e-23)
(1.88422e-06 1.29387e-06 0)
(2.0874e-06 1.48048e-06 0)
(2.27569e-06 1.66039e-06 0)
(2.46276e-06 1.84052e-06 0)
(2.64757e-06 2.0208e-06 0)
(2.83007e-06 2.2007e-06 0)
(3.00987e-06 2.37997e-06 0)
(3.1869e-06 2.55844e-06 0)
(3.3611e-06 2.73601e-06 0)
(3.53249e-06 2.91263e-06 0)
(3.70117e-06 3.08829e-06 0)
(3.86726e-06 3.26299e-06 0)
(4.03094e-06 3.43674e-06 0)
(4.19241e-06 3.60957e-06 0)
(4.35192e-06 3.78145e-06 0)