/*--------------------------------*- C++ -*----------------------------------*\
  =========                 |
  \\      /  F ield         | OpenFOAM: The Open Source CFD Toolbox
   \\    /   O peration     | Website:  https://openfoam.org
    \\  /    A nd           | Version:  9
     \\/     M anipulation  |
\*---------------------------------------------------------------------------*/
FoamFile
{
    format      ascii;
    class       volScalarField;
    location    "5";
    object      sigmaY;
}
// * * * * * * * * * * * * * * * * * * * * * * * * * * * * * * * * * * * * * //

dimensions      [1 -1 -2 0 0 0 0];

internalField   uniform 2e+08;

boundaryField
{
    left
    {
        type            calculated;
        value           uniform 2e+08;
    }
    right
    {
        type            calculated;
        value           uniform 2e+08;
    }
    down
    {
        type            calculated;
        value           uniform 2e+08;
    }
    up
    {
        type            calculated;
        value           uniform 2e+08;
    }
    hole
    {
        type            calculated;
        value           uniform 2e+08;
    }
    frontAndBack
    {
        type            empty;
    }
}


// ************************************************************************* //
