/*--------------------------------*- C++ -*----------------------------------*\
  =========                 |
  \\      /  F ield         | OpenFOAM: The Open Source CFD Toolbox
   \\    /   O peration     | Website:  https://openfoam.org
    \\  /    A nd           | Version:  9
     \\/     M anipulation  |
\*---------------------------------------------------------------------------*/
FoamFile
{
    format      ascii;
    class       volScalarField;
    location    "5";
    object      sigmaHyd;
}
// * * * * * * * * * * * * * * * * * * * * * * * * * * * * * * * * * * * * * //

dimensions      [1 -1 -2 0 0 0 0];

internalField   nonuniform List<scalar> 
1000
(
421257
397151
387228
371090
359437
346664
335819
325139
316051
305368
494135
457469
439745
416309
399165
381409
366441
351858
339467
325014
565391
516769
491561
460965
438417
415732
396763
378392
362994
345146
633636
574043
541904
504346
476453
448866
425838
403823
385320
364866
696748
628008
589787
545656
512614
480262
453289
427789
406278
383503
755436
679128
635695
585046
546822
509682
478773
449919
425488
400689
806975
726347
678419
621201
577724
535852
501138
469160
442027
415493
861451
775183
721819
656476
606586
559492
520754
485766
456143
428183
917019
825452
761666
685549
628481
576393
534162
496815
465342
436467
1.04445e+06
906479
810215
718529
649820
591495
545055
505500
472522
443118
-1941.57
1063.32
9215.88
22797.5
38933.4
56033.6
72902.5
89103.7
103942
117976
1468.83
18482
35216.5
51049.3
67024.5
82299.3
96703
110272
122268
134239
10375.1
36720.1
58662.3
75454.2
90839.8
104449
116800
128238
137971
148321
30128.8
61029.9
85664
102796
117459
129483
139862
149228
156658
165361
60775.4
91676.3
116075
131899
144921
154902
163127
170368
175566
182672
102426
129615
151601
164736
175310
182739
188497
193393
196227
201583
153657
174055
191735
200784
208044
212314
215254
217508
217884
221223
213065
224322
236294
240125
243346
243920
243678
243025
240748
241817
278751
279147
284379
282092
280708
277107
273448
269485
264628
262549
348831
337238
335045
325999
319558
311449
304083
296828
289145
284525
130317
141428
151562
160636
168837
176159
182729
188571
193770
198357
202384
205875
208857
211345
213345
214869
215913
216533
216741
216840
143377
151439
159349
166341
172914
178788
184186
189018
193388
197281
200746
203795
206455
208746
210687
212313
213646
214776
215735
216816
154922
160209
166350
171542
176793
181445
185876
189860
193534
196833
199810
202459
204808
206874
208687
210293
211731
213121
214504
216210
169354
171485
175667
178742
182453
185645
188920
191875
194702
197272
199645
201789
203729
205476
207053
208508
209872
211272
212711
214563
184253
183084
185476
186409
188643
190389
192529
194467
196448
198282
200029
201634
203114
204467
205711
206884
208008
209198
210435
212079
200764
195909
196498
195128
195791
196000
196910
197756
198812
199847
200904
201911
202867
203757
204583
205369
206123
206930
207766
208920
218184
209363
208146
204437
203463
202154
201811
201577
201699
201923
202267
202641
203028
203397
203735
204045
204326
204619
204914
205373
236464
223613
220396
214482
211685
208839
207118
205744
204867
204249
203858
203593
203407
203247
203085
202892
202661
202374
202055
201692
255450
238748
232754
224904
220157
215951
212927
210494
208652
207193
206044
205097
204288
203547
202829
202081
201287
200368
199392
198139
272876
256508
246549
236939
229613
223581
218893
215163
212248
209925
208059
206507
205167
203939
202753
201520
200215
198695
197072
194926
285519
270133
257567
246794
238148
230901
225085
220316
216464
213302
210690
208473
206537
204763
203069
201336
199534
197461
195259
192324
284549
269257
257420
247175
238915
231914
226204
221431
217493
214185
211385
208952
206782
204759
202804
200793
198698
196293
193738
190345
285474
270160
259140
248949
240775
233670
227830
222871
218735
215215
212205
209562
207185
204956
202790
200565
198237
195587
192793
189033
282946
268212
258141
248436
240692
233840
228168
223288
219175
215633
212569
209850
207383
205053
202781
200442
197997
195236
192270
188324
278762
265022
256021
246934
239725
233217
227809
223102
219109
215641
212621
209924
207459
205125
202829
200481
197948
195245
192007
188477
272921
260315
252384
244082
237543
231550
226559
222177
218442
215176
212316
209747
207391
205146
202946
200664
198294
195551
192763
189031
265902
254581
247735
240314
234522
229136
224654
220692
217307
214335
211726
209374
207210
205143
203112
201009
198812
196315
193724
190245
257881
247889
242113
235649
230669
225985
222104
218658
215719
213132
210861
208810
206921
205112
203334
201482
199562
197353
195075
192057
249077
240449
235739
230282
226162
222247
219036
216180
213759
211632
209772
208093
206547
205064
203603
202080
200497
198680
196810
194333
239610
232352
228704
224291
221074
217987
215508
213310
211475
209875
208489
207245
206102
205003
203916
202774
201589
200222
198826
196984
229600
223719
221135
217799
215520
213311
211614
210129
208936
207917
207060
206301
205608
204937
204266
203548
202797
201923
201047
199891
219093
214602
213094
210868
209565
208280
207415
206695
206193
205805
205522
205290
205085
204875
204648
204376
204080
203716
203378
202928
208188
205105
204693
203609
203317
202996
203005
203092
203323
203604
203930
204255
204564
204834
205062
205242
205398
205535
205724
205960
196834
195205
195929
196035
196801
197494
198423
199362
200367
201356
202322
203231
204071
204831
205515
206133
206719
207317
207990
208848
185222
185094
186988
188322
190183
191925
193808
195629
197436
199154
200779
202283
203659
204902
206025
207050
208019
209007
210084
211448
173067
174547
177693
180339
183365
186224
189119
191876
194528
197013
199326
201444
203363
205086
206624
208013
209297
210576
211937
213632
160991
164135
168563
172548
176761
180750
184666
188363
191863
195112
198107
200828
203274
205447
207363
209054
210568
212009
213485
215271
147912
152930
158811
164294
169829
175070
180114
184842
189267
193345
197073
200434
203429
206057
208327
210267
211915
213368
214747
216322
136039
142906
150185
157092
163875
170286
176376
182054
187326
192159
196551
200492
203979
207010
209584
211712
213402
214722
215735
216720
121359
130529
139632
148346
156722
164610
172019
178888
185218
190989
196204
200855
204939
208446
211358
213658
215311
216340
216724
216806
418248
412158
405099
394217
381555
366607
350139
332455
314192
297580
395590
390198
384913
376764
367675
357017
345323
332497
318105
301648
374994
369678
364985
357844
350081
340996
331118
320653
309441
298479
356050
350835
346918
341078
335087
328144
320544
312408
302881
294277
338264
332934
329355
324179
319167
313513
307441
301315
293820
288365
321500
316053
312824
308321
304293
299886
295151
290586
284391
281102
305409
299761
296705
292617
289267
285797
282158
279007
274150
272753
289871
284015
281103
277377
274627
271969
269249
267220
263458
263492
274670
268568
265718
262240
259960
257976
256068
255032
252321
253505
259691
253327
250501
247217
245342
243940
242749
242554
240806
242902
244794
238137
235278
232128
230594
229708
229185
229750
228931
231787
229886
222893
219942
216875
215639
215221
215330
216592
216674
220189
214876
207486
204368
201345
200380
200411
201147
203085
204068
208194
199710
191804
188392
185348
184622
185095
186468
189088
190992
195723
184330
175768
171926
168855
168383
169338
171395
174735
177602
182964
168801
159226
154628
151403
151164
152640
155449
159587
163504
169576
152989
142063
136531
133312
133454
135604
139287
144327
149372
156223
137675
123927
116638
113098
113645
116582
121320
127450
133832
141656
122864
103876
95599.2
92733.6
94268
98382.8
104383
111740
119506
128309
116350
80044.4
69843.4
66690
69405
74954.7
82628.8
91658.9
101318
111568
)
;

boundaryField
{
    left
    {
        type            zeroGradient;
    }
    right
    {
        type            zeroGradient;
    }
    down
    {
        type            zeroGradient;
    }
    up
    {
        type            zeroGradient;
    }
    hole
    {
        type            zeroGradient;
    }
    frontAndBack
    {
        type            empty;
    }
}


// ************************************************************************* //
