/*--------------------------------*- C++ -*----------------------------------*\
  =========                 |
  \\      /  F ield         | OpenFOAM: The Open Source CFD Toolbox
   \\    /   O peration     | Website:  https://openfoam.org
    \\  /    A nd           | Version:  9
     \\/     M anipulation  |
\*---------------------------------------------------------------------------*/
FoamFile
{
    format      ascii;
    class       volSymmTensorField;
    location    "5";
    object      sigma;
}
// * * * * * * * * * * * * * * * * * * * * * * * * * * * * * * * * * * * * * //

dimensions      [1 -1 -2 0 0 0 0];

internalField   nonuniform List<symmTensor> 
1000
(
(614817 -420762 -3.90554e-10 357315 2.80358e-10 291640)
(721423 -324576 -6.68747e-10 195078 3.74541e-10 274951)
(775065 -248599 7.79577e-10 118538 -1.49496e-10 268081)
(797700 -191294 2.00261e-10 58660.5 -1.43037e-10 256908)
(805945 -145214 -8.46326e-10 23524.8 6.20959e-11 248841)
(802573 -109179 -9.16154e-11 -2580.13 1.00455e-10 239998)
(794412 -79917.7 -7.68541e-10 -19445.3 -4.12548e-10 232490)
(781921 -56632.8 5.27477e-10 -31600.1 2.46589e-10 225096)
(768968 -37319.7 -2.71956e-10 -39618.8 -3.09474e-10 218805)
(751974 -21174.7 0 -47279.6 0 211408)
(779748 -467915 -6.39382e-10 360562 2.36897e-11 342093)
(850061 -335023 0 205638 0 316710)
(878871 -239022 6.23691e-10 135926 2.97199e-10 304439)
(881573 -170062 -1.07017e-09 79140.4 -5.70818e-10 288214)
(874436 -117494 -4.54838e-10 46715.1 -2.74306e-10 276345)
(858457 -78164.1 3.16521e-10 21718.2 3.22872e-10 264053)
(840023 -47481.7 3.54467e-10 5610.94 2.37589e-10 253690)
(819022 -24134.2 8.33405e-10 -7041.34 4.86492e-10 243594)
(798187 -5256 0 -14801.5 0 235016)
(775238 9920.69 0 -25205.7 0 225010)
(957417 -497740 0 347331 0 391424)
(981103 -334608 0 211440 0 357763)
(979463 -222448 5.94451e-10 154908 3.07173e-10 340311)
(958803 -144361 -1.78506e-10 104962 6.31301e-11 319130)
(934250 -87207.1 -8.74017e-12 77480.7 3.89662e-12 303519)
(904460 -46016.1 -2.95116e-10 54922.5 -3.05469e-10 287815)
(875180 -15100.3 4.03021e-10 40426.8 1.8638e-10 274682)
(845293 7500.64 -2.99213e-10 27918.9 -2.20994e-10 261964)
(817229 25035.4 -2.41262e-11 20450.1 4.16559e-11 251304)
(788099 39336.3 -6.31757e-11 8392.26 -2.72088e-11 238948)
(1.14204e+06 -505958 -3.46041e-10 320194 4.94833e-12 438671)
(1.1116e+06 -322010 3.4092e-10 213117 -3.52554e-11 397414)
(1.07528e+06 -199142 -2.7168e-10 175266 -1.53321e-10 375164)
(1.02848e+06 -115444 -1.7228e-10 135399 3.34318e-11 349163)
(984846 -56212 3.08132e-10 114662 2.97933e-10 329852)
(940402 -14918.3 -3.7097e-10 95443.4 -2.45326e-10 310754)
(899894 14915.8 -3.20493e-10 82808.5 -2.28084e-10 294811)
(861313 35934 -7.14295e-10 70587.7 -5.22594e-10 279570)
(826291 51410.8 -1.02413e-10 62909.7 -1.25052e-10 266760)
(792044 64038.4 1.74964e-10 49954 1.54742e-10 252600)
(1.32538e+06 -488792 -1.77392e-10 282501 -2.99273e-11 482364)
(1.23772e+06 -295525 1.78293e-14 211526 8.46889e-16 434775)
(1.16413e+06 -168764 -8.79589e-10 196916 -4.30964e-10 408314)
(1.08936e+06 -83951.4 7.99946e-11 169844 -3.03692e-12 377762)
(1.02562e+06 -25895.1 -1.12082e-10 157335 1.18609e-11 354887)
(966171 13206.8 2.67104e-10 142125 2.46756e-10 332489)
(914580 40301.1 -2.99494e-11 131471 8.85413e-12 313815)
(867718 58601.1 2.81913e-10 119487 1.88392e-10 296161)
(826459 71198.8 -6.10028e-11 111105 -1.30511e-10 281269)
(787756 81474.2 -1.11506e-10 97250.1 -9.00533e-11 265502)
(1.50318e+06 -445249 -5.86271e-10 240134 -8.30998e-12 522994)
(1.35766e+06 -254025 1.62598e-14 209555 3.43029e-15 470165)
(1.24541e+06 -130886 -8.7919e-15 221583 -1.36052e-15 440096)
(1.14132e+06 -50487.2 7.0695e-11 208785 8.67129e-12 405032)
(1.05688e+06 2421.23 -3.80615e-10 205022 -2.31419e-10 378569)
(982519 36597.1 4.34171e-12 193672 -3.91916e-14 352857)
(920339 59140.6 2.83284e-10 184521 1.91816e-10 331458)
(865938 73568.8 6.02357e-10 172337 4.4048e-10 311483)
(819267 82613.5 1.09116e-10 162627 8.00532e-11 294568)
(776912 89993.5 -1.90527e-10 147754 -1.50018e-10 277400)
(1.66445e+06 -372610 9.00367e-10 197799 5.07209e-11 558675)
(1.46578e+06 -194428 2.55082e-10 210400 1.02245e-10 502855)
(1.31401e+06 -84370.9 2.69265e-10 251570 1.22291e-10 469675)
(1.18058e+06 -15407.2 -5.81132e-11 252965 -1.73318e-11 430062)
(1.07633e+06 27428 2.75141e-10 256883 1.84065e-10 399963)
(988504 53482.6 -2.53223e-10 248077 -1.74397e-10 370974)
(917307 69586.6 7.2096e-11 239165 4.43931e-12 346941)
(856811 79088.6 -2.26113e-10 225866 -1.48154e-10 324803)
(806020 84166.7 -1.56546e-11 214043 1.95354e-12 306019)
(760974 88376.8 -1.14583e-10 197856 -7.47657e-11 287649)
(1.81976e+06 -270649 1.33604e-09 168200 7.41378e-11 596389)
(1.56317e+06 -113736 -6.79226e-10 225711 -2.44411e-10 536665)
(1.36983e+06 -28600.1 5.26456e-12 295905 2.89046e-12 499721)
(1.20796e+06 19247.2 8.49849e-11 306989 4.30701e-11 454484)
(1.08576e+06 46406.6 6.29187e-10 314054 3.12841e-10 419944)
(986919 61367 -3.72282e-11 304216 -1.16667e-11 387340)
(908874 69806.2 9.26888e-16 292865 1.84827e-16 360522)
(844158 74063.1 -2.21259e-10 276839 -1.16672e-10 336299)
(790724 75466.8 5.37548e-12 261914 2.36119e-13 315791)
(744065 76806 1.65643e-11 244050 8.15326e-12 296435)
(1.94913e+06 -126533 6.32553e-10 167066 -5.28183e-12 634859)
(1.62908e+06 -11489.4 -7.48442e-10 275806 -3.14093e-10 571467)
(1.39265e+06 29064.6 7.82192e-11 365041 6.66621e-11 527307)
(1.20887e+06 44255.1 7.3522e-11 373167 5.80947e-11 474611)
(1.07714e+06 51861.6 -3.07596e-11 373205 -1.87798e-11 435102)
(973857 54507.7 2.45084e-10 356280 8.90195e-11 399041)
(893782 55808.2 1.34071e-11 338899 4.12759e-12 369804)
(828033 55825.3 3.95316e-10 318463 1.512e-10 343949)
(774029 54878.9 8.72763e-11 299837 3.37298e-11 322160)
(726980 54395.1 4.89001e-11 280251 1.9588e-11 302169)
(2.11884e+06 113082 3.87698e-10 291429 5.02308e-11 723080)
(1.65864e+06 126420 -5.74429e-11 433235 -9.92992e-11 627562)
(1.39009e+06 83445.3 2.59908e-10 479634 1.10273e-10 560918)
(1.20076e+06 54149 1.3384e-11 457381 1.87563e-11 497443)
(1.06855e+06 42707.8 4.5732e-16 431036 4.25418e-16 449876)
(965805 36387.9 2.48567e-10 399185 4.45999e-11 409497)
(886267 34120.8 3.8609e-12 371552 1.14038e-12 377346)
(820848 32817.4 1.90483e-10 345691 3.60358e-11 349962)
(766912 31791.1 -2.11063e-12 323522 -1.564e-13 327130)
(719677 31090.9 -3.20164e-12 302904 -6.72971e-13 306774)
(-2852.6 969.923 -2.59317e-10 -1627.95 2.836e-10 -1344.17)
(2140.8 -3517.91 -1.424e-11 313.014 1.89185e-10 736.143)
(22417.5 -11045.1 -1.81758e-10 -1150.11 -9.54408e-11 6380.23)
(54961.7 -17078.7 0 -2352.11 0 15782.9)
(92830.8 -20813.6 -2.4064e-11 -2984.6 -1.47426e-10 26953.9)
(132598 -22937 -2.49319e-10 -3289.78 -1.84068e-11 38792.5)
(171580 -23776.6 5.61041e-11 -3343.37 1.28062e-10 50470.9)
(208831 -23843.6 -1.65427e-10 -3207.42 4.0548e-11 61687.2)
(243000 -23221.6 1.33979e-10 -3134.36 6.8183e-11 71959.6)
(274857 -22729.4 2.52125e-10 -2604.92 3.1427e-11 81675.5)
(3700.75 -3761.76 -2.67846e-10 -311.134 1.87668e-10 1016.88)
(29964.2 -20443.3 2.01268e-10 12686.6 2.20875e-10 12795.2)
(68066.6 -38882.9 -1.88363e-10 13202.2 -1.89294e-10 24380.6)
(108569 -52987.9 1.90704e-12 9236.62 -1.56761e-10 35341.8)
(149280 -61694.5 0 5392.33 0 46401.6)
(187994 -66571.5 -2.85938e-10 1927.65 -4.24095e-11 56976.4)
(223903 -68350.3 4.80362e-11 -742.096 2.46092e-10 66948.2)
(257127 -68240 3.58971e-12 -2653.95 1.32384e-11 76341.9)
(286447 -66380.1 -1.53802e-10 -4288.85 -4.4739e-10 84647.4)
(314237 -64869 1.12935e-10 -4454.36 1.7542e-11 92934.7)
(11446.3 -18525.7 -1.28267e-10 12496.2 -3.13726e-11 7182.74)
(57448.2 -51081.1 2.05809e-10 27290.5 2.18182e-10 25421.6)
(110117 -73961.2 2.15388e-10 25258 4.50789e-11 40612.4)
(158593 -89295.5 1.11614e-11 15532.4 -1.51181e-10 52237.6)
(203167 -97781.1 0 6463.25 0 62889.1)
(242449 -101774 -3.20001e-10 -1411.21 -8.35026e-11 72311.2)
(276941 -102288 -4.36491e-10 -7402.68 -1.22204e-10 80861.4)
(307661 -100666 2.88696e-10 -11726.2 1.76507e-10 88780.3)
(333380 -97134.5 1.74911e-12 -14986.1 5.63534e-12 95518.2)
(358229 -94130.2 -2.59655e-10 -15949.7 -1.64133e-10 102684)
(27475 -41729.8 3.35038e-10 42053 -1.20065e-10 20858.4)
(94648.5 -87858.8 5.08507e-11 46189.8 -1.83293e-10 42251.5)
(159370 -111942 2.36699e-10 38316.4 4.62298e-11 59305.9)
(214722 -125437 0 22500.4 0 71166.7)
(262552 -131060 -4.0361e-10 8508.09 1.50279e-10 81318.1)
(302395 -132113 4.5801e-12 -3588.13 3.719e-10 89642)
(335662 -129888 -1.99229e-11 -12904.8 -1.99763e-10 96827.3)
(364166 -125728 -5.7566e-11 -19793.6 -3.08321e-10 103312)
(386518 -119960 1.31776e-10 -24998.9 4.27583e-11 108456)
(408706 -115046 2.45961e-10 -27103 9.22546e-11 114481)
(54866.4 -74544 -4.52485e-10 85384.6 2.98948e-10 42075.3)
(144582 -127912 -4.15726e-10 66978.6 2.78564e-10 63468.2)
(219366 -149585 -2.52015e-10 48499.7 -7.40981e-11 80359.7)
(279458 -158582 -6.82088e-11 24923.1 2.72659e-10 91314.4)
(328646 -159211 -2.68082e-12 5788.54 1.68166e-11 100330)
(367693 -155704 3.88796e-10 -10226.3 -1.04273e-10 107240)
(398831 -149567 1.69304e-10 -22385.5 4.44272e-11 112934)
(424507 -142032 0 -31350.7 0 117947)
(443195 -133579 -1.80674e-10 -38042.4 -2.37694e-10 121546)
(462487 -126359 7.20992e-11 -40936.8 1.7504e-11 126465)
(97244.4 -117704 -3.40886e-10 139122 -4.39879e-10 70910)
(208895 -168543 1.69804e-10 90217.3 -3.30479e-10 89733.7)
(291684 -183460 -2.08041e-10 58164.1 -2.24454e-10 104954)
(354142 -185653 4.58539e-11 26019 -1.26952e-10 114048)
(402570 -179942 4.40333e-10 1992.14 1.47271e-10 121369)
(439104 -171060 -4.24929e-10 -17399.8 4.72819e-11 126511)
(466823 -160516 -4.90182e-13 -31829.5 1.12691e-11 130498)
(488658 -149315 -3.30832e-10 -42366.2 -2.27822e-10 133888)
(503043 -138097 6.93745e-13 -50212.2 4.42168e-12 135849)
(518815 -128457 -3.61273e-10 -53623.3 -1.65129e-10 139558)
(157595 -170745 1.60494e-10 196998 -2.57708e-10 106378)
(287368 -208122 9.399e-12 114299 -1.42156e-11 120500)
(375093 -211540 -6.88683e-15 67372.8 1.17354e-14 132740)
(437041 -204631 -4.49731e-10 26306.2 -3.15101e-10 139004)
(482376 -191520 -7.65186e-11 -2274.4 2.04122e-10 144031)
(514479 -176834 -4.12199e-10 -24524 -1.67693e-10 146986)
(537359 -161766 7.40958e-10 -40619.2 3.30235e-10 149022)
(554175 -146963 -9.67686e-14 -52233.6 8.84889e-12 150582)
(563601 -133168 1.45853e-10 -60791.9 -5.85032e-13 150843)
(575018 -121198 -1.97609e-10 -64502.8 -9.40861e-11 153154)
(238629 -231698 9.09441e-10 253059 -3.02006e-10 147506)
(379376 -245098 2.42075e-10 138291 -2.888e-10 155300)
(467706 -232483 -9.34303e-11 77588 1.24281e-10 163588)
(525793 -214431 5.71339e-11 28341.5 -8.88738e-11 166240)
(565610 -193204 5.09525e-15 -4043.13 -9.98005e-15 168470)
(591408 -172642 4.78472e-10 -28515.8 4.0498e-11 168868)
(608108 -153288 3.59913e-11 -45773.8 -1.5567e-10 168700)
(618835 -135291 -1.20618e-11 -58009.2 1.28095e-10 168248)
(622745 -119369 1.65219e-12 -67173 6.39596e-11 166672)
(628975 -105384 1.51001e-10 -70935.3 1.41067e-10 167412)
(341947 -296995 4.05929e-10 301325 3.56652e-10 192982)
(483629 -277935 -7.8423e-11 160556 5.29486e-10 193256)
(566993 -245672 -9.02959e-15 89265.5 9.45273e-15 196877)
(617400 -214947 6.19054e-10 33581.6 1.45272e-10 195294)
(649198 -185223 4.72719e-10 -1410.16 2.35934e-10 194336)
(666859 -159006 4.26477e-10 -27381 2.12924e-10 191843)
(676185 -135804 -4.66736e-11 -45151.7 1.33793e-10 189310)
(679738 -115284 -5.13527e-10 -57849.8 -2.86908e-10 186566)
(677878 -97781.6 3.1533e-10 -67198.9 7.47324e-11 183204)
(677894 -82180.2 1.41412e-10 -72011.8 8.40294e-11 181765)
(467834 -361892 -3.83092e-11 337159 3.38508e-11 241498)
(598377 -305015 -1.56945e-10 179865 1.15732e-10 233472)
(670263 -250998 -3.0394e-10 102919 -1.4166e-10 231955)
(708822 -206853 1.31684e-09 43482.8 3.08396e-10 225692)
(729984 -168685 8.06497e-12 7457.43 -9.15755e-12 221232)
(737774 -137223 -4.19401e-10 -19045.6 -2.38079e-10 215619)
(738558 -110771 -4.49431e-10 -36827 -7.08244e-11 210519)
(734250 -88472.6 -1.69324e-10 -49261.7 -1.01261e-10 205497)
(726604 -70365.7 1.88149e-11 -59345.6 -1.40111e-10 200178)
(719556 -54726.6 8.46747e-11 -62959.9 1.77152e-10 196979)
(303327 -21089.5 1.95115e-10 -2596.06 1.19443e-10 90219.3)
(328397 -18823.5 1.55662e-10 -2025.46 2.26894e-11 97911.5)
(351371 -16848.8 -1.23467e-10 -1613.31 -1.45971e-10 104927)
(372006 -15056.6 -7.07841e-11 -1307.01 -5.21413e-11 111210)
(390632 -13396.2 -2.25651e-10 -1006.99 -3.81449e-11 116887)
(407305 -11908.1 0 -785.093 0 121956)
(422257 -10544.8 0 -575.308 0 126504)
(435577 -9314.31 8.34235e-11 -412.149 5.2032e-11 130549)
(447431 -8186.82 7.5035e-11 -268.801 1.40157e-11 134149)
(457904 -7153.58 1.75838e-10 -156.343 1.0534e-10 137324)
(467104 -6192.67 2.27467e-10 -65.0706 4.33684e-11 140112)
(475094 -5289.86 -7.63622e-11 1.98079 -1.46265e-11 142529)
(481930 -4427.6 2.30925e-10 47.4835 4.42912e-11 144593)
(487649 -3592.94 -2.82187e-10 70.8545 -1.64162e-10 146316)
(492263 -2775.3 1.67244e-11 71.4915 4.03847e-11 147700)
(495800 -1973.46 -1.66417e-18 52.8261 -9.70865e-19 148756)
(498247 -1198.85 -9.64508e-11 14.2662 -5.65011e-11 149478)
(499707 -495.386 9.68535e-11 -15.4196 5.70055e-11 149908)
(500183 43.9435 4.82255e-11 -12.2158 -7.01629e-11 150051)
(500140 172.972 -2.26658e-10 259.801 -2.01206e-10 150120)
(336603 -60411.1 2.76109e-10 -5732.63 3.39487e-10 99261.1)
(355070 -54388.4 1.79099e-10 -5595.59 4.90663e-11 104842)
(372854 -49073.2 1.34849e-11 -5125.99 -7.7551e-11 110318)
(388743 -44115.5 4.06698e-10 -4879.25 3.66527e-10 115159)
(403465 -39472.6 -7.81745e-11 -4431.99 -1.84663e-11 119710)
(416717 -35273 -3.31643e-10 -4130.14 -3.35983e-10 123776)
(428818 -31389.1 1.69144e-10 -3773.7 6.25692e-11 127513)
(439696 -27859.2 0 -3499.89 0 130859)
(449520 -24604.1 8.05978e-11 -3238.84 2.85401e-11 133884)
(458299 -21607.8 1.65708e-10 -3035.66 6.38498e-11 136579)
(466128 -18815.1 4.96995e-10 -2867.17 2.56675e-10 138978)
(473040 -16192.3 2.24303e-12 -2744.14 2.56313e-12 141089)
(479090 -13696.8 6.44992e-11 -2655.17 -5.00671e-11 142931)
(484314 -11298.3 9.48703e-11 -2592.63 1.08475e-10 144517)
(488740 -8973.09 9.73305e-11 -2538.79 1.11577e-10 145860)
(492410 -6720.14 -9.64208e-11 -2456.06 -1.11096e-10 146986)
(495323 -4566.27 -9.69699e-11 -2295.01 -1.1236e-10 147908)
(497566 -2604.84 -1.94745e-10 -1929.1 -2.26977e-10 148691)
(499045 -978.573 -1.47355e-12 -1193.82 -1.61223e-12 149355)
(499997 -109.58 -2.45634e-11 347.125 1.41249e-10 150103)
(375152 -87449.9 7.55537e-11 -17638.9 1.03359e-10 107254)
(386933 -79237.5 1.03117e-10 -17221.2 3.67833e-11 110914)
(399569 -71860.3 -2.39525e-10 -15684 -3.01602e-10 115165)
(410525 -65010.1 -2.14952e-11 -14659.3 5.50456e-11 118760)
(421207 -58490.5 4.3704e-10 -13223.2 3.63713e-10 122395)
(430821 -52565.1 -3.47166e-10 -12102.7 -3.31309e-10 125615)
(439876 -47027 -9.24204e-11 -10930 -1.06991e-10 128684)
(448098 -41963.1 1.76646e-10 -9959.13 2.00823e-10 131442)
(455690 -37264.3 7.90681e-13 -9072.2 -1.30321e-10 133985)
(462575 -32924.4 -1.86927e-10 -8345.17 -2.10083e-10 136269)
(468841 -28874.7 1.79125e-10 -7739.93 2.00587e-10 138330)
(474483 -25078.6 2.76798e-10 -7270.45 3.10132e-10 140164)
(479547 -21484.6 2.11797e-12 -6914.21 2.33308e-12 141790)
(484054 -18056.1 -9.47811e-11 -6651.36 -1.06809e-10 143221)
(488026 -14761.1 9.38296e-11 -6440.93 1.06376e-10 144476)
(491500 -11587.2 1.38319e-17 -6207.03 1.53965e-17 145588)
(494449 -8542.14 -9.66764e-11 -5840.25 -1.10989e-10 146583)
(496936 -5673.68 1.31168e-11 -5118.53 8.01463e-11 147545)
(498739 -3069.92 -3.17782e-10 -3730.51 -4.10039e-11 148503)
(500068 -845.589 9.02351e-14 -1121.4 1.84628e-13 149684)
(420195 -106493 0 -29378.9 0 117245)
(424853 -97082.4 1.10245e-10 -29117.8 4.01568e-11 118721)
(432150 -88398.4 8.62805e-11 -26764.8 9.85905e-11 121616)
(437789 -80472 9.46973e-11 -25308.7 1.0961e-10 123744)
(444119 -72769.2 0 -23073.2 0 126314)
(449715 -65765.6 1.28071e-11 -21303.3 -5.52993e-11 128524)
(455381 -59140.3 -2.83433e-10 -19413 -1.7399e-10 130790)
(460599 -53052.4 -1.80886e-10 -17809.4 -1.96475e-10 132837)
(465636 -47365.4 -1.01688e-10 -16324.3 -4.69288e-11 134794)
(470317 -42092.7 -5.70708e-13 -15074 1.25587e-10 136573)
(474728 -37160.2 -8.94364e-11 -14009.6 2.75495e-11 138215)
(478818 -32534.4 1.87111e-10 -13152.2 8.02544e-11 139700)
(482616 -28161.2 1.77615e-10 -12472.3 8.89371e-12 141043)
(486118 -23999.2 4.33857e-12 -11943.1 6.7154e-11 142252)
(489324 -20008.1 7.68146e-12 -11509.5 7.11959e-11 143344)
(492249 -16157.2 -9.55824e-11 -11076.1 -1.07496e-10 144352)
(494830 -12426.4 -2.04144e-17 -10509.5 -2.29724e-17 145296)
(497109 -8791.49 2.03855e-10 -9559.25 2.9885e-10 146265)
(498777 -5281.98 -1.03845e-11 -7904.2 -7.85816e-11 147262)
(500099 -1643.66 -2.28655e-10 -4953.76 -3.98485e-10 148544)
(468526 -116347 8.37395e-12 -43326.4 1.37679e-10 127560)
(465776 -106893 -1.19792e-10 -43275 -5.23375e-11 126750)
(467831 -97677.2 -3.01234e-10 -39809 -2.45409e-10 128407)
(468034 -89547.8 1.98326e-10 -37861 1.34957e-10 129052)
(469999 -81401.7 5.16107e-10 -34670 3.38893e-10 130599)
(471474 -74022.5 -9.48073e-11 -32115.1 -9.90626e-11 131808)
(473655 -66937.8 0 -29358.5 0 133289)
(475738 -60391.5 9.23309e-11 -26967.6 9.60457e-11 134631)
(478077 -54226.2 -2.97137e-10 -24736.4 -1.26959e-10 136002)
(480394 -48479 -1.92763e-10 -22820.1 -1.42017e-10 137272)
(482774 -43080.6 1.07725e-11 -21168.6 -1.0954e-10 138482)
(485120 -38004.9 -9.71578e-11 -19811.4 -1.64154e-10 139593)
(487443 -33200.1 -9.84766e-12 -18718.3 1.72356e-10 140617)
(489709 -28621.5 1.89913e-10 -17861 2.67527e-10 141554)
(491897 -24220.1 9.24508e-11 -17179.8 3.94175e-11 142415)
(494000 -19941.1 -3.50021e-12 -16574.8 -6.66914e-11 143228)
(495929 -15734.5 1.79208e-10 -15910.2 7.37272e-11 144006)
(497709 -11497 8.81417e-11 -14943.6 3.53876e-11 144830)
(499009 -7220.94 3.61802e-10 -13390 2.85677e-10 145686)
(500108 -2344.6 1.00418e-10 -10694.3 3.02913e-10 146824)
(519285 -117503 7.06134e-11 -55983.3 9.70132e-11 138990)
(508812 -109225 1.70052e-12 -56713.8 3.72409e-12 135630)
(505738 -100221 -2.17794e-10 -52280.6 -1.5091e-10 136037)
(500403 -92689 -5.23032e-10 -50108.3 -3.91317e-10 135088)
(498000 -84766.5 2.04327e-10 -46173 1.39166e-10 135548)
(495294 -77612.1 1.92324e-10 -42986.1 1.90856e-10 135692)
(493917 -70618.4 -9.42273e-11 -39509.1 -9.36478e-11 136322)
(492780 -64101.6 -1.51212e-11 -36420.5 4.1951e-11 136908)
(492307 -57906.7 4.13379e-10 -33508.6 2.46172e-10 137639)
(492137 -52086.1 -2.76327e-10 -30952.2 -2.81788e-10 138355)
(492341 -46586.1 -9.82919e-11 -28715.8 -1.01488e-10 139088)
(492788 -41387.4 2.67221e-10 -26841 3.95573e-10 139784)
(493464 -36446.4 -3.90307e-10 -25309.2 -1.16316e-10 140446)
(494311 -31717.3 -2.78216e-10 -24102.6 -2.97075e-10 141062)
(495288 -27146.2 6.71172e-13 -23172.3 -5.99712e-11 141635)
(496363 -22658 -3.74871e-10 -22434.7 -2.86729e-10 142178)
(497444 -18179.2 -2.72901e-12 -21775.4 -2.56456e-12 142701)
(498528 -13538.8 3.68469e-10 -20997.1 3.52055e-10 143259)
(499338 -8707.71 5.82126e-12 -19879 7.26254e-11 143838)
(500084 -2889 8.56789e-11 -17961 6.33744e-11 144637)
(570070 -109974 -7.4007e-11 -66569.2 -9.4924e-11 151050)
(551910 -104189 1.02286e-10 -68764.1 9.33385e-11 144944)
(544077 -96171.6 1.26257e-10 -63740.5 6.5949e-11 144101)
(533371 -89997.2 -9.97923e-11 -61592.8 -9.35364e-11 141533)
(526746 -83006 -2.36386e-10 -57215.3 -1.18066e-10 140859)
(520004 -76648.7 1.15398e-10 -53493.8 5.73831e-11 139953)
(515119 -70282.4 3.26607e-10 -49400.1 2.10078e-10 139716)
(510817 -64237.7 -5.2547e-10 -45640.3 -3.52674e-10 139553)
(507530 -58412.4 -3.24117e-10 -42071.5 -2.13419e-10 139637)
(504858 -52866.5 5.08711e-10 -38881.7 3.44347e-10 139793)
(502837 -47579.8 -2.07459e-10 -36067.9 -9.92124e-11 140031)
(501315 -42543.4 2.74912e-10 -33682.5 2.81401e-10 140290)
(500251 -37728.2 2.95985e-10 -31724.5 1.92776e-10 140558)
(499567 -33091.2 -1.72787e-10 -30190.5 -2.40332e-10 140813)
(499208 -28577.8 -1.12709e-10 -29050.5 5.83216e-11 141047)
(499122 -24098.4 5.34232e-12 -28249.4 4.92548e-12 141262)
(499229 -19563.9 -4.56777e-10 -27706.7 -3.7994e-10 141457)
(499491 -14753.4 9.07105e-11 -27293.4 1.01839e-10 141659)
(499740 -9628.04 1.79807e-10 -26860.7 1.4064e-10 141864)
(500040 -3237.54 4.32505e-11 -26102 3.31366e-11 142181)
(618828 -94320.1 8.86324e-13 -73141.8 3.02368e-12 163706)
(593513 -92311 -1.05753e-10 -77482.9 -9.29895e-11 154809)
(581379 -86115.7 2.26897e-11 -72772.7 -2.46083e-11 152582)
(565806 -81816.7 0 -70847.8 0 148488)
(555144 -76387.7 0 -66641.2 0 146551)
(544695 -71276.6 -3.1665e-10 -62758.6 -2.47809e-10 144581)
(536422 -66027.4 2.81732e-10 -58456.7 2.62546e-10 143390)
(529101 -60882.9 5.9396e-10 -54308.2 5.1767e-10 142438)
(523055 -55827.9 -4.4929e-10 -50286.2 -4.31198e-10 141831)
(517922 -50911.8 -3.9355e-10 -46579.4 -3.34915e-10 141403)
(513683 -46151.5 1.81499e-10 -43241.2 1.80365e-10 141132)
(510182 -41552.4 -1.77307e-11 -40352.7 3.57048e-11 140949)
(507350 -37105.4 3.10522e-10 -37949.7 1.53474e-10 140820)
(505093 -32778.7 4.83722e-10 -36060.8 3.34479e-10 140710)
(503348 -28524.8 6.60313e-12 -34690.1 6.02986e-12 140597)
(502040 -24251.2 2.20012e-10 -33827.2 -5.99479e-11 140464)
(501117 -19863.5 0 -33438.4 0 140304)
(500498 -15114 -1.85271e-10 -33481.9 -8.18582e-11 140105)
(500164 -9962.07 8.9135e-11 -33882.3 3.77421e-11 139885)
(499975 -3380.68 1.30031e-10 -34531.5 1.03286e-10 139633)
(663892 -72042.6 -6.94377e-13 -74391.6 -2.64449e-12 176850)
(632181 -74515.1 1.31246e-10 -81224.6 7.84379e-11 165287)
(616084 -71413.5 -1.30538e-10 -78958.8 -7.94975e-11 161138)
(596596 -69365.2 -1.28481e-10 -77587 -7.74297e-11 155703)
(582092 -66142.7 3.52749e-10 -74038.1 2.40579e-10 152416)
(568447 -62587.8 2.51291e-10 -70099.3 1.50015e-10 149504)
(557054 -58713.1 -3.33774e-10 -65684.1 -2.23348e-10 147411)
(547006 -54666 4.43226e-11 -61250.5 -4.68574e-11 145727)
(538410 -50556.9 7.57849e-11 -56905.8 7.02363e-11 144451)
(530976 -46448.9 -4.11025e-11 -52838.3 5.52576e-11 143441)
(524624 -42394.4 -3.38849e-10 -49137.7 -1.85812e-10 142646)
(519204 -38416.7 3.0331e-12 -45902.9 2.92378e-12 141990)
(514629 -34522.7 -1.55071e-10 -43196 -2.10787e-10 141430)
(510798 -30692.3 -5.23727e-12 -41074.8 -4.78769e-12 140917)
(507645 -26886.8 1.97909e-10 -39577.3 9.63946e-11 140420)
(505082 -23017.8 -3.94855e-12 -38742.4 -3.44901e-12 139902)
(503096 -18992.8 2.41433e-10 -38588.5 3.23432e-10 139352)
(501558 -14558.7 -9.11105e-11 -39170.3 -4.07903e-11 138716)
(500624 -9674.2 -4.27043e-10 -40488.8 -4.22419e-10 138041)
(499911 -3307.59 -1.27789e-10 -42666.5 -2.30454e-10 137173)
(701400 -43445.8 -1.67314e-11 -71685.6 -8.43839e-12 188914)
(669178 -48922.2 -1.407e-10 -77236.5 -8.29583e-11 177583)
(648641 -50224.8 1.14246e-10 -79680.4 8.96832e-11 170688)
(626920 -50759.6 -2.99067e-10 -80137.9 -2.72203e-10 164035)
(608616 -50509.3 -3.07664e-10 -78741 -2.55683e-10 158963)
(591956 -49369.2 1.82065e-10 -75999.7 1.87884e-10 154787)
(577416 -47600.4 1.58275e-10 -72278.8 1.88534e-10 151541)
(564590 -45310.9 2.75801e-10 -68060.7 2.4844e-10 148959)
(553423 -42659.4 -3.23558e-10 -63620.6 -2.41502e-10 146941)
(543690 -39765.9 7.99951e-13 -59247.8 6.62054e-12 145333)
(535262 -36726.6 -3.93518e-12 -55126.4 -1.97403e-11 144041)
(527979 -33610.2 -2.53072e-10 -51424.6 -2.47208e-10 142966)
(521725 -30458 0 -48263.1 0 142039)
(516379 -27280 -2.29199e-10 -45751.9 -7.45838e-11 141188)
(511869 -24060.5 -1.0741e-12 -43977.3 -4.56046e-12 140367)
(508084 -20731.3 -2.95931e-10 -43039.2 -1.44147e-10 139514)
(505051 -17213.7 8.10884e-11 -43015 8.54897e-11 138611)
(502591 -13274.2 1.86628e-10 -44064.6 8.5459e-11 137558)
(501053 -8875.6 2.31932e-12 -46271.1 -1.86933e-13 136434)
(499822 -3049.62 -8.42478e-11 -49992.3 -7.32515e-11 134949)
(722620 -19888.6 1.44787e-10 -63730.8 1.27329e-10 197667)
(692896 -22856.5 -1.33899e-10 -69512.7 -8.41904e-11 187015)
(669483 -28261.4 -7.75927e-11 -75097.9 -6.43889e-11 178316)
(647046 -30853.8 1.28658e-10 -77520.5 7.86636e-11 170858)
(627174 -32666.2 -2.54264e-10 -77601.4 -1.15654e-10 164872)
(608990 -33488 -1.71478e-10 -76140.5 -8.10634e-11 159855)
(592816 -33523.6 -2.13829e-10 -73388.3 -1.55139e-10 155828)
(578317 -32911.2 2.57343e-11 -69896.9 -1.78586e-11 152526)
(565492 -31775.2 4.32199e-10 -65959.9 2.75512e-10 149860)
(554144 -30245.2 -1.48704e-11 -61908.3 -1.59747e-11 147671)
(544176 -28422.4 2.30989e-10 -57967.5 1.30865e-10 145862)
(535439 -26391.6 -1.14016e-11 -54346.8 -1.29045e-11 144328)
(527833 -24210.9 8.44358e-25 -51208.2 8.56848e-25 142987)
(521235 -21910.9 -1.01543e-10 -48704.7 -5.06212e-11 141759)
(515587 -19496.1 9.92616e-11 -46966.9 4.83636e-11 140586)
(510771 -16925.7 -4.45996e-12 -46149.4 -6.43341e-12 139386)
(506850 -14143.9 1.57511e-11 -46386.7 -4.1797e-11 138139)
(503606 -10969.9 9.01081e-13 -47927.1 2.98469e-12 136704)
(501529 -7376.77 -9.16403e-13 -50931.9 1.18782e-12 135179)
(499800 -2543 -1.38413e-12 -55976.2 -6.62945e-13 133147)
(711547 3189.58 1.34436e-10 -54896.6 1.06294e-10 196995)
(688241 -217.623 0 -66878.9 0 186409)
(666753 -6830.09 -1.04879e-10 -72706.3 -9.23748e-11 178214)
(646385 -11187.6 1.37088e-24 -75980.3 1.10948e-24 171121)
(627994 -14610.2 3.14162e-25 -76651.5 2.27862e-25 165403)
(610919 -17038.6 1.48995e-24 -75731.5 1.10776e-24 160556)
(595483 -18609.9 2.28555e-24 -73473.3 1.84607e-24 156603)
(581409 -19463.8 -9.1906e-11 -70414.6 -8.60761e-11 153298)
(568753 -19712.5 0 -66845.3 0 150572)
(557369 -19478.5 8.7822e-11 -63096.7 8.50443e-11 148282)
(547212 -18859.9 -1.25791e-25 -59400.4 -2.10967e-25 146343)
(538175 -17943 -8.44792e-11 -55977.8 -8.47017e-11 144659)
(530194 -16791 8.30884e-11 -53005.4 8.47475e-11 143157)
(523177 -15446.4 1.19312e-24 -50656.4 8.6888e-25 141756)
(517092 -13925.5 -8.08669e-11 -49083.4 -8.52257e-11 140402)
(511841 -12215.9 -7.16859e-25 -48473 -6.62399e-25 139011)
(507525 -10279 7.94234e-11 -48992.2 8.62331e-11 137560)
(503923 -8002.42 7.90076e-11 -50939.7 8.69843e-11 135895)
(501628 -5384.24 -8.52768e-25 -54539.8 -7.43397e-25 134126)
(499711 -1852.26 -4.26307e-25 -60454.2 -7.54873e-25 131777)
(703193 26316.8 2.48763e-11 -44406.1 4.29937e-11 197636)
(681768 20993.7 -8.56542e-11 -58322.7 -5.26726e-11 187034)
(663562 13204.6 -1.91085e-10 -65546.2 -1.45402e-10 179405)
(644819 7422.67 0 -70320.8 0 172349)
(627900 2643.59 9.9344e-12 -72265.7 3.89136e-11 166690)
(611728 -1160.67 -8.25952e-11 -72489 -1.14842e-11 161772)
(596952 -4068.21 -1.84185e-10 -71191.8 -1.37291e-10 157728)
(583260 -6227.58 -2.72158e-10 -68943.5 -1.83209e-10 154295)
(570805 -7728.17 9.00302e-11 -66032.9 8.67362e-11 151432)
(559463 -8685.64 -1.79983e-10 -62813 -9.09411e-11 148995)
(549236 -9189.81 -8.98735e-11 -59532.2 -4.43188e-11 146911)
(540040 -9326.07 -1.79447e-10 -56434.7 -8.65223e-11 145082)
(531839 -9160.88 -1.79119e-10 -53720.5 -8.46501e-11 143436)
(524562 -8746.15 -8.93942e-11 -51586.9 -4.15358e-11 141892)
(518194 -8112.47 -1.78473e-10 -50216.2 -8.18393e-11 140393)
(512661 -7274.33 -1.78182e-10 -49818.4 -8.10071e-11 138853)
(508077 -6213.6 -7.96104e-11 -50607.5 -8.62887e-11 137241)
(504236 -4902.55 -8.88337e-11 -52880.7 -4.04211e-11 135406)
(501801 -3325.88 -8.87065e-11 -56894.9 -4.08675e-11 133472)
(499693 -1146.74 -4.42807e-11 -63463.6 -4.17189e-11 130869)
(688568 44255.8 4.89993e-10 -35615.9 4.13144e-10 195886)
(670033 38810.3 7.75692e-11 -51081.4 5.08287e-11 185685)
(654895 30662.7 -2.84238e-10 -59185.5 -2.36975e-10 178713)
(638266 24205.9 2.91012e-24 -64953.2 2.42615e-24 171994)
(623222 18540.5 1.12983e-10 -67778.1 1.3171e-10 166633)
(608450 13752.6 -1.54683e-25 -68818.6 -9.09982e-26 161889)
(594799 9796.23 8.5057e-11 -68256.8 4.85643e-11 157963)
(581946 6567.05 -1.8349e-10 -66664.7 -1.77071e-10 154584)
(570116 3998.28 3.63906e-24 -64327.1 3.04011e-24 151737)
(559214 1995.16 1.76006e-10 -61600.3 1.74821e-10 149284)
(549280 480.157 -8.67991e-11 -58736.8 -4.42021e-11 147163)
(540260 -625.317 -1.0219e-24 -55990.1 -8.13887e-25 145281)
(532144 -1386.6 -4.35817e-24 -53569.1 -4.01137e-24 143573)
(524885 -1863.84 8.71291e-11 -51686.1 4.15715e-11 141960)
(518488 -2095.82 -2.59362e-24 -50531.2 -2.21069e-24 140387)
(512902 -2135.55 -1.60637e-10 -50342.3 -1.72503e-10 138768)
(508239 -1955.95 1.14773e-24 -51323.1 8.72551e-25 137075)
(504356 -1661.68 7.1358e-11 -53812.2 1.32319e-10 135163)
(501880 -1115.83 -8.70844e-11 -58180.5 -4.10659e-11 133110)
(499682 -365.553 -4.35029e-11 -65088.5 -4.19624e-11 130378)
(670204 59138.4 1.3469e-10 -26907.5 9.4414e-11 192989)
(654596 53626.1 1.71615e-10 -43005.8 1.42121e-10 183477)
(642512 45535.7 1.46453e-10 -51693.5 9.82964e-11 177246)
(628191 38788.4 2.36323e-25 -58343.4 2.96984e-25 170954)
(615224 32617 2.51541e-10 -62013.4 1.89435e-10 165963)
(602095 27184.1 -1.5411e-11 -63902 -4.2476e-11 161458)
(589830 22473.4 -1.22376e-11 -64117.2 -4.25551e-11 157714)
(578087 18426.3 1.63258e-10 -63235.2 9.34668e-11 154455)
(567161 15001.2 8.91923e-11 -61524.2 8.89613e-11 151691)
(556978 12128.4 1.70759e-10 -59344.2 1.33234e-10 149290)
(547613 9746.34 1.67614e-10 -56948.6 8.76521e-11 147199)
(539037 7788.06 -2.6412e-13 -54597.5 -4.46791e-11 145332)
(531260 6191.38 8.5993e-11 -52507.2 -3.05215e-12 143626)
(524262 4897.37 8.48723e-11 -50897.2 4.14128e-11 142009)
(518038 3848.97 2.51215e-10 -49970.5 1.68472e-10 140420)
(512614 2995.96 8.52226e-11 -49965.2 4.05226e-11 138795)
(507929 2295.67 0 -51126.8 0 137041)
(504329 1638.83 2.50059e-10 -53764.5 1.67228e-10 135169)
(501152 1223.31 2.52738e-10 -58058.6 1.45407e-10 132928)
(499914 324.673 8.55048e-11 -64966.7 8.3918e-11 130484)
(649179 70576.6 -7.29349e-11 -19361.5 -5.23875e-11 188945)
(636387 65403 -6.44232e-11 -35660.9 -4.63444e-11 180218)
(627095 57790.1 -9.71134e-11 -44670 -9.23472e-11 174727)
(615126 51138.4 0 -51860.7 0 168980)
(604293 44800.7 9.4424e-11 -56116 9.18621e-11 164453)
(592978 39023.2 1.67545e-10 -58633.2 1.38415e-10 160304)
(582296 33814.4 -1.67725e-10 -59466.4 -1.37348e-10 156849)
(571897 29171.5 -8.97529e-11 -59179.4 -9.03849e-11 153815)
(562119 25079.5 8.82091e-11 -58021.5 8.9863e-11 151229)
(552905 21498.7 8.01263e-11 -56345.6 4.40763e-11 148968)
(544360 18386.2 -1.40444e-26 -54399 -1.56331e-25 146988)
(536472 15689.8 8.16795e-11 -52439.8 4.2431e-11 145210)
(529278 13353.8 2.85247e-25 -50682.7 3.03089e-25 143579)
(522763 11321.9 -8.27005e-11 -49348.2 -4.10835e-11 142024)