/*--------------------------------*- C++ -*----------------------------------*\
  =========                 |
  \\      /  F ield         | OpenFOAM: The Open Source CFD Toolbox
   \\    /   O peration     | Website:  https://openfoam.org
    \\  /    A nd           | Version:  9
     \\/     M anipulation  |
\*---------------------------------------------------------------------------*/
FoamFile
{
    format      ascii;
    class       volScalarField;
    location    "5";
    object      sigmaEq;
}
// * * * * * * * * * * * * * * * * * * * * * * * * * * * * * * * * * * * * * //

dimensions      [1 -1 -2 0 0 0 0];

internalField   nonuniform List<scalar> 
1000
(
786546
746611
735266
740776
741564
739975
734817
726983
718203
707329
916860
832323
791557
778849
767591
757903
746693
734783
721348
709457
1.04426e+06
914910
842520
809054
783773
764496
746208
729208
711401
697119
1.16623e+06
993335
888283
832081
791044
760955
734858
712422
690376
673561
1.27901e+06
1.06575e+06
927992
847765
789575
747627
713152
684962
658914
639408
1.38303e+06
1.13157e+06
961059
856022
779714
725303
682197
648205
618403
596134
1.47259e+06
1.1865e+06
982847
853381
759587
693484
642597
603507
570702
545923
1.55678e+06
1.22818e+06
989157
837688
729032
653867
597483
555076
520709
494231
1.61523e+06
1.2325e+06
958175
793590
681063
604760
548676
506630
473082
446242
1.66592e+06
1.16155e+06
884547
730229
632644
565061
515243
476439
445017
418332
2179.47
6314.54
28295.7
58731.7
92238.6
126871
160551
192658
222161
249506
7415.08
39375.5
84008.3
127979
167043
201751
232070
259181
282487
304361
32455.5
93793.3
150148
201205
243845
279282
308112
332280
351254
369154
74678.5
160350
223935
277788
320738
355179
381974
403405
418818
433566
134743
235354
303139
357410
398366
430069
453703
471759
483516
495060
212398
315218
383102
435810
473319
501193
520918
535109
543123
551293
306032
398575
461624
510623
543529
566838
582167
592174
596417
601025
413375
484282
536827
579498
606610
624755
635462
641156
641937
642790
531421
571511
607832
641241
661193
673560
679339
680711
678200
675806
656982
659312
674034
694990
706151
711853
712337
708991
704238
696762
274123
295310
314949
332714
348778
363234
376213
387814
398153
407307
415362
422371
428380
433420
437502
440648
442845
444163
444583
444326
321283
333645
346100
357682
368549
378650
387987
396555
404383
411477
417868
423570
428604
432983
436708
439781
442158
443810
444518
444130
379168
383157
388217
393108
398081
403036
407938
412703
417310
421698
425855
429748
433363
436679
439663
442275
444394
445888
446303
445369
437858
434864
433554
432525
432063
432100
432629
433523
434764
436244
437928
439745
441650
443588
445487
447265
448745
449750
449740
448468
494304
485560
478774
472658
467416
462992
459462
456653
454597
453149
452282
451897
451934
452309
452928
453680
454361
454784
454427
453086
546083
532758
521437
511059
501812
493522
486445
480309
475227
471023
467690
465117
463245
461981
461223
460855
460688
460545
460013
458912
591951
575178
560409
546523
534085
522499
512353
503258
495427
488681
483032
478377
474657
471784
469665
468190
467212
466582
466051
465441
630648
611467
594585
577821
563040
548891
536309
524797
514617
505628
497861
491249
485755
481310
477849
475288
473545
472504
472121
472200
662018
640711
623822
605063
588497
572269
557541
543954
531736
520814
511211
502889
495825
489974
485305
481765
479354
477994
477862
478737
685398
662606
646804
628201
610925
593788
577565
562322
548282
535520
524106
514057
505386
498082
492156
487589
484469
482766
482889
484606
694488
673099
657517
639983
622747
605619
589097
573346
558623
545047
532740
521760
512164
503980
497267
492051
488502
486630
487026
489453
676650
665656
651426
636198
620640
604933
589547
574663
560563
547397
535322
524433
514826
506567
499759
494470
490928
489188
489974
493018
662281
653965
643061
630028
616477
602288
588149
574217
560841
548191
536465
525788
516290
508073
501273
495999
492528
490923
491992
495454
645183
640193
632020
621123
609494
596854
584046
571202
558721
546785
535620
525374
516200
508225
501607
496493
493148
491723
493082
496769
625715
623358
617757
609098
599518
588614
577326
565766
554379
543356
532950
523326
514656
507091
500782
495944
492717
491660
492337
496876
604995
604983
601697
595138
587492
578306
568558
558355
548163
538181
528678
519830
511823
504809
498975
494471
491611
490555
491962
495509
583394
585316
584053
579455
573644
566162
557976
549191
540279
531444
522963
515016
507796
501457
496183
492114
489550
488556
489854
493183
561349
564874
565371
562546
558425
552570
545910
538554
530964
523344
515970
509023
502694
497129
492502
488934
486686
485828
486962
489836
539055
543853
545845
544601
542029
537721
532549
526622
520383
514032
507835
501970
496618
491914
488013
485014
483130
482392
483306
485637
516610
522405
525657
525815
524659
521813
518082
513573
508701
503658
498694
493977
489674
485907
482805
480442
478968
478388
479057
480756
493979
500537
504850
506258
506409
504958
502635
499542
496057
492358
488677
485167
481978
479215
476979
475316
474311
473930
474362
475409
471051
478201
483423
485971
487359
487262
486336
484668
482599
480286
477936
475686
473667
471966
470656
469755
469284
469165
469409
469827
447606
455244
461288
464927
467530
468793
469289
469088
468483
467610
466648
465712
464914
464324
463989
463906
464033
464251
464391
464258
423425
431528
438379
443129
446986
449666
451651
452989
453922
454558
455045
455476
455943
456500
457174
457946
458726
459359
459510
458950
398128
406789
414538
420516
425755
429982
433586
436584
439166
441407
443420
445276
447046
448772
450468
452107
453571
454681
454975
454162
371568
380998
389838
397254
404076
410042
415437
420250
424609
428558
432173
435504
438599
441491
444189
446667
448807
450421
450981
450118
343228
353836
364142
373363
382100
390100
397542
404381
410690
416479
421791
426650
431089
435129
438778
442018
444757
446832
447742
447049
313659
325999
338240
349689
360698
371025
380745
389785
398168
405876
412925
419320
425076
430204
434710
438589
441785
444188
445422
445053
282278
297271
312217
326535
340333
353385
365687
377149
387761
397491
406337
414291
421354
427524
432791
437148
440557
442995
444288
444256
252771
271169
289340
306821
323588
339414
354272
368062
380774
392373
402859
412221
420453
427537
433440
438132
441546
443709
444563
444422
395769
422577
468218
518486
568462
612464
648087
673657
689472
692789
374858
399860
441982
489488
538364
583228
621631
651147
671627
679703
356131
379978
419173
463675
510246
553933
592667
624408
649158
664407
338997
362067
398838
440670
485084
527493
565879
598303
624270
643887
322929
345470
380185
419505
461625
502440
540111
573092
599886
622018
307840
330045
363066
400160
440062
479083
515463
548160
574972
598725
293460
315436
347025
382133
419953
457206
492204
524336
550766
575054
279736
301529
331881
365203
401045
436490
469938
501168
527012
551324
266578
288184
317429
349124
383118
416799
448679
478799
503878
527775
253984
275342
303531
333685
365897
397817
428099
456961
481192
504441
241986
262980
290087
318714
349173
379324
407992
435486
458787
481234
230681
251128
277030
304050
332701
361028
388045
414090
436407
457974
220260
239872
264302
289501
316194
342591
367893
392421
413714
434365
211011
229351
251876
274906
299386
323684
347175
370126
390367
410109
203482
219787
239592
259838
281699
303674
325254
346603
365820
384721
198327
211291
227272
244017
262777
282181
301751
321502
339766
357945
196980
204063
213985
225999
241080
257746
275371
293712
311288
329051
199740
196749
198686
205278
216392
230324
246211
263456
280729
298474
210096
187497
176693
176664
184265
196320
211455
228602
246537
265165
214574
164371
146392
141251
147146
158677
174383
192689
212401
232918
)
;

boundaryField
{
    left
    {
        type            calculated;
        value           nonuniform List<scalar> 
30
(
391190
370527
352033
335103
319259
304414
290325
276950
264220
252154
240804
230288
220819
212715
206549
203176
204306
212054
233454
267064
1.77363e+06
1.13679e+06
855924
711411
621383
557518
509615
471588
440529
413741
)
;
    }
    right
    {
        type            calculated;
        value           nonuniform List<scalar> 
30
(
444250
444132
445329
448405
453009
458840
465385
472177
478750
484674
489541
493163
495615
496939
496921
495654
493336
489964
485734
480818
475437
469825
464230
458906
454111
450074
447024
445049
444274
444335
)
;
    }
    down
    {
        type            calculated;
        value           nonuniform List<scalar> 
30
(
1915.32
1783.55
20363.2
49747
83646.7
119109
153777
186835
217177
245290
270592
292657
312920
331144
347584
362320
375529
387306
397788
407054
415196
422272
428331
433404
437506
440656
442846
444155
444577
444435
)
;
    }
    up
    {
        type            calculated;
        value           nonuniform List<scalar> 
30
(
211454
162440
145387
140143
145877
157236
172836
191110
210808
231412
251329
269875
288223
305851
322771
338730
353713
367613
380423
392109
402670
412096
420381
427507
433438
438146
441561
443715
444554
444490
)
;
    }
    hole
    {
        type            calculated;
        value           nonuniform List<scalar> 
20
(
792310
929421
1.06345e+06
1.19172e+06
1.31025e+06
1.41963e+06
1.51404e+06
1.60507e+06
1.67503e+06
1.75741e+06
459.364
500.804
15697.8
53233.1
111821
190938
287974
400172
524026
656011
)
;
    }
    frontAndBack
    {
        type            empty;
    }
}


// ************************************************************************* //
