/*--------------------------------*- C++ -*----------------------------------*\
  =========                 |
  \\      /  F ield         | OpenFOAM: The Open Source CFD Toolbox
   \\    /   O peration     | Website:  https://openfoam.org
    \\  /    A nd           | Version:  9
     \\/     M anipulation  |
\*---------------------------------------------------------------------------*/
FoamFile
{
    format      ascii;
    class       volVectorField;
    location    "15";
    object      D;
}
// * * * * * * * * * * * * * * * * * * * * * * * * * * * * * * * * * * * * * //

dimensions      [0 1 0 0 0 0 0];

internalField   nonuniform List<vector> 
1000
(
(1.01673e-05 3.42356e-06 0)
(9.48838e-06 3.77899e-06 0)
(8.99336e-06 4.07982e-06 0)
(8.6348e-06 4.31429e-06 0)
(8.37862e-06 4.51691e-06 0)
(8.19742e-06 4.6911e-06 0)
(8.07446e-06 4.84807e-06 0)
(7.99603e-06 4.99103e-06 0)
(7.95143e-06 5.12443e-06 0)
(7.93516e-06 5.2509e-06 0)
(9.16645e-06 3.08931e-06 0)
(8.46021e-06 3.34575e-06 0)
(7.94901e-06 3.574e-06 0)
(7.57999e-06 3.74909e-06 0)
(7.31699e-06 3.90311e-06 0)
(7.13025e-06 4.03545e-06 0)
(7.00209e-06 4.15546e-06 0)
(6.91789e-06 4.26523e-06 0)
(6.86665e-06 4.3671e-06 0)
(6.84092e-06 4.46651e-06 0)
(8.14238e-06 2.75214e-06 0)
(7.42931e-06 2.90504e-06 0)
(6.91594e-06 3.05724e-06 0)
(6.54711e-06 3.17275e-06 0)
(6.28535e-06 3.27889e-06 0)
(6.09943e-06 3.37122e-06 0)
(5.97108e-06 3.45664e-06 0)
(5.88526e-06 3.53588e-06 0)
(5.83089e-06 3.60923e-06 0)
(5.80011e-06 3.68282e-06 0)
(7.10242e-06 2.41571e-06 0)
(6.40268e-06 2.46582e-06 0)
(5.90174e-06 2.54118e-06 0)
(5.54432e-06 2.59907e-06 0)
(5.29238e-06 2.65967e-06 0)
(5.1141e-06 2.71505e-06 0)
(4.99105e-06 2.7692e-06 0)
(4.90801e-06 2.82119e-06 0)
(4.85454e-06 2.86965e-06 0)
(4.82201e-06 2.92022e-06 0)
(6.05101e-06 2.08859e-06 0)
(5.38392e-06 2.04053e-06 0)
(4.91044e-06 2.03987e-06 0)
(4.57661e-06 2.04387e-06 0)
(4.34358e-06 2.06299e-06 0)
(4.18014e-06 2.086e-06 0)
(4.06785e-06 2.11349e-06 0)
(3.99191e-06 2.14265e-06 0)
(3.94268e-06 2.17063e-06 0)
(3.91131e-06 2.20182e-06 0)
(4.99282e-06 1.77512e-06 0)
(4.3754e-06 1.63166e-06 0)
(3.94487e-06 1.5634e-06 0)
(3.64737e-06 1.52003e-06 0)
(3.44293e-06 1.5049e-06 0)
(3.30157e-06 1.50209e-06 0)
(3.20536e-06 1.50912e-06 0)
(3.14046e-06 1.52104e-06 0)
(3.09837e-06 1.53389e-06 0)
(3.0705e-06 1.55037e-06 0)
(3.92337e-06 1.47411e-06 0)
(3.37139e-06 1.2441e-06 0)
(3.00395e-06 1.12103e-06 0)
(2.7564e-06 1.04152e-06 0)
(2.59087e-06 1.00249e-06 0)
(2.47849e-06 9.82608e-07 0)
(2.40309e-06 9.76676e-07 0)
(2.35245e-06 9.7776e-07 0)
(2.31965e-06 9.8122e-07 0)
(2.29704e-06 9.88085e-07 0)
(2.85485e-06 1.16744e-06 0)
(2.37893e-06 8.74754e-07 0)
(2.09354e-06 7.18618e-07 0)
(1.90907e-06 6.21857e-07 0)
(1.79085e-06 5.73335e-07 0)
(1.71233e-06 5.47536e-07 0)
(1.66055e-06 5.37152e-07 0)
(1.62583e-06 5.34203e-07 0)
(1.60331e-06 5.34027e-07 0)
(1.587e-06 5.36406e-07 0)
(1.7356e-06 8.37838e-07 0)
(1.39056e-06 5.18631e-07 0)
(1.2116e-06 3.63392e-07 0)
(1.10245e-06 2.77079e-07 0)
(1.03742e-06 2.3709e-07 0)
(9.95005e-07 2.17189e-07 0)
(9.67604e-07 2.09962e-07 0)
(9.48946e-07 2.08232e-07 0)
(9.36613e-07 2.08422e-07 0)
(9.26919e-07 2.09904e-07 0)
(6.02797e-07 4.37606e-07 0)
(4.421e-07 1.965e-07 0)
(3.87189e-07 9.59573e-08 0)
(3.57453e-07 5.35625e-08 0)
(3.40085e-07 3.68886e-08 0)
(3.28232e-07 3.07744e-08 0)
(3.20362e-07 2.98455e-08 0)
(3.1468e-07 3.0835e-08 0)
(3.10748e-07 3.21397e-08 0)
(3.07306e-07 3.36179e-08 0)
(1.79222e-05 5.54098e-06 0)
(1.78925e-05 6.22972e-06 0)
(1.78721e-05 6.87145e-06 0)
(1.78728e-05 7.45896e-06 0)
(1.78998e-05 7.99827e-06 0)
(1.79549e-05 8.49613e-06 0)
(1.80385e-05 8.96027e-06 0)
(1.81488e-05 9.39747e-06 0)
(1.82849e-05 9.813e-06 0)
(1.84433e-05 1.02128e-05 0)
(1.73595e-05 5.49542e-06 0)
(1.72798e-05 6.18215e-06 0)
(1.72256e-05 6.81604e-06 0)
(1.72015e-05 7.3917e-06 0)
(1.72104e-05 7.91658e-06 0)
(1.72504e-05 8.39783e-06 0)
(1.73203e-05 8.84393e-06 0)
(1.74169e-05 9.26199e-06 0)
(1.75386e-05 9.65758e-06 0)
(1.7681e-05 1.00374e-05 0)
(1.67629e-05 5.40307e-06 0)
(1.66239e-05 6.088e-06 0)
(1.65236e-05 6.70896e-06 0)
(1.64632e-05 7.26606e-06 0)
(1.64432e-05 7.77058e-06 0)
(1.6459e-05 8.23063e-06 0)
(1.65077e-05 8.6553e-06 0)
(1.65843e-05 9.05181e-06 0)
(1.6687e-05 9.4259e-06 0)
(1.68094e-05 9.78448e-06 0)
(1.61182e-05 5.26884e-06 0)
(1.59127e-05 5.95042e-06 0)
(1.57589e-05 6.55554e-06 0)
(1.56554e-05 7.08994e-06 0)
(1.56002e-05 7.56994e-06 0)
(1.5586e-05 8.00485e-06 0)
(1.56085e-05 8.40459e-06 0)
(1.5661e-05 8.77645e-06 0)
(1.57413e-05 9.12643e-06 0)
(1.58412e-05 9.46135e-06 0)
(1.54181e-05 5.094e-06 0)
(1.51398e-05 5.76677e-06 0)
(1.49288e-05 6.35105e-06 0)
(1.47798e-05 6.85755e-06 0)
(1.46873e-05 7.3082e-06 0)
(1.46415e-05 7.7136e-06 0)
(1.46363e-05 8.0847e-06 0)
(1.46635e-05 8.42872e-06 0)
(1.47206e-05 8.75197e-06 0)
(1.47974e-05 9.06081e-06 0)
(1.46618e-05 4.88261e-06 0)
(1.43065e-05 5.53729e-06 0)
(1.40371e-05 6.09473e-06 0)
(1.38427e-05 6.56847e-06 0)
(1.37134e-05 6.98579e-06 0)
(1.36363e-05 7.35817e-06 0)
(1.36038e-05 7.69756e-06 0)
(1.36063e-05 8.01095e-06 0)
(1.36405e-05 8.30508e-06 0)
(1.36949e-05 8.5855e-06 0)
(1.38513e-05 4.63789e-06 0)
(1.34179e-05 5.262e-06 0)
(1.30912e-05 5.78495e-06 0)
(1.28537e-05 6.22066e-06 0)
(1.26897e-05 6.60083e-06 0)
(1.25835e-05 6.93711e-06 0)
(1.25257e-05 7.24222e-06 0)
(1.25053e-05 7.52279e-06 0)
(1.25184e-05 7.78588e-06 0)
(1.25522e-05 8.03609e-06 0)
(1.29907e-05 4.3644e-06 0)
(1.24819e-05 4.94352e-06 0)
(1.21018e-05 5.42344e-06 0)
(1.18247e-05 5.81596e-06 0)
(1.16296e-05 6.1556e-06 0)
(1.14977e-05 6.45336e-06 0)
(1.14176e-05 6.72237e-06 0)
(1.13771e-05 6.96855e-06 0)
(1.13713e-05 7.19929e-06 0)
(1.13874e-05 7.41773e-06 0)
(1.20856e-05 4.06697e-06 0)
(1.15083e-05 4.5859e-06 0)
(1.10809e-05 5.01402e-06 0)
(1.07695e-05 5.35821e-06 0)
(1.0548e-05 5.65432e-06 0)
(1.03946e-05 5.91172e-06 0)
(1.02957e-05 6.14342e-06 0)
(1.02386e-05 6.35456e-06 0)
(1.02167e-05 6.55202e-06 0)
(1.02182e-05 6.73824e-06 0)
(1.11423e-05 3.75105e-06 0)
(1.05072e-05 4.19503e-06 0)
(1.00407e-05 4.56315e-06 0)
(9.70168e-06 4.85442e-06 0)
(9.45951e-06 5.10464e-06 0)
(9.2893e-06 5.32058e-06 0)
(9.17595e-06 5.51473e-06 0)
(9.10586e-06 5.69076e-06 0)
(9.07109e-06 5.85545e-06 0)
(9.06226e-06 6.00741e-06 0)
(1.86326e-05 1.05974e-05 0)
(1.885e-05 1.09791e-05 0)
(1.9084e-05 1.13548e-05 0)
(1.93329e-05 1.1726e-05 0)
(1.95952e-05 1.20949e-05 0)
(1.98695e-05 1.24623e-05 0)
(2.01548e-05 1.28296e-05 0)
(2.04496e-05 1.31977e-05 0)
(2.07531e-05 1.35673e-05 0)
(2.10642e-05 1.39391e-05 0)
(2.13821e-05 1.43136e-05 0)
(2.17059e-05 1.46913e-05 0)
(2.20347e-05 1.50727e-05 0)
(2.23679e-05 1.54579e-05 0)
(2.27046e-05 1.58472e-05 0)
(2.30441e-05 1.62408e-05 0)
(2.33857e-05 1.66386e-05 0)
(2.37287e-05 1.70401e-05 0)
(2.40723e-05 1.74449e-05 0)
(2.44159e-05 1.78516e-05 0)
(1.78783e-05 1.04075e-05 0)
(1.81226e-05 1.07829e-05 0)
(1.83798e-05 1.11525e-05 0)
(1.86481e-05 1.15185e-05 0)
(1.8927e-05 1.18828e-05 0)
(1.92153e-05 1.22464e-05 0)
(1.95122e-05 1.26107e-05 0)
(1.98168e-05 1.29763e-05 0)
(2.01285e-05 1.3344e-05 0)
(2.04465e-05 1.37145e-05 0)
(2.07702e-05 1.40884e-05 0)
(2.10988e-05 1.44659e-05 0)
(2.1432e-05 1.48476e-05 0)
(2.17689e-05 1.52337e-05 0)
(2.21092e-05 1.56244e-05 0)
(2.24522e-05 1.60198e-05 0)
(2.27975e-05 1.64199e-05 0)
(2.31445e-05 1.68243e-05 0)
(2.34926e-05 1.72324e-05 0)
(2.38412e-05 1.76432e-05 0)
(1.70176e-05 1.01436e-05 0)
(1.72965e-05 1.05197e-05 0)
(1.75847e-05 1.08902e-05 0)
(1.78797e-05 1.12569e-05 0)
(1.81822e-05 1.16222e-05 0)
(1.84908e-05 1.19869e-05 0)
(1.88057e-05 1.23525e-05 0)
(1.91261e-05 1.27197e-05 0)
(1.94516e-05 1.30893e-05 0)
(1.97818e-05 1.34619e-05 0)
(2.01164e-05 1.38381e-05 0)
(2.04549e-05 1.42184e-05 0)
(2.0797e-05 1.4603e-05 0)
(2.11422e-05 1.49924e-05 0)
(2.14904e-05 1.53868e-05 0)
(2.1841e-05 1.57863e-05 0)
(2.21938e-05 1.6191e-05 0)
(2.25482e-05 1.66007e-05 0)
(2.2904e-05 1.70151e-05 0)
(2.32601e-05 1.74335e-05 0)
(1.60631e-05 9.81169e-06 0)
(1.6383e-05 1.01938e-05 0)
(1.67088e-05 1.05707e-05 0)
(1.70367e-05 1.0943e-05 0)
(1.73688e-05 1.13139e-05 0)
(1.77037e-05 1.1684e-05 0)
(1.80421e-05 1.20548e-05 0)
(1.83834e-05 1.24271e-05 0)
(1.87278e-05 1.28018e-05 0)
(1.9075e-05 1.31796e-05 0)
(1.9425e-05 1.35611e-05 0)
(1.97776e-05 1.39468e-05 0)
(2.01326e-05 1.4337e-05 0)
(2.049e-05 1.47322e-05 0)
(2.08495e-05 1.51327e-05 0)
(2.1211e-05 1.55386e-05 0)
(2.15744e-05 1.59502e-05 0)
(2.19391e-05 1.63676e-05 0)
(2.2305e-05 1.67909e-05 0)
(2.2671e-05 1.72198e-05 0)
(1.50355e-05 9.40533e-06 0)
(1.54013e-05 9.79975e-06 0)
(1.57696e-05 1.01892e-05 0)
(1.61351e-05 1.05727e-05 0)
(1.65015e-05 1.09544e-05 0)
(1.6867e-05 1.13344e-05 0)
(1.72331e-05 1.17148e-05 0)
(1.75994e-05 1.20963e-05 0)
(1.79665e-05 1.24799e-05 0)
(1.83343e-05 1.28663e-05 0)
(1.87031e-05 1.32562e-05 0)
(1.9073e-05 1.36502e-05 0)
(1.94441e-05 1.40487e-05 0)
(1.98164e-05 1.44523e-05 0)
(2.019e-05 1.48612e-05 0)
(2.05648e-05 1.5276e-05 0)
(2.09409e-05 1.56969e-05 0)
(2.1318e-05 1.61243e-05 0)
(2.1696e-05 1.65587e-05 0)
(2.20738e-05 1.70004e-05 0)
(1.39515e-05 8.92695e-06 0)
(1.43667e-05 9.33936e-06 0)
(1.47813e-05 9.74719e-06 0)
(1.51878e-05 1.01471e-05 0)
(1.55919e-05 1.05445e-05 0)
(1.59913e-05 1.0939e-05 0)
(1.63884e-05 1.13332e-05 0)
(1.67829e-05 1.17277e-05 0)
(1.71756e-05 1.21237e-05 0)
(1.75669e-05 1.25221e-05 0)
(1.79573e-05 1.29235e-05 0)
(1.8347e-05 1.33287e-05 0)
(1.87364e-05 1.37383e-05 0)
(1.91258e-05 1.41527e-05 0)
(1.95155e-05 1.45726e-05 0)
(1.99056e-05 1.49984e-05 0)
(2.02962e-05 1.54306e-05 0)
(2.06872e-05 1.587e-05 0)
(2.10788e-05 1.63174e-05 0)
(2.14702e-05 1.67733e-05 0)
(1.28291e-05 8.37745e-06 0)
(1.32954e-05 8.81364e-06 0)
(1.37585e-05 9.24552e-06 0)
(1.42082e-05 9.6671e-06 0)
(1.46523e-05 1.00849e-05 0)
(1.50881e-05 1.04985e-05 0)
(1.55184e-05 1.09105e-05 0)
(1.59432e-05 1.13219e-05 0)
(1.63638e-05 1.17339e-05 0)
(1.67806e-05 1.21474e-05 0)
(1.71944e-05 1.25635e-05 0)
(1.76058e-05 1.29829e-05 0)
(1.80154e-05 1.34062e-05 0)
(1.84235e-05 1.3834e-05 0)
(1.88307e-05 1.42671e-05 0)
(1.92372e-05 1.4706e-05 0)
(1.96435e-05 1.51516e-05 0)
(2.00497e-05 1.56046e-05 0)
(2.0456e-05 1.60664e-05 0)
(2.08621e-05 1.65377e-05 0)
(1.1685e-05 7.76178e-06 0)
(1.22026e-05 8.22717e-06 0)
(1.27147e-05 8.68765e-06 0)
(1.32088e-05 9.13584e-06 0)
(1.36939e-05 9.57833e-06 0)
(1.41674e-05 1.00153e-05 0)
(1.46324e-05 1.04491e-05 0)
(1.50891e-05 1.0881e-05 0)
(1.5539e-05 1.13124e-05 0)
(1.59828e-05 1.17444e-05 0)
(1.64215e-05 1.21781e-05 0)
(1.68559e-05 1.26143e-05 0)
(1.72867e-05 1.30539e-05 0)
(1.77146e-05 1.34975e-05 0)
(1.81402e-05 1.3946e-05 0)
(1.85642e-05 1.44e-05 0)
(1.89869e-05 1.48606e-05 0)
(1.9409e-05 1.53287e-05 0)
(1.98306e-05 1.58059e-05 0)
(2.02523e-05 1.62931e-05 0)
(1.05365e-05 7.08575e-06 0)
(1.1104e-05 7.58601e-06 0)
(1.16639e-05 8.0786e-06 0)
(1.22025e-05 8.55794e-06 0)
(1.27285e-05 9.02866e-06 0)
(1.32401e-05 9.49238e-06 0)
(1.37401e-05 9.95118e-06 0)
(1.42293e-05 1.04068e-05 0)
(1.47091e-05 1.08607e-05 0)
(1.51806e-05 1.13141e-05 0)
(1.56449e-05 1.17682e-05 0)
(1.61029e-05 1.2224e-05 0)
(1.65556e-05 1.26824e-05 0)
(1.70039e-05 1.31442e-05 0)
(1.74486e-05 1.36102e-05 0)
(1.78904e-05 1.40813e-05 0)
(1.83301e-05 1.45585e-05 0)
(1.87684e-05 1.50429e-05 0)
(1.92058e-05 1.55363e-05 0)
(1.96434e-05 1.60397e-05 0)
(9.39699e-06 6.35976e-06 0)
(1.00118e-05 6.89845e-06 0)
(1.06145e-05 7.42417e-06 0)
(1.11966e-05 7.93795e-06 0)
(1.17626e-05 8.44068e-06 0)
(1.23126e-05 8.93479e-06 0)
(1.28481e-05 9.42209e-06 0)
(1.33704e-05 9.90449e-06 0)
(1.38808e-05 1.03837e-05 0)
(1.43806e-05 1.08611e-05 0)
(1.48709e-05 1.1338e-05 0)
(1.5353e-05 1.18156e-05 0)
(1.5828e-05 1.22949e-05 0)
(1.6297e-05 1.27768e-05 0)
(1.67608e-05 1.32621e-05 0)
(1.72206e-05 1.37518e-05 0)
(1.76772e-05 1.42469e-05 0)
(1.81317e-05 1.47486e-05 0)
(1.85848e-05 1.52586e-05 0)
(1.90382e-05 1.57781e-05 0)
(8.51762e-06 5.81542e-06 0)
(9.15875e-06 6.38205e-06 0)
(9.78388e-06 6.92651e-06 0)
(1.03896e-05 7.45992e-06 0)
(1.09784e-05 7.98224e-06 0)
(1.15504e-05 8.49573e-06 0)
(1.21071e-05 9.00207e-06 0)
(1.26493e-05 9.50294e-06 0)
(1.31785e-05 9.99989e-06 0)
(1.36957e-05 1.04943e-05 0)
(1.42022e-05 1.09874e-05 0)
(1.46992e-05 1.14802e-05 0)
(1.51879e-05 1.19738e-05 0)
(1.56694e-05 1.2469e-05 0)
(1.61447e-05 1.29667e-05 0)
(1.66151e-05 1.34677e-05 0)
(1.70814e-05 1.39729e-05 0)
(1.75451e-05 1.44835e-05 0)
(1.8007e-05 1.5001e-05 0)
(1.84693e-05 1.55264e-05 0)
(7.93048e-06 5.48977e-06 0)
(8.57172e-06 6.05635e-06 0)
(9.19703e-06 6.60527e-06 0)
(9.80474e-06 7.1447e-06 0)
(1.03965e-05 7.67445e-06 0)
(1.09723e-05 8.19609e-06 0)
(1.15332e-05 8.71097e-06 0)
(1.20799e-05 9.2204e-06 0)
(1.26136e-05 9.72567e-06 0)
(1.31353e-05 1.0228e-05 0)
(1.3646e-05 1.07283e-05 0)
(1.41469e-05 1.12277e-05 0)
(1.46391e-05 1.1727e-05 0)
(1.51236e-05 1.2227e-05 0)
(1.56016e-05 1.27284e-05 0)
(1.60741e-05 1.32319e-05 0)
(1.65423e-05 1.37384e-05 0)
(1.70076e-05 1.42488e-05 0)
(1.74709e-05 1.47642e-05 0)
(1.79348e-05 1.52854e-05 0)
(7.41219e-06 5.17713e-06 0)
(8.04187e-06 5.74205e-06 0)
(8.66078e-06 6.29255e-06 0)
(9.2638e-06 6.83564e-06 0)
(9.85317e-06 7.37074e-06 0)
(1.04278e-05 7.89882e-06 0)
(1.09887e-05 8.42088e-06 0)
(1.15363e-05 8.93785e-06 0)
(1.20713e-05 9.45072e-06 0)
(1.25946e-05 9.96039e-06 0)
(1.31071e-05 1.04677e-05 0)
(1.36099e-05 1.09735e-05 0)
(1.41038e-05 1.14784e-05 0)
(1.45899e-05 1.19831e-05 0)
(1.50694e-05 1.24882e-05 0)
(1.55432e-05 1.29943e-05 0)
(1.60126e-05 1.35019e-05 0)
(1.64789e-05 1.40118e-05 0)
(1.69432e-05 1.45247e-05 0)
(1.74082e-05 1.50412e-05 0)
(6.9477e-06 4.87606e-06 0)
(7.56226e-06 5.43642e-06 0)
(8.17002e-06 5.98642e-06 0)
(8.76401e-06 6.53165e-06 0)
(9.3467e-06 7.07081e-06 0)
(9.91627e-06 7.60433e-06 0)
(1.04736e-05 8.13273e-06 0)
(1.10186e-05 8.65653e-06 0)
(1.15521e-05 9.17641e-06 0)
(1.20744e-05 9.69301e-06 0)
(1.25865e-05 1.02069e-05 0)
(1.30891e-05 1.07188e-05 0)
(1.35831e-05 1.12291e-05 0)
(1.40696e-05 1.17384e-05 0)
(1.45493e-05 1.22471e-05 0)
(1.50236e-05 1.27555e-05 0)
(1.54933e-05 1.32642e-05 0)
(1.596e-05 1.37734e-05 0)
(1.64248e-05 1.42836e-05 0)
(1.68904e-05 1.47949e-05 0)
(6.53167e-06 4.58974e-06 0)
(7.12769e-06 5.14385e-06 0)
(7.72049e-06 5.69155e-06 0)
(8.30179e-06 6.23709e-06 0)
(8.87426e-06 6.77863e-06 0)
(9.43546e-06 7.31609e-06 0)
(9.98614e-06 7.84952e-06 0)
(1.05258e-05 8.37906e-06 0)
(1.10551e-05 8.90505e-06 0)
(1.15742e-05 9.42782e-06 0)
(1.20838e-05 9.94776e-06 0)
(1.25845e-05 1.04652e-05 0)
(1.30771e-05 1.09806e-05 0)
(1.35625e-05 1.14942e-05 0)
(1.40416e-05 1.20062e-05 0)
(1.45153e-05 1.25168e-05 0)
(1.49847e-05 1.30263e-05 0)
(1.5451e-05 1.35347e-05 0)
(1.59161e-05 1.40418e-05 0)
(1.63821e-05 1.45477e-05 0)
(6.15608e-06 4.31803e-06 0)
(6.73171e-06 4.8643e-06 0)
(7.30704e-06 5.40815e-06 0)
(7.87314e-06 5.95252e-06 0)
(8.4327e-06 6.49504e-06 0)
(8.98292e-06 7.0352e-06 0)
(9.52437e-06 7.57252e-06 0)
(1.00564e-05 8.1068e-06 0)
(1.05792e-05 8.638e-06 0)
(1.10931e-05 9.16618e-06 0)
(1.15984e-05 9.69146e-06 0)
(1.20956e-05 1.0214e-05 0)
(1.25855e-05 1.07339e-05 0)
(1.30687e-05 1.12514e-05 0)
(1.3546e-05 1.17664e-05 0)
(1.40185e-05 1.2279e-05 0)
(1.44869e-05 1.27891e-05 0)
(1.49527e-05 1.32964e-05 0)
(1.54168e-05 1.38006e-05 0)
(1.5882e-05 1.43014e-05 0)
(5.81444e-06 4.06111e-06 0)
(6.36851e-06 4.59863e-06 0)
(6.9246e-06 5.13749e-06 0)
(7.47364e-06 5.67942e-06 0)
(8.01826e-06 6.22166e-06 0)
(8.55544e-06 6.76327e-06 0)
(9.08565e-06 7.30333e-06 0)
(9.60797e-06 7.84127e-06 0)
(1.01226e-05 8.37672e-06 0)
(1.06295e-05 8.90945e-06 0)
(1.11289e-05 9.43932e-06 0)
(1.16214e-05 9.96625e-06 0)
(1.21073e-05 1.04902e-05 0)
(1.25873e-05 1.1011e-05 0)
(1.3062e-05 1.15287e-05 0)
(1.35324e-05 1.20429e-05 0)
(1.39993e-05 1.25535e-05 0)
(1.44639e-05 1.30599e-05 0)
(1.49269e-05 1.35612e-05 0)
(1.53909e-05 1.4057e-05 0)
(5.50034e-06 3.81835e-06 0)
(6.03229e-06 4.34652e-06 0)
(6.56808e-06 4.87956e-06 0)
(7.09882e-06 5.41808e-06 0)
(7.62703e-06 5.95902e-06 0)
(8.14965e-06 6.50103e-06 0)
(8.66702e-06 7.04281e-06 0)
(9.17813e-06 7.58343e-06 0)
(9.68303e-06 8.12221e-06 0)
(1.01816e-05 8.65863e-06 0)
(1.06739e-05 9.19231e-06 0)
(1.11603e-05 9.72293e-06 0)
(1.16412e-05 1.02503e-05 0)
(1.21171e-05 1.0774e-05 0)
(1.25885e-05 1.12939e-05 0)
(1.30563e-05 1.18095e-05 0)
(1.3521e-05 1.23204e-05 0)
(1.39838e-05 1.28257e-05 0)
(1.44453e-05 1.33244e-05 0)
(1.49078e-05 1.38157e-05 0)
(5.20809e-06 3.58904e-06 0)
(5.7177e-06 4.10768e-06 0)
(6.23256e-06 4.6344e-06 0)
(6.74418e-06 5.16881e-06 0)
(7.25495e-06 5.70763e-06 0)
(7.76188e-06 6.24916e-06 0)
(8.26523e-06 6.79172e-06 0)
(8.76392e-06 7.33411e-06 0)
(9.25792e-06 7.87532e-06 0)
(9.74696e-06 8.41458e-06 0)
(1.02311e-05 8.95127e-06 0)
(1.07106e-05 9.48488e-06 0)
(1.11856e-05 1.00149e-05 0)
(1.16567e-05 1.0541e-05 0)
(1.21241e-05 1.10627e-05 0)
(1.25886e-05 1.15794e-05 0)
(1.30508e-05 1.20904e-05 0)
(1.35115e-05 1.25948e-05 0)
(1.39711e-05 1.30912e-05 0)
(1.44317e-05 1.35786e-05 0)
(4.93239e-06 3.37228e-06 0)
(5.41967e-06 3.88152e-06 0)
(5.91326e-06 4.40167e-06 0)
(6.40527e-06 4.93152e-06 0)
(6.89791e-06 5.46761e-06 0)
(7.38837e-06 6.00792e-06 0)
(7.87682e-06 6.55049e-06 0)
(8.3622e-06 7.09381e-06 0)
(8.84441e-06 7.63662e-06 0)
(9.32311e-06 8.17791e-06 0)
(9.79831e-06 8.71684e-06 0)
(1.02701e-05 9.2527e-06 0)
(1.07386e-05 9.78487e-06 0)
(1.12041e-05 1.03127e-05 0)
(1.16671e-05 1.08357e-05 0)
(1.2128e-05 1.13531e-05 0)
(1.25871e-05 1.18641e-05 0)
(1.30453e-05 1.23677e-05 0)
(1.35029e-05 1.28621e-05 0)
(1.39612e-05 1.33465e-05 0)
(4.6684e-06 3.16722e-06 0)
(5.13342e-06 3.66741e-06 0)
(5.6056e-06 4.18099e-06 0)
(6.07769e-06 4.70604e-06 0)
(6.55177e-06 5.23896e-06 0)
(7.02522e-06 5.77749e-06 0)
(7.49819e-06 6.31937e-06 0)
(7.96964e-06 6.86289e-06 0)
(8.43943e-06 7.40654e-06 0)
(8.90717e-06 7.94909e-06 0)
(9.37281e-06 8.48951e-06 0)
(9.83632e-06 9.02691e-06 0)
(1.02978e-05 9.56051e-06 0)
(1.07575e-05 1.00896e-05 0)
(1.12155e-05 1.06134e-05 0)
(1.16724e-05 1.11313e-05 0)
(1.21283e-05 1.16421e-05 0)
(1.25838e-05 1.2145e-05 0)
(1.3039e-05 1.26379e-05 0)
(1.34949e-05 1.312e-05 0)
(4.41155e-06 2.97315e-06 0)
(4.8544e-06 3.4648e-06 0)
(5.3051e-06 3.97196e-06 0)
(5.7571e-06 4.49211e-06 0)
(6.21235e-06 5.02157e-06 0)
(6.66847e-06 5.55785e-06 0)
(7.1256e-06 6.09848e-06 0)
(7.58275e-06 6.64154e-06 0)
(8.03973e-06 7.1853e-06 0)
(8.49614e-06 7.72839e-06 0)
(8.95185e-06 8.26957e-06 0)
(9.40677e-06 8.80782e-06 0)
(9.86091e-06 9.34222e-06 0)
(1.03144e-05 9.87195e-06 0)
(1.07673e-05 1.03962e-05 0)
(1.12199e-05 1.09141e-05 0)
(1.16724e-05 1.14247e-05 0)
(1.2125e-05 1.19269e-05 0)
(1.25778e-05 1.24189e-05 0)
(1.30311e-05 1.28997e-05 0)
(4.15746e-06 2.78937e-06 0)
(4.57813e-06 3.27311e-06 0)
(5.00729e-06 3.77411e-06 0)
(5.43912e-06 4.28939e-06 0)
(5.87542e-06 4.8152e-06 0)
(6.31408e-06 5.34886e-06 0)
(6.7552e-06 5.88774e-06 0)
(7.19789e-06 6.42974e-06 0)
(7.6419e-06 6.97298e-06 0)
(8.08682e-06 7.51591e-06 0)
(8.53247e-06 8.05717e-06 0)
(8.97867e-06 8.5956e-06 0)
(9.42535e-06 9.13018e-06 0)
(9.87252e-06 9.66e-06 0)
(1.03202e-05 1.01842e-05 0)
(1.07685e-05 1.07018e-05 0)
(1.12175e-05 1.1212e-05 0)
(1.16671e-05 1.17137e-05 0)
(1.21174e-05 1.22052e-05 0)
(1.25682e-05 1.26855e-05 0)
(3.90179e-06 2.61562e-06 0)
(4.30019e-06 3.09209e-06 0)
(4.70773e-06 3.58721e-06 0)
(5.11934e-06 4.09769e-06 0)
(5.53667e-06 4.61968e-06 0)
(5.95788e-06 5.15039e-06 0)
(6.38304e-06 5.68705e-06 0)
(6.81131e-06 6.22743e-06 0)
(7.24244e-06 6.76952e-06 0)
(7.67596e-06 7.31164e-06 0)
(8.11163e-06 7.85231e-06 0)
(8.5492e-06 8.39029e-06 0)
(8.98852e-06 8.92445e-06 0)
(9.42946e-06 9.45381e-06 0)
(9.87197e-06 9.97746e-06 0)
(1.0316e-05 1.04945e-05 0)
(1.07614e-05 1.10041e-05 0)
(1.12082e-05 1.15053e-05 0)
(1.1656e-05 1.19967e-05 0)
(1.21043e-05 1.24775e-05 0)
(3.64003e-06 2.4514e-06 0)
(4.01594e-06 2.92124e-06 0)
(4.40175e-06 3.41078e-06 0)
(4.79314e-06 3.91652e-06 0)
(5.1916e-06 4.43456e-06 0)
(5.59553e-06 4.96201e-06 0)
(6.00496e-06 5.49602e-06 0)
(6.4191e-06 6.03425e-06 0)
(6.83766e-06 6.5746e-06 0)
(7.26012e-06 7.1153e-06 0)
(7.68618e-06 7.65478e-06 0)
(8.11547e-06 8.1917e-06 0)
(8.54775e-06 8.72487e-06 0)
(8.98277e-06 9.25327e-06 0)
(9.42035e-06 9.77597e-06 0)
(9.86031e-06 1.02921e-05 0)
(1.03024e-05 1.08009e-05 0)
(1.07464e-05 1.13016e-05 0)
(1.11919e-05 1.17932e-05 0)
(1.1638e-05 1.2275e-05 0)
(3.36755e-06 2.29727e-06 0)
(3.72062e-06 2.76092e-06 0)
(4.08455e-06 3.24502e-06 0)
(4.4558e-06 3.74595e-06 0)
(4.8356e-06 4.25979e-06 0)
(5.22259e-06 4.78359e-06 0)
(5.61675e-06 5.31444e-06 0)
(6.0173e-06 5.84995e-06 0)
(6.42387e-06 6.38795e-06 0)
(6.8359e-06 6.92659e-06 0)
(7.25297e-06 7.46424e-06 0)
(7.67461e-06 7.99951e-06 0)
(8.10045e-06 8.53115e-06 0)
(8.53011e-06 9.05811e-06 0)
(8.96326e-06 9.57946e-06 0)
(9.39958e-06 1.00944e-05 0)
(9.83874e-06 1.06022e-05 0)
(1.02803e-05 1.11023e-05 0)
(1.07237e-05 1.15941e-05 0)
(1.11679e-05 1.20776e-05 0)
(3.07894e-06 2.15238e-06 0)
(3.40878e-06 2.61022e-06 0)
(3.75072e-06 3.08898e-06 0)
(4.10199e-06 3.585e-06 0)
(4.46353e-06 4.09438e-06 0)
(4.83418e-06 4.61415e-06 0)
(5.21379e-06 5.14137e-06 0)
(5.60158e-06 5.67362e-06 0)
(5.99708e-06 6.20869e-06 0)
(6.39963e-06 6.7447e-06 0)
(6.80869e-06 7.27997e-06 0)
(7.22366e-06 7.81306e-06 0)
(7.644e-06 8.34271e-06 0)
(8.06919e-06 8.86781e-06 0)
(8.49873e-06 9.38745e-06 0)
(8.93213e-06 9.90085e-06 0)
(9.3689e-06 1.04074e-05 0)
(9.80846e-06 1.09068e-05 0)
(1.02502e-05 1.13989e-05 0)
(1.06929e-05 1.18841e-05 0)
(2.76887e-06 2.01904e-06 0)
(3.07503e-06 2.47092e-06 0)
(3.39496e-06 2.94395e-06 0)
(3.72659e-06 3.43456e-06 0)
(4.07049e-06 3.93886e-06 0)
(4.42565e-06 4.4539e-06 0)
(4.79172e-06 4.97676e-06 0)
(5.1679e-06 5.505e-06 0)
(5.55357e-06 6.0364e-06 0)
(5.94794e-06 6.56907e-06 0)
(6.3503e-06 7.10129e-06 0)
(6.75992e-06 7.63162e-06 0)
(7.17607e-06 8.15876e-06 0)
(7.59803e-06 8.6816e-06 0)
(8.02512e-06 9.19921e-06 0)
(8.45665e-06 9.71085e-06 0)
(8.89193e-06 1.0216e-05 0)
(9.33024e-06 1.07146e-05 0)
(9.77084e-06 1.12067e-05 0)
(1.02125e-05 1.16934e-05 0)
(2.42951e-06 1.89401e-06 0)
(2.71171e-06 2.33985e-06 0)
(3.00986e-06 2.80687e-06 0)
(3.32252e-06 3.29168e-06 0)
(3.64981e-06 3.79045e-06 0)
(3.99075e-06 4.30027e-06 0)
(4.34478e-06 4.81823e-06 0)
(4.71098e-06 5.34192e-06 0)
(5.08853e-06 5.86913e-06 0)
(5.4765e-06 6.39794e-06 0)
(5.874e-06 6.92666e-06 0)
(6.2801e-06 7.45382e-06 0)
(6.69388e-06 7.9781e-06 0)
(7.11441e-06 8.4984e-06 0)
(7.54078e-06 9.01378e-06 0)
(7.97205e-06 9.52352e-06 0)
(8.40731e-06 1.00272e-05 0)
(8.84556e-06 1.05247e-05 0)
(9.28592e-06 1.10166e-05 0)
(9.7272e-06 1.15043e-05 0)
(2.05645e-06 1.78465e-06 0)
(2.31453e-06 2.223e-06 0)
(2.59145e-06 2.68254e-06 0)
(2.88606e-06 3.16009e-06 0)
(3.19805e-06 3.65192e-06 0)
(3.52634e-06 4.15516e-06 0)
(3.8701e-06 4.66695e-06 0)
(4.22822e-06 5.18491e-06 0)
(4.59966e-06 5.70683e-06 0)
(4.9833e-06 6.23082e-06 0)
(5.37802e-06 6.75517e-06 0)
(5.7827e-06 7.27841e-06 0)
(6.19622e-06 7.79925e-06 0)
(6.61742e-06 8.31657e-06 0)
(7.04516e-06 8.82945e-06 0)
(7.4782e-06 9.33718e-06 0)
(7.91535e-06 9.83933e-06 0)
(8.35523e-06 1.03359e-05 0)
(8.79669e-06 1.08274e-05 0)
(9.23827e-06 1.13154e-05 0)
(2.9705e-07 3.21971e-08 0)
(8.97032e-07 1.9812e-07 0)
(1.53463e-06 5.07329e-07 0)
(2.21816e-06 9.39094e-07 0)
(2.96085e-06 1.48171e-06 0)
(3.7669e-06 2.11582e-06 0)
(4.63951e-06 2.82078e-06 0)
(5.57718e-06 3.57498e-06 0)
(6.57708e-06 4.35664e-06 0)
(7.63395e-06 5.14785e-06 0)
(2.79795e-07 2.88608e-08 0)
(8.45569e-07 1.78101e-07 0)
(1.44528e-06 4.58912e-07 0)
(2.08535e-06 8.54528e-07 0)
(2.77785e-06 1.35615e-06 0)
(3.52665e-06 1.94752e-06 0)
(4.33508e-06 2.61075e-06 0)
(5.20176e-06 3.32678e-06 0)
(6.12349e-06 4.07468e-06 0)
(7.09478e-06 4.84027e-06 0)
(2.64281e-07 2.48852e-08 0)
(7.99381e-07 1.57788e-07 0)
(1.36555e-06 4.12064e-07 0)
(1.96709e-06 7.73966e-07 0)
(2.61475e-06 1.2369e-06 0)
(3.31182e-06 1.78712e-06 0)
(4.06187e-06 2.40904e-06 0)
(4.86437e-06 3.08628e-06 0)
(5.71812e-06 3.79982e-06 0)
(6.61723e-06 4.53959e-06 0)
(2.50087e-07 2.02614e-08 0)
(7.57306e-07 1.37382e-07 0)
(1.2938e-06 3.67713e-07 0)
(1.86191e-06 6.99661e-07 0)
(2.47126e-06 1.12825e-06 0)
(3.12426e-06 1.64164e-06 0)
(3.82424e-06 2.22594e-06 0)
(4.57029e-06 2.86651e-06 0)
(5.36256e-06 3.54534e-06 0)
(6.19391e-06 4.25371e-06 0)
(2.36816e-07 1.49372e-08 0)
(7.18023e-07 1.16157e-07 0)
(1.22726e-06 3.23791e-07 0)
(1.76511e-06 6.27846e-07 0)
(2.34015e-06 1.02454e-06 0)
(2.95401e-06 1.50356e-06 0)
(3.60999e-06 2.0525e-06 0)
(4.30678e-06 2.65837e-06 0)
(5.04594e-06 3.30471e-06 0)
(5.81803e-06 3.98267e-06 0)
(2.24361e-07 9.01082e-09 0)
(6.81209e-07 9.42709e-08 0)
(1.16536e-06 2.80546e-07 0)
(1.67576e-06 5.59015e-07 0)
(2.22016e-06 9.26746e-07 0)
(2.79927e-06 1.37454e-06 0)
(3.41628e-06 1.89105e-06 0)
(4.06925e-06 2.46437e-06 0)
(4.76106e-06 3.07949e-06 0)
(5.48071e-06 3.72698e-06 0)
(2.12468e-07 2.4525e-09 0)
(6.46081e-07 7.14024e-08 0)
(1.10658e-06 2.37054e-07 0)
(1.59149e-06 4.91454e-07 0)
(2.10783e-06 8.32297e-07 0)
(2.65556e-06 1.25124e-06 0)
(3.23776e-06 1.73789e-06 0)
(3.85191e-06 2.28113e-06 0)
(4.50179e-06 2.8674e-06 0)
(5.17529e-06 3.48623e-06 0)
(2.01044e-07 -4.64902e-09 0)
(6.12347e-07 4.76575e-08 0)
(1.05037e-06 1.9335e-07 0)
(1.51135e-06 4.25117e-07 0)
(2.00169e-06 7.41087e-07 0)
(2.52064e-06 1.1335e-06 0)
(3.07119e-06 1.59272e-06 0)
(3.65036e-06 2.10811e-06 0)
(4.2625e-06 2.66747e-06 0)
(4.89517e-06 3.25949e-06 0)
(1.89938e-07 -1.2293e-08 0)
(5.79564e-07 2.29085e-08 0)
(9.95906e-07 1.49024e-07 0)
(1.43405e-06 3.59221e-07 0)
(1.89988e-06 6.51926e-07 0)
(2.39204e-06 1.0198e-06 0)
(2.91342e-06 1.45381e-06 0)
(3.46076e-06 1.94366e-06 0)
(4.03864e-06 2.47828e-06 0)
(4.63479e-06 3.04568e-06 0)
(1.7907e-07 -2.04268e-08 0)
(5.47485e-07 -2.79189e-09 0)
(9.42726e-07 1.0404e-07 0)
(1.35881e-06 2.93608e-07 0)
(1.80116e-06 5.64504e-07 0)
(2.26793e-06 9.09649e-07 0)
(2.76193e-06 1.32045e-06 0)
(3.27976e-06 1.78686e-06 0)
(3.82603e-06 2.29873e-06 0)
(4.38907e-06 2.84369e-06 0)
(1.68356e-07 -2.90585e-08 0)
(5.15851e-07 -2.95057e-08 0)
(8.90348e-07 5.81971e-08 0)
(1.28483e-06 2.27905e-07 0)
(1.70433e-06 4.78254e-07 0)
(2.14664e-06 8.02297e-07 0)
(2.61444e-06 1.19176e-06 0)
(3.10443e-06 1.63673e-06 0)
(3.62106e-06 2.1278e-06 0)
(4.15352e-06 2.65245e-06 0)
(1.57736e-07 -3.8166e-08 0)
(4.84497e-07 -5.72308e-08 0)
(8.38444e-07 1.14442e-08 0)
(1.21154e-06 1.62005e-07 0)
(1.60845e-06 3.92983e-07 0)
(2.02671e-06 6.97442e-07 0)
(2.46895e-06 1.06727e-06 0)
(2.93209e-06 1.49268e-06 0)
(3.42036e-06 1.96478e-06 0)
(3.92399e-06 2.47113e-06 0)
(1.47173e-07 -4.77738e-08 0)
(4.53352e-07 -8.60563e-08 0)
(7.86798e-07 -3.63687e-08 0)
(1.13846e-06 9.57143e-08 0)
(1.51264e-06 3.08437e-07 0)
(1.90681e-06 5.94749e-07 0)
(2.32357e-06 9.46567e-07 0)
(2.76022e-06 1.35417e-06 0)
(3.22073e-06 1.80906e-06 0)
(3.69651e-06 2.29899e-06 0)
(1.36665e-07 -5.79586e-08 0)
(4.22462e-07 -1.16083e-07 0)
(7.35332e-07 -8.52835e-08 0)
(1.06524e-06 2.90962e-08 0)
(1.41616e-06 2.24747e-07 0)
(1.78568e-06 4.94355e-07 0)
(2.17647e-06 8.29729e-07 0)
(2.58635e-06 1.22119e-06 0)
(3.01906e-06 1.66052e-06 0)
(3.46723e-06 2.13578e-06 0)
(1.26303e-07 -6.88703e-08 0)
(3.92193e-07 -1.47572e-07 0)
(6.84303e-07 -1.35535e-07 0)
(9.91804e-07 -3.80005e-08 0)
(1.3184e-06 1.41827e-07 0)
(1.6621e-06 3.96182e-07 0)
(2.02577e-06 7.16643e-07 0)
(2.4079e-06 1.09353e-06 0)
(2.81205e-06 1.51886e-06 0)
(3.23213e-06 1.98105e-06 0)
(1.16281e-07 -8.10052e-08 0)
(3.63145e-07 -1.80883e-07 0)
(6.34144e-07 -1.87019e-07 0)
(9.18135e-07 -1.04968e-07 0)
(1.21874e-06 6.0618e-08 0)
(1.53478e-06 3.01328e-07 0)
(1.86949e-06 6.08418e-07 0)
(2.22219e-06 9.72242e-07 0)
(2.59631e-06 1.38499e-06 0)
(2.98707e-06 1.83553e-06 0)
(1.07333e-07 -9.4966e-08 0)
(3.37203e-07 -2.16767e-07 0)
(5.86412e-07 -2.40233e-07 0)
(8.44868e-07 -1.72135e-07 0)
(1.11677e-06 -1.90843e-08 0)
(1.40227e-06 2.09592e-07 0)
(1.70526e-06 5.04803e-07 0)
(2.02596e-06 8.56936e-07 0)
(2.36774e-06 1.25839e-06 0)
(2.72713e-06 1.69852e-06 0)
(1.01014e-07 -1.133e-07 0)
(3.16548e-07 -2.56344e-07 0)
(5.42606e-07 -2.94093e-07 0)
(7.72306e-07 -2.36818e-07 0)
(1.01172e-06 -9.38411e-08 0)
(1.26283e-06 1.24674e-07 0)
(1.53047e-06 4.09438e-07 0)
(1.8158e-06 7.51063e-07 0)
(2.12218e-06 1.1422e-06 0)
(2.44742e-06 1.57279e-06 0)
(1.049e-07 -1.37933e-07 0)
(3.09338e-07 -3.01047e-07 0)
(5.07909e-07 -3.49612e-07 0)
(7.0227e-07 -3.00561e-07 0)
(9.02787e-07 -1.65522e-07 0)
(1.11373e-06 4.43582e-08 0)
(1.34093e-06 3.19835e-07 0)
(1.58631e-06 6.51853e-07 0)
(1.85325e-06 1.03343e-06 0)
(2.14056e-06 1.45517e-06 0)
(1.35017e-07 -1.82359e-07 0)
(3.20676e-07 -3.51824e-07 0)
(4.84748e-07 -3.99697e-07 0)
(6.34491e-07 -3.52397e-07 0)
(7.88741e-07 -2.22493e-07 0)
(9.52921e-07 -1.98539e-08 0)
(1.13402e-06 2.46929e-07 0)
(1.33432e-06 5.69587e-07 0)
(1.55728e-06 9.41584e-07 0)
(1.80231e-06 1.35422e-06 0)
)
;

boundaryField
{
    left
    {
        type            fixedDisplacement;
        value           uniform (0 0 0);
    }
    right
    {
        type            solidTraction;
        tractionSeries  
{
        file            "$FOAM_CASE/constant/timeVsTraction";
        outOfBounds     clamp;
}
        pressure        uniform 0;
        secondOrder     false;
        setEffectiveTraction false;
        relaxationFactor 1;
        value           nonuniform List<vector> 
30
(
(2.4587e-05 1.80545e-05 -9.79013e-21)
(2.40133e-05 1.78481e-05 -9.8484e-21)
(2.34345e-05 1.76432e-05 -9.95522e-21)
(2.28491e-05 1.74359e-05 -1.01045e-20)
(2.22569e-05 1.7224e-05 -1.02965e-20)
(2.16596e-05 1.70051e-05 -1.05315e-20)
(2.10589e-05 1.67781e-05 -1.08107e-20)
(2.04576e-05 1.65422e-05 -1.11353e-20)
(1.98582e-05 1.62974e-05 -1.15063e-20)
(1.92633e-05 1.60444e-05 -1.1925e-20)
(1.87006e-05 1.57955e-05 -1.21448e-20)
(1.8167e-05 1.55507e-05 -1.21095e-20)
(1.7641e-05 1.53023e-05 -1.20864e-20)
(1.71235e-05 1.50515e-05 -1.20751e-20)
(1.66151e-05 1.47999e-05 -1.20775e-20)
(1.61147e-05 1.45493e-05 -1.20928e-20)
(1.56231e-05 1.43006e-05 -1.21188e-20)
(1.51393e-05 1.40555e-05 -1.21553e-20)
(1.46622e-05 1.38153e-05 -1.22005e-20)
(1.41905e-05 1.35807e-05 -1.22526e-20)
(1.3723e-05 1.33526e-05 -1.23092e-20)
(1.32579e-05 1.31314e-05 -1.2368e-20)
(1.27936e-05 1.29173e-05 -1.24262e-20)
(1.23285e-05 1.271e-05 -1.24813e-20)
(1.1861e-05 1.25092e-05 -1.25304e-20)
(1.13899e-05 1.23139e-05 -1.25716e-20)
(1.09142e-05 1.2123e-05 -1.2602e-20)