/*--------------------------------*- C++ -*----------------------------------*\
  =========                 |
  \\      /  F ield         | OpenFOAM: The Open Source CFD Toolbox
   \\    /   O peration     | Website:  https://openfoam.org
    \\  /    A nd           | Version:  9
     \\/     M anipulation  |
\*---------------------------------------------------------------------------*/
FoamFile
{
    format      ascii;
    class       volVectorField;
    location    "15";
    object      D_0;
}
// * * * * * * * * * * * * * * * * * * * * * * * * * * * * * * * * * * * * * //

dimensions      [0 1 0 0 0 0 0];

internalField   nonuniform List<vector> 
1000
(
(9.47419e-06 3.18367e-06 0)
(8.84029e-06 3.5167e-06 0)
(8.37887e-06 3.79702e-06 0)
(8.04507e-06 4.01604e-06 0)
(7.80674e-06 4.20501e-06 0)
(7.63844e-06 4.36758e-06 0)
(7.52438e-06 4.51402e-06 0)
(7.45184e-06 4.6474e-06 0)
(7.41081e-06 4.77183e-06 0)
(7.39616e-06 4.8898e-06 0)
(8.53923e-06 2.87101e-06 0)
(7.88043e-06 3.11259e-06 0)
(7.40428e-06 3.32487e-06 0)
(7.06116e-06 3.48864e-06 0)
(6.81664e-06 3.63237e-06 0)
(6.64334e-06 3.75599e-06 0)
(6.52454e-06 3.86806e-06 0)
(6.4467e-06 3.97057e-06 0)
(6.39952e-06 4.06568e-06 0)
(6.37607e-06 4.15848e-06 0)
(7.58392e-06 2.55655e-06 0)
(6.91866e-06 2.70145e-06 0)
(6.44075e-06 2.84291e-06 0)
(6.09807e-06 2.951e-06 0)
(5.85484e-06 3.05024e-06 0)
(5.68243e-06 3.13659e-06 0)
(5.56351e-06 3.21652e-06 0)
(5.48418e-06 3.29062e-06 0)
(5.4341e-06 3.35922e-06 0)
(5.40594e-06 3.428e-06 0)
(6.6139e-06 2.24487e-06 0)
(5.96084e-06 2.29243e-06 0)
(5.49502e-06 2.3624e-06 0)
(5.16329e-06 2.41627e-06 0)
(4.92938e-06 2.47318e-06 0)
(4.76417e-06 2.52503e-06 0)
(4.65022e-06 2.57587e-06 0)
(4.57349e-06 2.6246e-06 0)
(4.52421e-06 2.67004e-06 0)
(4.4944e-06 2.71738e-06 0)
(5.63266e-06 1.94337e-06 0)
(5.01008e-06 1.89474e-06 0)
(4.57092e-06 1.89574e-06 0)
(4.26129e-06 1.89874e-06 0)
(4.04531e-06 1.91736e-06 0)
(3.89395e-06 1.93898e-06 0)
(3.79006e-06 1.96507e-06 0)
(3.7199e-06 1.99253e-06 0)
(3.67453e-06 2.01892e-06 0)
(3.64573e-06 2.04821e-06 0)
(4.6444e-06 1.65289e-06 0)
(4.06853e-06 1.5137e-06 0)
(3.6712e-06 1.45221e-06 0)
(3.39541e-06 1.41099e-06 0)
(3.20643e-06 1.39781e-06 0)
(3.07556e-06 1.39538e-06 0)
(2.98663e-06 1.40243e-06 0)
(2.92665e-06 1.41381e-06 0)
(2.88787e-06 1.42608e-06 0)
(2.86224e-06 1.44165e-06 0)
(3.64383e-06 1.37076e-06 0)
(3.1329e-06 1.15287e-06 0)
(2.79468e-06 1.04019e-06 0)
(2.56562e-06 9.65905e-07 0)
(2.41296e-06 9.30453e-07 0)
(2.30897e-06 9.12193e-07 0)
(2.23934e-06 9.07106e-07 0)
(2.19252e-06 9.08356e-07 0)
(2.16228e-06 9.11823e-07 0)
(2.14145e-06 9.18383e-07 0)
(2.63552e-06 1.08523e-06 0)
(2.20812e-06 8.09697e-07 0)
(1.94711e-06 6.6598e-07 0)
(1.77703e-06 5.76186e-07 0)
(1.66822e-06 5.31695e-07 0)
(1.59551e-06 5.07931e-07 0)
(1.54767e-06 4.98559e-07 0)
(1.51554e-06 4.95973e-07 0)
(1.49474e-06 4.95962e-07 0)
(1.47969e-06 4.98277e-07 0)
(1.59523e-06 7.78503e-07 0)
(1.28975e-06 4.83203e-07 0)
(1.127e-06 3.37706e-07 0)
(1.02651e-06 2.57622e-07 0)
(9.66678e-07 2.20152e-07 0)
(9.27346e-07 2.01619e-07 0)
(9.02004e-07 1.94854e-07 0)
(8.847e-07 1.93245e-07 0)
(8.73294e-07 1.93434e-07 0)
(8.64325e-07 1.94827e-07 0)
(5.52786e-07 4.05028e-07 0)
(4.10095e-07 1.8477e-07 0)
(3.59994e-07 8.96804e-08 0)
(3.32797e-07 5.03827e-08 0)
(3.16835e-07 3.44385e-08 0)
(3.05882e-07 2.8667e-08 0)
(2.98616e-07 2.76973e-08 0)
(2.93359e-07 2.85811e-08 0)
(2.89728e-07 2.97708e-08 0)
(2.86546e-07 3.1136e-08 0)
(1.67099e-05 5.1607e-06 0)
(1.66822e-05 5.80317e-06 0)
(1.66631e-05 6.40179e-06 0)
(1.66637e-05 6.9498e-06 0)
(1.66888e-05 7.45282e-06 0)
(1.67401e-05 7.9171e-06 0)
(1.6818e-05 8.3499e-06 0)
(1.69209e-05 8.75751e-06 0)
(1.70478e-05 9.14488e-06 0)
(1.71955e-05 9.51754e-06 0)
(1.61852e-05 5.1182e-06 0)
(1.61109e-05 5.7588e-06 0)
(1.60602e-05 6.35011e-06 0)
(1.60377e-05 6.88708e-06 0)
(1.60459e-05 7.37663e-06 0)
(1.60832e-05 7.82541e-06 0)
(1.61484e-05 8.24137e-06 0)
(1.62384e-05 8.63114e-06 0)
(1.6352e-05 8.99989e-06 0)
(1.64849e-05 9.3539e-06 0)
(1.56288e-05 5.03205e-06 0)
(1.54991e-05 5.67101e-06 0)
(1.54055e-05 6.25026e-06 0)
(1.53491e-05 6.76991e-06 0)
(1.53304e-05 7.24044e-06 0)
(1.53452e-05 7.66945e-06 0)
(1.53906e-05 8.06541e-06 0)
(1.5462e-05 8.43508e-06 0)
(1.55579e-05 8.7838e-06 0)
(1.56721e-05 9.11803e-06 0)
(1.50276e-05 4.90683e-06 0)
(1.48358e-05 5.5427e-06 0)
(1.46922e-05 6.10718e-06 0)
(1.45956e-05 6.60564e-06 0)
(1.45441e-05 7.0533e-06 0)
(1.45309e-05 7.45886e-06 0)
(1.45519e-05 7.83157e-06 0)
(1.46009e-05 8.17825e-06 0)
(1.4676e-05 8.50448e-06 0)
(1.47692e-05 8.81664e-06 0)
(1.43747e-05 4.74372e-06 0)
(1.41149e-05 5.37142e-06 0)
(1.39179e-05 5.91648e-06 0)
(1.37789e-05 6.3889e-06 0)
(1.36926e-05 6.80918e-06 0)
(1.36498e-05 7.18721e-06 0)
(1.3645e-05 7.5332e-06 0)
(1.36706e-05 7.85391e-06 0)
(1.37239e-05 8.15521e-06 0)
(1.37957e-05 8.44305e-06 0)
(1.36692e-05 4.5465e-06 0)
(1.33375e-05 5.1574e-06 0)
(1.3086e-05 5.6774e-06 0)
(1.29047e-05 6.11929e-06 0)
(1.2784e-05 6.50847e-06 0)
(1.27121e-05 6.8557e-06 0)
(1.26819e-05 7.1721e-06 0)
(1.26844e-05 7.46424e-06 0)
(1.27165e-05 7.73839e-06 0)
(1.27674e-05 7.99973e-06 0)
(1.2913e-05 4.31817e-06 0)
(1.25084e-05 4.90062e-06 0)
(1.22035e-05 5.38844e-06 0)
(1.19819e-05 5.79487e-06 0)
(1.18289e-05 6.14937e-06 0)
(1.173e-05 6.46293e-06 0)
(1.16762e-05 6.74736e-06 0)
(1.16575e-05 7.0089e-06 0)
(1.16698e-05 7.25411e-06 0)
(1.17017e-05 7.48729e-06 0)
(1.21101e-05 4.06298e-06 0)
(1.1635e-05 4.60355e-06 0)
(1.12802e-05 5.05121e-06 0)
(1.10217e-05 5.41735e-06 0)
(1.08399e-05 5.73404e-06 0)
(1.0717e-05 6.01166e-06 0)
(1.06425e-05 6.26244e-06 0)
(1.06051e-05 6.49192e-06 0)
(1.06e-05 6.70697e-06 0)
(1.06153e-05 6.91054e-06 0)
(1.12655e-05 3.78534e-06 0)
(1.07263e-05 4.26989e-06 0)
(1.03274e-05 4.66916e-06 0)
(1.0037e-05 4.99025e-06 0)
(9.83068e-06 5.26634e-06 0)
(9.68787e-06 5.50636e-06 0)
(9.59604e-06 5.72236e-06 0)
(9.54314e-06 5.91919e-06 0)
(9.52312e-06 6.10324e-06 0)
(9.52494e-06 6.2768e-06 0)
(1.03849e-05 3.49035e-06 0)
(9.79162e-06 3.90523e-06 0)
(9.35651e-06 4.24839e-06 0)
(9.04057e-06 4.52018e-06 0)
(8.81509e-06 4.75346e-06 0)
(8.65683e-06 4.95486e-06 0)
(8.55161e-06 5.13588e-06 0)
(8.48675e-06 5.30002e-06 0)
(8.4548e-06 5.45357e-06 0)
(8.44705e-06 5.59523e-06 0)
(1.73721e-05 9.87602e-06 0)
(1.75749e-05 1.02318e-05 0)
(1.77932e-05 1.05818e-05 0)
(1.80253e-05 1.09278e-05 0)
(1.82701e-05 1.12715e-05 0)
(1.8526e-05 1.16139e-05 0)
(1.87921e-05 1.19563e-05 0)
(1.90672e-05 1.22992e-05 0)
(1.93504e-05 1.26436e-05 0)
(1.96406e-05 1.29901e-05 0)
(1.99372e-05 1.3339e-05 0)
(2.02393e-05 1.3691e-05 0)
(2.05462e-05 1.40464e-05 0)
(2.0857e-05 1.44053e-05 0)
(2.11712e-05 1.47682e-05 0)
(2.14881e-05 1.5135e-05 0)
(2.18068e-05 1.55056e-05 0)
(2.21268e-05 1.58799e-05 0)
(2.24475e-05 1.62571e-05 0)
(2.27681e-05 1.66361e-05 0)
(1.6669e-05 9.69884e-06 0)
(1.68968e-05 1.00487e-05 0)
(1.71368e-05 1.03932e-05 0)
(1.73871e-05 1.07342e-05 0)
(1.76473e-05 1.10738e-05 0)
(1.79162e-05 1.14126e-05 0)
(1.81932e-05 1.1752e-05 0)
(1.84774e-05 1.20927e-05 0)
(1.87683e-05 1.24353e-05 0)
(1.9065e-05 1.27806e-05 0)
(1.93669e-05 1.31289e-05 0)
(1.96736e-05 1.34807e-05 0)
(1.99844e-05 1.38364e-05 0)
(2.02989e-05 1.41962e-05 0)
(2.06164e-05 1.45603e-05 0)
(2.09365e-05 1.49288e-05 0)
(2.12587e-05 1.53016e-05 0)
(2.15824e-05 1.56785e-05 0)
(2.19073e-05 1.60589e-05 0)
(2.22325e-05 1.64417e-05 0)
(1.58664e-05 9.45276e-06 0)
(1.61266e-05 9.80323e-06 0)
(1.63955e-05 1.01485e-05 0)
(1.66707e-05 1.04903e-05 0)
(1.69529e-05 1.08307e-05 0)
(1.72409e-05 1.11706e-05 0)
(1.75347e-05 1.15112e-05 0)
(1.78336e-05 1.18534e-05 0)
(1.81373e-05 1.21977e-05 0)
(1.84454e-05 1.2545e-05 0)
(1.87576e-05 1.28955e-05 0)
(1.90734e-05 1.32498e-05 0)
(1.93926e-05 1.36083e-05 0)
(1.97147e-05 1.39711e-05 0)
(2.00396e-05 1.43386e-05 0)
(2.03668e-05 1.47109e-05 0)
(2.06959e-05 1.50881e-05 0)
(2.10267e-05 1.54699e-05 0)
(2.13587e-05 1.58561e-05 0)
(2.1691e-05 1.62461e-05 0)
(1.49763e-05 9.14316e-06 0)
(1.52748e-05 9.49933e-06 0)
(1.55787e-05 9.85052e-06 0)
(1.58847e-05 1.01975e-05 0)
(1.61946e-05 1.05432e-05 0)
(1.65071e-05 1.0888e-05 0)
(1.68228e-05 1.12335e-05 0)
(1.71412e-05 1.15804e-05 0)
(1.74626e-05 1.19296e-05 0)
(1.77865e-05 1.22817e-05 0)
(1.81131e-05 1.26371e-05 0)
(1.84421e-05 1.29965e-05 0)
(1.87733e-05 1.33601e-05 0)
(1.91068e-05 1.37284e-05 0)
(1.94423e-05 1.41015e-05 0)
(1.97796e-05 1.44798e-05 0)
(2.01186e-05 1.48635e-05 0)
(2.0459e-05 1.52525e-05 0)
(2.08004e-05 1.5647e-05 0)
(2.11419e-05 1.60467e-05 0)
(1.40179e-05 8.76416e-06 0)
(1.43593e-05 9.13177e-06 0)
(1.47029e-05 9.49471e-06 0)
(1.5044e-05 9.8521e-06 0)
(1.53858e-05 1.02078e-05 0)
(1.57269e-05 1.0562e-05 0)
(1.60685e-05 1.09165e-05 0)
(1.64103e-05 1.12719e-05 0)
(1.67528e-05 1.16293e-05 0)
(1.7096e-05 1.19894e-05 0)
(1.74401e-05 1.23527e-05 0)
(1.77852e-05 1.27198e-05 0)
(1.81315e-05 1.30912e-05 0)
(1.84789e-05 1.34673e-05 0)
(1.88275e-05 1.38484e-05 0)
(1.91773e-05 1.42349e-05 0)
(1.95282e-05 1.46271e-05 0)
(1.98801e-05 1.50254e-05 0)
(2.02327e-05 1.54303e-05 0)
(2.05854e-05 1.58419e-05 0)
(1.3007e-05 8.31798e-06 0)
(1.33944e-05 8.70239e-06 0)
(1.37812e-05 9.0825e-06 0)
(1.41606e-05 9.45517e-06 0)
(1.45376e-05 9.82552e-06 0)
(1.49104e-05 1.01932e-05 0)
(1.52809e-05 1.05606e-05 0)
(1.56489e-05 1.09281e-05 0)
(1.60154e-05 1.12972e-05 0)
(1.63805e-05 1.16684e-05 0)
(1.67448e-05 1.20424e-05 0)
(1.71084e-05 1.242e-05 0)
(1.74718e-05 1.28017e-05 0)
(1.78352e-05 1.31879e-05 0)
(1.81988e-05 1.35791e-05 0)
(1.85627e-05 1.39759e-05 0)
(1.89272e-05 1.43787e-05 0)
(1.92921e-05 1.47881e-05 0)
(1.96575e-05 1.52051e-05 0)
(2.00227e-05 1.56301e-05 0)
(1.19602e-05 7.80547e-06 0)
(1.23953e-05 8.21206e-06 0)
(1.28274e-05 8.61462e-06 0)
(1.32471e-05 9.00755e-06 0)
(1.36615e-05 9.39694e-06 0)
(1.40681e-05 9.78242e-06 0)
(1.44697e-05 1.01664e-05 0)
(1.48661e-05 1.05497e-05 0)
(1.52585e-05 1.09336e-05 0)
(1.56475e-05 1.1319e-05 0)
(1.60336e-05 1.17067e-05 0)
(1.64175e-05 1.20974e-05 0)
(1.67996e-05 1.24919e-05 0)
(1.71804e-05 1.28906e-05 0)
(1.75604e-05 1.32941e-05 0)
(1.79398e-05 1.37032e-05 0)
(1.83189e-05 1.41184e-05 0)
(1.86979e-05 1.45406e-05 0)
(1.9077e-05 1.49709e-05 0)
(1.9456e-05 1.54102e-05 0)
(1.08932e-05 7.23127e-06 0)
(1.13762e-05 7.6651e-06 0)
(1.18541e-05 8.09434e-06 0)
(1.23152e-05 8.5121e-06 0)
(1.27678e-05 8.92452e-06 0)
(1.32096e-05 9.33176e-06 0)
(1.36435e-05 9.73603e-06 0)
(1.40697e-05 1.01385e-05 0)
(1.44895e-05 1.05405e-05 0)
(1.49036e-05 1.09431e-05 0)
(1.5313e-05 1.13473e-05 0)
(1.57183e-05 1.17537e-05 0)
(1.61203e-05 1.21633e-05 0)
(1.65196e-05 1.25767e-05 0)
(1.69168e-05 1.29946e-05 0)
(1.73124e-05 1.34177e-05 0)
(1.77069e-05 1.38469e-05 0)
(1.81007e-05 1.42831e-05 0)
(1.84942e-05 1.47278e-05 0)
(1.88876e-05 1.51819e-05 0)
(9.82218e-06 6.60079e-06 0)
(1.03517e-05 7.06717e-06 0)
(1.08742e-05 7.52637e-06 0)
(1.13768e-05 7.97318e-06 0)
(1.18676e-05 8.41193e-06 0)
(1.2345e-05 8.84412e-06 0)
(1.28116e-05 9.27171e-06 0)
(1.32681e-05 9.6963e-06 0)
(1.37158e-05 1.01193e-05 0)
(1.41557e-05 1.05418e-05 0)
(1.4589e-05 1.0965e-05 0)
(1.50164e-05 1.13897e-05 0)
(1.54388e-05 1.18169e-05 0)
(1.58572e-05 1.22472e-05 0)
(1.62721e-05 1.26814e-05 0)
(1.66844e-05 1.31204e-05 0)
(1.70947e-05 1.35651e-05 0)
(1.75037e-05 1.40165e-05 0)
(1.79118e-05 1.44763e-05 0)
(1.83202e-05 1.49454e-05 0)
(8.7596e-06 5.92375e-06 0)
(9.33328e-06 6.42597e-06 0)
(9.89562e-06 6.91608e-06 0)
(1.04388e-05 7.39501e-06 0)
(1.0967e-05 7.86362e-06 0)
(1.14801e-05 8.32416e-06 0)
(1.19799e-05 8.77833e-06 0)
(1.24673e-05 9.2279e-06 0)
(1.29435e-05 9.67444e-06 0)
(1.34099e-05 1.01193e-05 0)
(1.38674e-05 1.05638e-05 0)
(1.43173e-05 1.10089e-05 0)
(1.47605e-05 1.14555e-05 0)
(1.51981e-05 1.19045e-05 0)
(1.5631e-05 1.23567e-05 0)
(1.606e-05 1.2813e-05 0)
(1.64861e-05 1.32744e-05 0)
(1.69102e-05 1.37419e-05 0)
(1.7333e-05 1.42172e-05 0)
(1.77562e-05 1.47013e-05 0)
(7.93994e-06 5.41614e-06 0)
(8.53811e-06 5.94441e-06 0)
(9.12137e-06 6.45198e-06 0)
(9.68653e-06 6.94922e-06 0)
(1.02359e-05 7.43608e-06 0)
(1.07696e-05 7.91469e-06 0)
(1.12891e-05 8.38661e-06 0)
(1.1795e-05 8.8534e-06 0)
(1.22888e-05 9.31652e-06 0)
(1.27714e-05 9.77724e-06 0)
(1.32441e-05 1.02367e-05 0)
(1.37079e-05 1.0696e-05 0)
(1.41639e-05 1.11559e-05 0)
(1.46132e-05 1.16174e-05 0)
(1.50568e-05 1.20811e-05 0)
(1.54957e-05 1.25479e-05 0)
(1.59309e-05 1.30188e-05 0)
(1.63636e-05 1.34945e-05 0)
(1.67946e-05 1.39767e-05 0)
(1.7226e-05 1.44663e-05 0)
(7.39298e-06 5.11252e-06 0)
(7.99119e-06 5.6407e-06 0)
(8.57459e-06 6.1524e-06 0)
(9.14158e-06 6.65522e-06 0)
(9.69374e-06 7.14899e-06 0)
(1.02309e-05 7.63518e-06 0)
(1.07543e-05 8.11504e-06 0)
(1.12645e-05 8.58981e-06 0)
(1.17625e-05 9.06069e-06 0)
(1.22493e-05 9.52876e-06 0)
(1.27259e-05 9.99504e-06 0)
(1.31933e-05 1.04604e-05 0)
(1.36525e-05 1.09257e-05 0)
(1.41046e-05 1.13915e-05 0)
(1.45506e-05 1.18587e-05 0)
(1.49916e-05 1.23279e-05 0)
(1.54285e-05 1.27999e-05 0)
(1.58627e-05 1.32755e-05 0)
(1.62951e-05 1.37558e-05 0)
(1.6728e-05 1.42414e-05 0)
(6.91026e-06 4.82107e-06 0)
(7.49765e-06 5.34765e-06 0)
(8.07503e-06 5.86078e-06 0)
(8.63762e-06 6.36698e-06 0)
(9.1875e-06 6.86572e-06 0)
(9.72363e-06 7.3579e-06 0)
(1.0247e-05 7.84445e-06 0)
(1.07579e-05 8.32623e-06 0)
(1.12572e-05 8.80418e-06 0)
(1.17454e-05 9.27914e-06 0)
(1.22237e-05 9.7519e-06 0)
(1.26928e-05 1.02232e-05 0)
(1.31537e-05 1.06937e-05 0)
(1.36074e-05 1.1164e-05 0)
(1.40548e-05 1.16346e-05 0)
(1.4497e-05 1.21062e-05 0)
(1.49349e-05 1.25792e-05 0)
(1.53701e-05 1.30544e-05 0)
(1.58033e-05 1.35323e-05 0)
(1.62373e-05 1.40135e-05 0)
(6.47769e-06 4.54045e-06 0)
(7.05095e-06 5.06273e-06 0)
(7.61792e-06 5.57534e-06 0)
(8.17206e-06 6.08351e-06 0)
(8.71569e-06 6.58601e-06 0)
(9.2471e-06 7.08324e-06 0)
(9.76713e-06 7.57567e-06 0)
(1.02757e-05 8.06381e-06 0)
(1.07734e-05 8.54829e-06 0)
(1.12608e-05 9.02969e-06 0)
(1.17386e-05 9.50861e-06 0)
(1.22076e-05 9.98559e-06 0)
(1.26686e-05 1.04611e-05 0)
(1.31225e-05 1.09357e-05 0)
(1.35702e-05 1.14096e-05 0)
(1.40128e-05 1.18834e-05 0)
(1.44511e-05 1.23573e-05 0)
(1.48867e-05 1.28319e-05 0)
(1.53204e-05 1.33073e-05 0)
(1.57549e-05 1.37836e-05 0)
(6.09029e-06 4.27361e-06 0)
(6.64625e-06 4.79e-06 0)
(7.19925e-06 5.30043e-06 0)
(7.74155e-06 5.80885e-06 0)
(8.27563e-06 6.31353e-06 0)
(8.79923e-06 6.81441e-06 0)
(9.31302e-06 7.31152e-06 0)
(9.81659e-06 7.805e-06 0)
(1.03104e-05 8.29515e-06 0)
(1.07948e-05 8.78231e-06 0)
(1.12703e-05 9.26681e-06 0)
(1.17375e-05 9.74902e-06 0)
(1.21972e-05 1.02292e-05 0)
(1.26502e-05 1.07078e-05 0)
(1.30972e-05 1.11848e-05 0)
(1.35392e-05 1.16607e-05 0)
(1.39773e-05 1.21354e-05 0)
(1.44124e-05 1.26091e-05 0)
(1.48465e-05 1.30816e-05 0)
(1.52813e-05 1.35529e-05 0)
(5.74059e-06 4.02038e-06 0)
(6.27753e-06 4.52942e-06 0)
(6.81422e-06 5.03623e-06 0)
(7.34234e-06 5.54351e-06 0)
(7.86438e-06 6.04909e-06 0)
(8.37772e-06 6.55245e-06 0)
(8.88291e-06 7.05317e-06 0)
(9.37928e-06 7.55104e-06 0)
(9.86714e-06 8.04605e-06 0)
(1.03466e-05 8.53823e-06 0)
(1.08181e-05 9.02771e-06 0)
(1.12821e-05 9.51461e-06 0)
(1.17392e-05 9.99908e-06 0)
(1.21901e-05 1.04812e-05 0)
(1.26356e-05 1.09611e-05 0)
(1.30764e-05 1.14387e-05 0)
(1.35136e-05 1.1914e-05 0)
(1.39483e-05 1.23867e-05 0)
(1.43814e-05 1.28564e-05 0)
(1.48154e-05 1.33231e-05 0)
(5.42251e-06 3.78095e-06 0)
(5.93935e-06 4.28178e-06 0)
(6.45811e-06 4.7839e-06 0)
(6.97031e-06 5.28888e-06 0)
(7.47841e-06 5.79416e-06 0)
(7.9796e-06 6.29886e-06 0)
(8.47429e-06 6.80211e-06 0)
(8.96164e-06 7.30338e-06 0)
(9.44183e-06 7.80233e-06 0)
(9.9148e-06 8.29874e-06 0)
(1.03809e-05 8.79248e-06 0)
(1.08404e-05 9.28348e-06 0)
(1.12938e-05 9.77167e-06 0)
(1.17417e-05 1.0257e-05 0)
(1.21847e-05 1.07393e-05 0)
(1.26237e-05 1.12185e-05 0)
(1.30594e-05 1.16942e-05 0)
(1.34929e-05 1.2166e-05 0)
(1.3925e-05 1.2633e-05 0)
(1.4358e-05 1.3095e-05 0)
(5.13008e-06 3.5547e-06 0)
(5.6263e-06 4.04679e-06 0)
(6.12614e-06 4.54344e-06 0)
(6.62128e-06 5.04521e-06 0)
(7.11408e-06 5.54925e-06 0)
(7.60169e-06 6.0543e-06 0)
(8.08442e-06 6.55913e-06 0)
(8.56131e-06 7.06289e-06 0)
(9.03243e-06 7.56493e-06 0)
(9.4976e-06 8.06477e-06 0)
(9.95703e-06 8.56205e-06 0)
(1.04109e-05 9.05648e-06 0)
(1.08597e-05 9.54783e-06 0)
(1.13037e-05 1.00358e-05 0)
(1.17437e-05 1.05202e-05 0)
(1.21802e-05 1.10007e-05 0)
(1.26138e-05 1.14766e-05 0)
(1.30457e-05 1.19475e-05 0)
(1.34764e-05 1.24121e-05 0)
(1.3908e-05 1.28698e-05 0)
(4.858e-06 3.34097e-06 0)
(5.33341e-06 3.82415e-06 0)
(5.81374e-06 4.31488e-06 0)
(6.29107e-06 4.81279e-06 0)
(6.76761e-06 5.31483e-06 0)
(7.2406e-06 5.8194e-06 0)
(7.71025e-06 6.32495e-06 0)
(8.17557e-06 6.83033e-06 0)
(8.63652e-06 7.33463e-06 0)
(9.09285e-06 7.83711e-06 0)
(9.54466e-06 8.33719e-06 0)
(9.99207e-06 8.83439e-06 0)
(1.04354e-05 9.32829e-06 0)
(1.08749e-05 9.81848e-06 0)
(1.13111e-05 1.03045e-05 0)
(1.17446e-05 1.07859e-05 0)
(1.21759e-05 1.1262e-05 0)
(1.26058e-05 1.1732e-05 0)
(1.30347e-05 1.21944e-05 0)
(1.34645e-05 1.26485e-05 0)
(4.60134e-06 3.13892e-06 0)
(5.05595e-06 3.6133e-06 0)
(5.51646e-06 4.09789e-06 0)
(5.97551e-06 4.59153e-06 0)
(6.43517e-06 5.091e-06 0)
(6.89279e-06 5.59443e-06 0)
(7.34856e-06 6.09995e-06 0)
(7.80148e-06 6.6062e-06 0)
(8.25144e-06 7.11197e-06 0)
(8.69813e-06 7.61633e-06 0)
(9.14156e-06 8.11849e-06 0)
(9.58179e-06 8.61778e-06 0)
(1.0019e-05 9.11363e-06 0)
(1.04534e-05 9.60548e-06 0)
(1.08855e-05 1.00928e-05 0)
(1.13155e-05 1.05748e-05 0)
(1.1744e-05 1.10509e-05 0)
(1.21716e-05 1.15201e-05 0)
(1.25986e-05 1.19807e-05 0)
(1.30263e-05 1.24319e-05 0)
(4.35558e-06 2.94776e-06 0)
(4.78946e-06 3.41368e-06 0)
(5.23003e-06 3.89212e-06 0)
(5.67052e-06 4.38127e-06 0)
(6.11288e-06 4.87777e-06 0)
(6.55466e-06 5.37951e-06 0)
(6.99599e-06 5.88439e-06 0)
(7.43593e-06 6.3908e-06 0)
(7.87431e-06 6.89734e-06 0)
(8.31079e-06 7.40287e-06 0)
(8.74531e-06 7.9064e-06 0)
(9.17784e-06 8.40713e-06 0)
(9.60849e-06 8.90431e-06 0)
(1.00374e-05 9.39728e-06 0)
(1.04649e-05 9.88535e-06 0)
(1.08912e-05 1.03678e-05 0)
(1.13167e-05 1.08438e-05 0)
(1.17418e-05 1.13122e-05 0)
(1.21666e-05 1.17715e-05 0)
(1.2592e-05 1.22206e-05 0)
(4.11648e-06 2.7668e-06 0)
(4.52971e-06 3.22475e-06 0)
(4.95027e-06 3.69719e-06 0)
(5.37205e-06 4.18175e-06 0)
(5.79686e-06 4.67502e-06 0)
(6.2225e-06 5.17465e-06 0)
(6.64907e-06 5.67835e-06 0)
(7.07567e-06 6.18432e-06 0)
(7.50211e-06 6.69096e-06 0)
(7.92802e-06 7.19697e-06 0)
(8.35328e-06 7.70121e-06 0)
(8.77781e-06 8.20272e-06 0)
(9.20161e-06 8.70064e-06 0)
(9.62479e-06 9.19421e-06 0)
(1.00475e-05 9.68264e-06 0)
(1.04698e-05 1.01652e-05 0)
(1.08921e-05 1.06409e-05 0)
(1.13145e-05 1.11087e-05 0)
(1.1737e-05 1.15671e-05 0)
(1.216e-05 1.2015e-05 0)
(3.87995e-06 2.59541e-06 0)
(4.27253e-06 3.04598e-06 0)
(4.67303e-06 3.51266e-06 0)
(5.07601e-06 3.99268e-06 0)
(5.48316e-06 4.48253e-06 0)
(5.89252e-06 4.97971e-06 0)
(6.30418e-06 5.48176e-06 0)
(6.7173e-06 5.98674e-06 0)
(7.13165e-06 6.49288e-06 0)
(7.54686e-06 6.99874e-06 0)
(7.96274e-06 7.50305e-06 0)
(8.37913e-06 8.00473e-06 0)
(8.79598e-06 8.50281e-06 0)
(9.21328e-06 8.99645e-06 0)
(9.63106e-06 9.48482e-06 0)
(1.00494e-05 9.96712e-06 0)
(1.04684e-05 1.04424e-05 0)
(1.0888e-05 1.09098e-05 0)
(1.13082e-05 1.13677e-05 0)
(1.17288e-05 1.18152e-05 0)
(3.64196e-06 2.43335e-06 0)
(4.01379e-06 2.87714e-06 0)
(4.39415e-06 3.33833e-06 0)
(4.77829e-06 3.81385e-06 0)
(5.16778e-06 4.30014e-06 0)
(5.56087e-06 4.79456e-06 0)
(5.95765e-06 5.29454e-06 0)
(6.35733e-06 5.798e-06 0)
(6.75967e-06 6.30306e-06 0)
(7.16425e-06 6.80816e-06 0)
(7.57083e-06 7.31193e-06 0)
(7.97918e-06 7.81317e-06 0)
(8.38915e-06 8.31086e-06 0)
(8.80065e-06 8.80407e-06 0)
(9.2136e-06 9.29195e-06 0)
(9.62795e-06 9.7737e-06 0)
(1.00436e-05 1.02485e-05 0)
(1.04606e-05 1.07154e-05 0)
(1.08785e-05 1.11731e-05 0)
(1.12968e-05 1.1621e-05 0)
(3.3983e-06 2.28015e-06 0)
(3.74918e-06 2.71774e-06 0)
(4.10929e-06 3.17373e-06 0)
(4.4746e-06 3.64483e-06 0)
(4.84649e-06 4.12742e-06 0)
(5.22348e-06 4.61881e-06 0)
(5.6056e-06 5.11631e-06 0)
(5.99211e-06 5.61777e-06 0)
(6.38274e-06 6.12121e-06 0)
(6.777e-06 6.62498e-06 0)
(7.17461e-06 7.12762e-06 0)
(7.57524e-06 7.62788e-06 0)
(7.97865e-06 8.12464e-06 0)
(8.38463e-06 8.61696e-06 0)
(8.79298e-06 9.10395e-06 0)
(9.20355e-06 9.58485e-06 0)
(9.61614e-06 1.00589e-05 0)
(1.00305e-05 1.05253e-05 0)
(1.04462e-05 1.09832e-05 0)
(1.08625e-05 1.14322e-05 0)
(3.14467e-06 2.13632e-06 0)
(3.47427e-06 2.56815e-06 0)
(3.81399e-06 3.01906e-06 0)
(4.16052e-06 3.48568e-06 0)
(4.51503e-06 3.96435e-06 0)
(4.87623e-06 4.45233e-06 0)
(5.24411e-06 4.9469e-06 0)
(5.61795e-06 5.44581e-06 0)
(5.9974e-06 5.94706e-06 0)
(6.38193e-06 6.44891e-06 0)
(6.77116e-06 6.94984e-06 0)
(7.16466e-06 7.44855e-06 0)
(7.56206e-06 7.94389e-06 0)
(7.96303e-06 8.43486e-06 0)
(8.36725e-06 8.92059e-06 0)
(8.77443e-06 9.40033e-06 0)
(9.18425e-06 9.87342e-06 0)
(9.59629e-06 1.03394e-05 0)
(1.00101e-05 1.07975e-05 0)
(1.04246e-05 1.12479e-05 0)
(2.87602e-06 2.00109e-06 0)
(3.18396e-06 2.42751e-06 0)
(3.50319e-06 2.87344e-06 0)
(3.8311e-06 3.33549e-06 0)
(4.16859e-06 3.81e-06 0)
(4.51456e-06 4.29422e-06 0)
(4.86887e-06 4.7854e-06 0)
(5.23081e-06 5.28128e-06 0)
(5.59993e-06 5.77979e-06 0)
(5.97563e-06 6.27919e-06 0)
(6.35738e-06 6.7779e-06 0)
(6.74465e-06 7.27459e-06 0)
(7.13693e-06 7.76806e-06 0)
(7.53372e-06 8.2573e-06 0)
(7.93458e-06 8.74144e-06 0)
(8.33902e-06 9.21976e-06 0)
(8.74662e-06 9.69172e-06 0)
(9.15681e-06 1.0157e-05 0)
(9.56902e-06 1.06154e-05 0)
(9.98212e-06 1.10674e-05 0)
(2.58737e-06 1.8766e-06 0)
(2.87326e-06 2.29747e-06 0)
(3.17196e-06 2.73806e-06 0)
(3.48156e-06 3.19507e-06 0)
(3.80259e-06 3.66485e-06 0)
(4.13411e-06 4.14467e-06 0)
(4.47581e-06 4.63178e-06 0)
(4.82692e-06 5.12392e-06 0)
(5.18686e-06 5.61902e-06 0)
(5.55493e-06 6.1153e-06 0)
(5.93044e-06 6.61118e-06 0)
(6.31271e-06 7.10529e-06 0)
(6.70108e-06 7.59642e-06 0)
(7.09486e-06 8.08355e-06 0)
(7.49343e-06 8.5658e-06 0)
(7.89612e-06 9.04248e-06 0)
(8.30233e-06 9.51312e-06 0)
(8.71135e-06 9.97758e-06 0)
(9.1225e-06 1.04361e-05 0)
(9.53468e-06 1.08895e-05 0)
(2.27146e-06 1.75985e-06 0)
(2.53499e-06 2.17509e-06 0)
(2.81338e-06 2.61009e-06 0)
(3.10529e-06 3.0617e-06 0)
(3.41083e-06 3.52634e-06 0)
(3.72909e-06 4.00128e-06 0)
(4.05954e-06 4.48383e-06 0)
(4.40134e-06 4.97174e-06 0)
(4.75372e-06 5.46293e-06 0)
(5.11581e-06 5.95562e-06 0)
(5.48679e-06 6.44823e-06 0)
(5.86577e-06 6.93938e-06 0)
(6.25192e-06 7.42786e-06 0)
(6.64437e-06 7.91262e-06 0)
(7.04226e-06 8.39279e-06 0)
(7.44472e-06 8.8677e-06 0)
(7.85089e-06 9.33692e-06 0)
(8.25986e-06 9.80041e-06 0)
(8.67078e-06 1.02587e-05 0)
(9.08257e-06 1.07131e-05 0)
(1.92414e-06 1.6577e-06 0)
(2.16517e-06 2.06596e-06 0)
(2.42376e-06 2.494e-06 0)
(2.69882e-06 2.93885e-06 0)
(2.99009e-06 3.39702e-06 0)
(3.29654e-06 3.86584e-06 0)
(3.61741e-06 4.34265e-06 0)
(3.95166e-06 4.82521e-06 0)
(4.29834e-06 5.31147e-06 0)
(4.65638e-06 5.79967e-06 0)
(5.02476e-06 6.2882e-06 0)
(5.40242e-06 6.77571e-06 0)
(5.78832e-06 7.26098e-06 0)
(6.18139e-06 7.74296e-06 0)
(6.58055e-06 8.2208e-06 0)
(6.98467e-06 8.69384e-06 0)
(7.3926e-06 9.16166e-06 0)
(7.80308e-06 9.62424e-06 0)
(8.21504e-06 1.00821e-05 0)
(8.62711e-06 1.05368e-05 0)
(2.77008e-07 2.98134e-08 0)
(8.36525e-07 1.83893e-07 0)
(1.43099e-06 4.71325e-07 0)
(2.06817e-06 8.72947e-07 0)
(2.76038e-06 1.37793e-06 0)
(3.51157e-06 1.96831e-06 0)
(4.32479e-06 2.62492e-06 0)
(5.19868e-06 3.32763e-06 0)
(6.13065e-06 4.05612e-06 0)
(7.11583e-06 4.79371e-06 0)
(2.60936e-07 2.67124e-08 0)
(7.88588e-07 1.65292e-07 0)
(1.34779e-06 4.26344e-07 0)
(1.94453e-06 7.94352e-07 0)
(2.59005e-06 1.26118e-06 0)
(3.28797e-06 1.81175e-06 0)
(4.04144e-06 2.42943e-06 0)
(4.84921e-06 3.0965e-06 0)
(5.70833e-06 3.79343e-06 0)
(6.61368e-06 4.50701e-06 0)
(2.46487e-07 2.30175e-08 0)
(7.45567e-07 1.46413e-07 0)
(1.27355e-06 3.82804e-07 0)
(1.83444e-06 7.19458e-07 0)
(2.43824e-06 1.15028e-06 0)
(3.08802e-06 1.66252e-06 0)
(3.78715e-06 2.24168e-06 0)
(4.53514e-06 2.87255e-06 0)
(5.33093e-06 3.53739e-06 0)
(6.16898e-06 4.2268e-06 0)
(2.33265e-07 1.87171e-08 0)
(7.06371e-07 1.27435e-07 0)
(1.20672e-06 3.4156e-07 0)
(1.73651e-06 6.50346e-07 0)
(2.30466e-06 1.0492e-06 0)
(2.91344e-06 1.52714e-06 0)
(3.56597e-06 2.07124e-06 0)
(4.2614e-06 2.6679e-06 0)
(4.99992e-06 3.30033e-06 0)
(5.77483e-06 3.96041e-06 0)
(2.20902e-07 1.37646e-08 0)
(6.69778e-07 1.0769e-07 0)
(1.14476e-06 3.00699e-07 0)
(1.64636e-06 5.8353e-07 0)
(2.18259e-06 9.52692e-07 0)
(2.75495e-06 1.39862e-06 0)
(3.36653e-06 1.90977e-06 0)
(4.0161e-06 2.47407e-06 0)
(4.70516e-06 3.07619e-06 0)
(5.42487e-06 3.70786e-06 0)
(2.09298e-07 8.24979e-09 0)
(6.35482e-07 8.73199e-08 0)
(1.08709e-06 2.60451e-07 0)
(1.56316e-06 5.19465e-07 0)
(2.07087e-06 8.61663e-07 0)
(2.61089e-06 1.2785e-06 0)
(3.1862e-06 1.75944e-06 0)
(3.79499e-06 2.29339e-06 0)
(4.43996e-06 2.86639e-06 0)
(5.11084e-06 3.46962e-06 0)
(1.98216e-07 2.14658e-09 0)
(6.02755e-07 6.60302e-08 0)
(1.03234e-06 2.19959e-07 0)
(1.48467e-06 4.56562e-07 0)
(1.96627e-06 7.73721e-07 0)
(2.47709e-06 1.16368e-06 0)
(3.02001e-06 1.6168e-06 0)
(3.59266e-06 2.12271e-06 0)
(4.19859e-06 2.66881e-06 0)
(4.8265e-06 3.2453e-06 0)
(1.87567e-07 -4.46125e-09 0)
(5.71325e-07 4.39175e-08 0)
(9.7998e-07 1.79255e-07 0)
(1.41003e-06 3.94777e-07 0)
(1.86744e-06 6.88769e-07 0)
(2.35147e-06 1.05402e-06 0)
(2.86493e-06 1.48158e-06 0)
(3.40502e-06 1.96153e-06 0)
(3.97583e-06 2.48254e-06 0)
(4.56573e-06 3.03402e-06 0)
(1.77218e-07 -1.15842e-08 0)
(5.4078e-07 2.08639e-08 0)
(9.29252e-07 1.37959e-07 0)
(1.33804e-06 3.33385e-07 0)
(1.77263e-06 6.05703e-07 0)
(2.23173e-06 9.48093e-07 0)
(2.71804e-06 1.35215e-06 0)
(3.22851e-06 1.8083e-06 0)
(3.76742e-06 2.30624e-06 0)
(4.32332e-06 2.83478e-06 0)
(1.67095e-07 -1.91741e-08 0)
(5.10888e-07 -3.08663e-09 0)
(8.79719e-07 9.60357e-08 0)
(1.26797e-06 2.72237e-07 0)
(1.6807e-06 5.24234e-07 0)
(2.11617e-06 8.45444e-07 0)
(2.577e-06 1.22788e-06 0)
(3.06e-06 1.66218e-06 0)
(3.5695e-06 2.1389e-06 0)
(4.09458e-06 2.64651e-06 0)
(1.57114e-07 -2.72257e-08 0)
(4.81411e-07 -2.7989e-08 0)
(8.30933e-07 5.33001e-08 0)
(1.19908e-06 2.10987e-07 0)
(1.59054e-06 4.43833e-07 0)
(2.00324e-06 7.45377e-07 0)
(2.43969e-06 1.10792e-06 0)
(2.89678e-06 1.52224e-06 0)
(3.37868e-06 1.97957e-06 0)
(3.87531e-06 2.46824e-06 0)
(1.4722e-07 -3.57244e-08 0)
(4.52204e-07 -5.38511e-08 0)
(7.82592e-07 9.70139e-09 0)
(1.13083e-06 1.49535e-07 0)
(1.50126e-06 3.64321e-07 0)
(1.89159e-06 6.4761e-07 0)
(2.30424e-06 9.91856e-07 0)
(2.73635e-06 1.38794e-06 0)
(3.19185e-06 1.82758e-06 0)
(3.66164e-06 2.29919e-06 0)
(1.37382e-07 -4.46912e-08 0)
(4.23204e-07 -8.07561e-08 0)
(7.345e-07 -3.49032e-08 0)
(1.06279e-06 8.76972e-08 0)
(1.41207e-06 2.85462e-07 0)
(1.77997e-06 5.51833e-07 0)
(2.1689e-06 8.79288e-07 0)
(2.57635e-06 1.25877e-06 0)
(3.00602e-06 1.68237e-06 0)
(3.44988e-06 2.13867e-06 0)
(1.27595e-07 -5.41993e-08 0)
(3.94443e-07 -1.08791e-07 0)
(6.86579e-07 -8.05529e-08 0)
(9.94636e-07 2.55322e-08 0)
(1.32226e-06 2.07374e-07 0)
(1.66722e-06 4.58171e-07 0)
(2.03198e-06 7.70296e-07 0)
(2.41451e-06 1.13473e-06 0)
(2.81829e-06 1.54382e-06 0)
(3.23647e-06 1.98644e-06 0)
(1.17947e-07 -6.43889e-08 0)
(3.66271e-07 -1.38201e-07 0)
(6.39084e-07 -1.27472e-07 0)
(9.26292e-07 -3.7104e-08 0)
(1.23128e-06 1.2998e-07 0)
(1.55221e-06 3.66552e-07 0)
(1.89172e-06 6.64772e-07 0)
(2.24842e-06 1.01562e-06 0)
(2.62561e-06 1.41166e-06 0)
(3.01763e-06 1.84209e-06 0)
(1.08623e-07 -7.57281e-08 0)
(3.39254e-07 -1.6933e-07 0)
(5.92438e-07 -1.75578e-07 0)
(8.57757e-07 -9.96473e-08 0)
(1.13857e-06 5.41471e-08 0)
(1.43374e-06 2.77998e-07 0)
(1.7463e-06 5.63753e-07 0)
(2.07559e-06 9.02421e-07 0)
(2.42482e-06 1.28673e-06 0)
(2.78953e-06 1.70629e-06 0)
(1.00307e-07 -8.87809e-08 0)
(3.15162e-07 -2.02879e-07 0)
(5.48099e-07 -2.25329e-07 0)
(7.89648e-07 -1.62412e-07 0)
(1.04373e-06 -2.0301e-08 0)
(1.31047e-06 1.92323e-07 0)
(1.59349e-06 4.67002e-07 0)
(1.89298e-06 7.94775e-07 0)
(2.21209e-06 1.16855e-06 0)
(2.54759e-06 1.57841e-06 0)
(9.4458e-08 -1.05945e-07 0)
(2.96047e-07 -2.39914e-07 0)
(5.07475e-07 -2.75717e-07 0)
(7.22275e-07 -2.22912e-07 0)
(9.46095e-07 -9.01861e-08 0)
(1.18079e-06 1.12979e-07 0)
(1.43087e-06 3.77923e-07 0)
(1.69742e-06 6.95896e-07 0)
(1.98355e-06 1.06005e-06 0)
(2.28724e-06 1.46102e-06 0)
(9.81687e-08 -1.29019e-07 0)
(2.89548e-07 -2.81771e-07 0)
(4.75431e-07 -3.27686e-07 0)
(6.57333e-07 -2.82553e-07 0)
(8.44927e-07 -1.57233e-07 0)
(1.04219e-06 3.78838e-08 0)
(1.25457e-06 2.94182e-07 0)
(1.48388e-06 6.03213e-07 0)
(1.73326e-06 9.58469e-07 0)
(2.0016e-06 1.35117e-06 0)
(1.26459e-07 -1.70683e-07 0)
(3.00446e-07 -3.29385e-07 0)
(4.54239e-07 -3.74639e-07 0)
(5.9457e-07 -3.31123e-07 0)
(7.39053e-07 -2.10576e-07 0)
(8.92736e-07 -2.22021e-08 0)
(1.06215e-06 2.25988e-07 0)
(1.24944e-06 5.26292e-07 0)
(1.45781e-06 8.72623e-07 0)
(1.68674e-06 1.25686e-06 0)
)
;

boundaryField
{
    left
    {
        type            fixedDisplacement;
        value           uniform (0 0 0);
    }
    right
    {
        type            solidTraction;
        tractionSeries  
{
        file            "$FOAM_CASE/constant/timeVsTraction";
        outOfBounds     clamp;
}
        pressure        uniform 0;
        secondOrder     false;
        setEffectiveTraction false;
        relaxationFactor 1;
        value           nonuniform List<vector> 
30
(
(2.29278e-05 1.68252e-05 -8.39933e-21)
(2.23931e-05 1.66327e-05 -8.44916e-21)
(2.18537e-05 1.64415e-05 -8.54059e-21)
(2.13081e-05 1.62481e-05 -8.6683e-21)
(2.07562e-05 1.60503e-05 -8.8325e-21)
(2.01995e-05 1.58461e-05 -9.03355e-21)
(1.96397e-05 1.56342e-05 -9.27256e-21)
(1.90793e-05 1.54141e-05 -9.55044e-21)
(1.85206e-05 1.51856e-05 -9.86814e-21)
(1.79663e-05 1.49495e-05 -1.02267e-20)
(1.74419e-05 1.47171e-05 -1.04149e-20)
(1.69447e-05 1.44887e-05 -1.03844e-20)
(1.64545e-05 1.42568e-05 -1.03645e-20)
(1.59724e-05 1.40227e-05 -1.03549e-20)
(1.54988e-05 1.37879e-05 -1.03572e-20)
(1.50326e-05 1.3554e-05 -1.03707e-20)
(1.45747e-05 1.33219e-05 -1.03935e-20)
(1.4124e-05 1.30932e-05 -1.04255e-20)
(1.36796e-05 1.2869e-05 -1.04649e-20)
(1.32403e-05 1.26501e-05 -1.05102e-20)
(1.28048e-05 1.24372e-05 -1.05593e-20)
(1.23716e-05 1.22308e-05 -1.06101e-20)
(1.19392e-05 1.2031e-05 -1.06605e-20)
(1.1506e-05 1.18377e-05 -1.07081e-20)
(1.10706e-05 1.16503e-05 -1.07506e-20)
(1.06318e-05 1.14681e-05 -1.07862e-20)