/*--------------------------------*- C++ -*----------------------------------*\
  =========                 |
  \\      /  F ield         | OpenFOAM: The Open Source CFD Toolbox
   \\    /   O peration     | Website:  https://openfoam.org
    \\  /    A nd           | Version:  9
     \\/     M anipulation  |
\*---------------------------------------------------------------------------*/
FoamFile
{
    format      ascii;
    class       volScalarField;
    location    "15";
    object      epsilonEq;
}
// * * * * * * * * * * * * * * * * * * * * * * * * * * * * * * * * * * * * * //

dimensions      [0 0 0 0 0 0 0];

internalField   nonuniform List<scalar> 
1000
(
1.02205e-05
9.69898e-06
9.55104e-06
9.63341e-06
9.64577e-06
9.62889e-06
9.56381e-06
9.46309e-06
9.35012e-06
9.20815e-06
1.19012e-05
1.08269e-05
1.02889e-05
1.01353e-05
9.98974e-06
9.86627e-06
9.72176e-06
9.56758e-06
9.39293e-06
9.23796e-06
1.35232e-05
1.19061e-05
1.09585e-05
1.05339e-05
1.02071e-05
9.95655e-06
9.7193e-06
9.49765e-06
9.26517e-06
9.0784e-06
1.50621e-05
1.29148e-05
1.15562e-05
1.0833e-05
1.03065e-05
9.91352e-06
9.57483e-06
9.28149e-06
8.9932e-06
8.77297e-06
1.65428e-05
1.38414e-05
1.20875e-05
1.10398e-05
1.02932e-05
9.74294e-06
9.2948e-06
8.92545e-06
8.58458e-06
8.32893e-06
1.78778e-05
1.47173e-05
1.25306e-05
1.11547e-05
1.01692e-05
9.45433e-06
8.89266e-06
8.447e-06
8.05695e-06
7.76524e-06
1.8907e-05
1.54585e-05
1.28241e-05
1.11248e-05
9.9076e-06
9.03828e-06
8.37466e-06
7.86247e-06
7.43366e-06
7.1096e-06
2.00634e-05
1.59773e-05
1.29002e-05
1.09058e-05
9.5006e-06
8.51463e-06
7.78141e-06
7.22736e-06
6.77954e-06
6.43417e-06
2.13732e-05
1.60097e-05
1.25052e-05
1.03137e-05
8.86305e-06
7.86546e-06
7.13887e-06
6.59175e-06
6.1562e-06
5.80709e-06
2.24772e-05
1.51175e-05
1.15672e-05
9.50945e-06
8.23927e-06
7.35546e-06
6.70709e-06
6.20183e-06
5.79311e-06
5.44569e-06
2.63408e-08
8.4556e-08
3.74472e-07
7.72243e-07
1.2085e-06
1.65873e-06
2.09592e-06
2.51263e-06
2.89531e-06
3.25009e-06
9.93278e-08
5.16924e-07
1.09981e-06
1.67305e-06
2.18113e-06
2.63225e-06
3.02586e-06
3.37797e-06
3.68023e-06
3.96441e-06
4.25449e-07
1.22572e-06
1.96041e-06
2.6254e-06
3.1796e-06
3.64015e-06
4.01455e-06
4.32876e-06
4.57479e-06
4.80758e-06
9.74522e-07
2.0911e-06
2.91913e-06
3.62054e-06
4.17881e-06
4.62687e-06
4.97506e-06
5.25384e-06
5.45354e-06
5.64564e-06
1.75488e-06
3.06568e-06
3.94781e-06
4.65484e-06
5.18763e-06
5.60039e-06
5.9076e-06
6.14275e-06
6.29501e-06
6.4458e-06
2.76319e-06
4.10229e-06
4.98565e-06
5.6727e-06
6.16105e-06
6.52438e-06
6.78116e-06
6.96635e-06
7.07016e-06
7.17744e-06
3.97851e-06
5.18372e-06
6.00378e-06
6.64363e-06
7.07252e-06
7.37703e-06
7.5771e-06
7.70823e-06
7.76329e-06
7.82458e-06
5.37217e-06
6.29494e-06
6.97819e-06
7.5368e-06
7.89094e-06
8.12904e-06
8.26957e-06
8.34491e-06
8.3554e-06
8.36803e-06
6.9035e-06
7.42383e-06
7.89783e-06
8.33767e-06
8.5993e-06
8.76311e-06
8.84006e-06
8.85947e-06
8.82748e-06
8.79804e-06
8.53566e-06
8.56057e-06
8.75469e-06
9.03533e-06
9.18329e-06
9.26111e-06
9.26961e-06
9.22746e-06
9.16708e-06
9.07056e-06
3.56975e-06
3.84466e-06
4.09968e-06
4.33037e-06
4.53899e-06
4.72673e-06
4.89531e-06
5.04596e-06
5.18021e-06
5.29906e-06
5.4036e-06
5.49453e-06
5.57246e-06
5.63777e-06
5.69062e-06
5.7313e-06
5.75967e-06
5.77663e-06
5.78197e-06
5.7786e-06
4.18424e-06
4.34433e-06
4.50596e-06
4.65617e-06
4.7971e-06
4.92812e-06
5.04922e-06
5.16035e-06
5.26187e-06
5.35386e-06
5.43671e-06
5.51062e-06
5.57583e-06
5.63252e-06
5.6807e-06
5.7204e-06
5.75103e-06
5.77226e-06
5.7812e-06
5.77601e-06
4.93763e-06
4.98873e-06
5.05426e-06
5.11745e-06
5.18174e-06
5.24582e-06
5.30922e-06
5.37085e-06
5.43045e-06
5.48722e-06
5.54101e-06
5.59135e-06
5.6381e-06
5.68095e-06
5.71948e-06
5.75314e-06
5.78038e-06
5.79948e-06
5.80451e-06
5.79209e-06
5.70134e-06
5.6616e-06
5.64436e-06
5.63061e-06
5.62425e-06
5.62437e-06
5.6309e-06
5.64217e-06
5.658e-06
5.67692e-06
5.69853e-06
5.72185e-06
5.74635e-06
5.77125e-06
5.79564e-06
5.81844e-06
5.83731e-06
5.84999e-06
5.84941e-06
5.83246e-06
6.43589e-06
6.32136e-06
6.23298e-06
6.15311e-06
6.08459e-06
6.02669e-06
5.98045e-06
5.94354e-06
5.91648e-06
5.8973e-06
5.88572e-06
5.88038e-06
5.88056e-06
5.88513e-06
5.89286e-06
5.90228e-06
5.91074e-06
5.91581e-06
5.91062e-06
5.89263e-06
7.10963e-06
6.93556e-06
6.7883e-06
6.65301e-06
6.53248e-06
6.42427e-06
6.33195e-06
6.25176e-06
6.18535e-06
6.13032e-06
6.08665e-06
6.05286e-06
6.02819e-06
6.01142e-06
6.00122e-06
5.99607e-06
5.99346e-06
5.99112e-06
5.9836e-06
5.96863e-06
7.70647e-06
7.48764e-06
7.29568e-06
7.11472e-06
6.95281e-06
6.80166e-06
6.66946e-06
6.55073e-06
6.44857e-06
6.36045e-06
6.28665e-06
6.22576e-06
6.17706e-06
6.13936e-06
6.11145e-06
6.09189e-06
6.07875e-06
6.07005e-06
6.06251e-06
6.05384e-06
8.20988e-06
7.95977e-06
7.74062e-06
7.52204e-06
7.32985e-06
7.14535e-06
6.98153e-06
6.8314e-06
6.69869e-06
6.58138e-06
6.48002e-06
6.39367e-06
6.32186e-06
6.26369e-06
6.21833e-06
6.18463e-06
6.16152e-06
6.14748e-06
6.14186e-06
6.14213e-06
8.61834e-06
8.34022e-06
8.12149e-06
7.87665e-06
7.66132e-06
7.4497e-06
7.2579e-06
7.08077e-06
6.92153e-06
6.77911e-06
6.65388e-06
6.5453e-06
6.45309e-06
6.37666e-06
6.31561e-06
6.26919e-06
6.23743e-06
6.21926e-06
6.21694e-06
6.22759e-06
8.92278e-06
8.62497e-06
8.42068e-06
8.17804e-06
7.95343e-06
7.73015e-06
7.51885e-06
7.32018e-06
7.13716e-06
6.97076e-06
6.82191e-06
6.69083e-06
6.57769e-06
6.48234e-06
6.40491e-06
6.34516e-06
6.3042e-06
6.28161e-06
6.28268e-06
6.30437e-06
9.04108e-06
8.76213e-06
8.56006e-06
8.3317e-06
8.10738e-06
7.88429e-06
7.66907e-06
7.4638e-06
7.27191e-06
7.09492e-06
6.93443e-06
6.79122e-06
6.66602e-06
6.55921e-06
6.47156e-06
6.40337e-06
6.35686e-06
6.33211e-06
6.33682e-06
6.36785e-06
8.809e-06
8.66572e-06
8.48041e-06
8.28204e-06
8.07941e-06
7.87479e-06
7.67437e-06
7.48041e-06
7.29668e-06
7.12507e-06
6.96766e-06
6.82568e-06
6.7004e-06
6.59267e-06
6.50382e-06
6.43474e-06
6.38841e-06
6.36545e-06
6.37537e-06
6.41459e-06
8.62187e-06
8.51312e-06
8.37118e-06
8.20124e-06
8.02481e-06
7.83991e-06
7.65575e-06
7.4742e-06
7.29992e-06
7.13505e-06
6.98221e-06
6.84302e-06
6.71919e-06
6.61203e-06
6.52333e-06
6.45449e-06
6.40915e-06
6.38805e-06
6.40177e-06
6.44658e-06
8.39889e-06
8.33354e-06
8.22708e-06
8.08482e-06
7.9334e-06
7.76861e-06
7.60179e-06
7.4344e-06
7.27179e-06
7.11624e-06
6.97074e-06
6.83719e-06
6.71762e-06
6.61366e-06
6.52738e-06
6.46069e-06
6.41706e-06
6.39841e-06
6.41605e-06
6.46394e-06
8.14476e-06
8.11367e-06
8.0407e-06
7.92753e-06
7.80283e-06
7.66064e-06
7.51364e-06
7.363e-06
7.21466e-06
7.07104e-06
6.93545e-06
6.81004e-06
6.69706e-06
6.59848e-06
6.51627e-06
6.45323e-06
6.41119e-06
6.39748e-06
6.40637e-06
6.46555e-06
7.8742e-06
7.87369e-06
7.83086e-06
7.74503e-06
7.64551e-06
7.52569e-06
7.39877e-06
7.26582e-06
7.13307e-06
7.00303e-06
6.87924e-06
6.76397e-06
6.65967e-06
6.56831e-06
6.49234e-06
6.43371e-06
6.39655e-06
6.38288e-06
6.40143e-06
6.44786e-06
7.59206e-06
7.61674e-06
7.60023e-06
7.53997e-06
7.46437e-06
7.36677e-06
7.2602e-06
7.14575e-06
7.02971e-06
6.91465e-06
6.8042e-06
6.70071e-06
6.60671e-06
6.52418e-06
6.45556e-06
6.40264e-06
6.36941e-06
6.35663e-06
6.37386e-06
6.41759e-06
7.30409e-06
7.34965e-06
7.35608e-06
7.31893e-06
7.26534e-06
7.18895e-06
7.1023e-06
7.00649e-06
6.9077e-06
6.8085e-06
6.71253e-06
6.6221e-06
6.53974e-06
6.46733e-06
6.40718e-06
6.36085e-06
6.33179e-06
6.32087e-06
6.33606e-06
6.37397e-06
7.01284e-06
7.07496e-06
7.10086e-06
7.08434e-06
7.05095e-06
6.99475e-06
6.92751e-06
6.85035e-06
6.7692e-06
6.68657e-06
6.60598e-06
6.52968e-06
6.46009e-06
6.39894e-06
6.3483e-06
6.30942e-06
6.28515e-06
6.27585e-06
6.28825e-06
6.31918e-06
6.71961e-06
6.7947e-06
6.83704e-06
6.83883e-06
6.82389e-06
6.78677e-06
6.73833e-06
6.67969e-06
6.6164e-06
6.55084e-06
6.48635e-06
6.42505e-06
6.36917e-06
6.32027e-06
6.28007e-06
6.24951e-06
6.23062e-06
6.22343e-06
6.23267e-06
6.25544e-06
6.42393e-06
6.50897e-06
6.56515e-06
6.58327e-06
6.58539e-06
6.56649e-06
6.53643e-06
6.49627e-06
6.45108e-06
6.40309e-06
6.35535e-06
6.30982e-06
6.26849e-06
6.23271e-06
6.20382e-06
6.18241e-06
6.16967e-06
6.16509e-06
6.17127e-06
6.18558e-06
6.12441e-06
6.21715e-06
6.28521e-06
6.31825e-06
6.33649e-06
6.3353e-06
6.32347e-06
6.30193e-06
6.27522e-06
6.24532e-06
6.21497e-06
6.1859e-06
6.15985e-06
6.13794e-06
6.12114e-06
6.1097e-06
6.10391e-06
6.10276e-06
6.10649e-06
6.11262e-06
5.81813e-06
5.91727e-06
5.99608e-06
6.0434e-06
6.07751e-06
6.09409e-06
6.10082e-06
6.09844e-06
6.09085e-06
6.07976e-06
6.06752e-06
6.05561e-06
6.0455e-06
6.0381e-06
6.03404e-06
6.03326e-06
6.03527e-06
6.03851e-06
6.04087e-06
6.03978e-06
5.5023e-06
5.60758e-06
5.69696e-06
5.75881e-06
5.80931e-06
5.8444e-06
5.87057e-06
5.88828e-06
5.90077e-06
5.90938e-06
5.91604e-06
5.92198e-06
5.92837e-06
5.93594e-06
5.94505e-06
5.95543e-06
5.96595e-06
5.97458e-06
5.97704e-06
5.97035e-06
5.17197e-06
5.28459e-06
5.38574e-06
5.46368e-06
5.53223e-06
5.58754e-06
5.63484e-06
5.67422e-06
5.70822e-06
5.73777e-06
5.76435e-06
5.78888e-06
5.81228e-06
5.8351e-06
5.85753e-06
5.87921e-06
5.89865e-06
5.91348e-06
5.91773e-06
5.90767e-06
4.82533e-06
4.94806e-06
5.06349e-06
5.16025e-06
5.24946e-06
5.32748e-06
5.39815e-06
5.4612e-06
5.51837e-06
5.57019e-06
5.61766e-06
5.66141e-06
5.7021e-06
5.74013e-06
5.77563e-06
5.80825e-06
5.83648e-06
5.85786e-06
5.86552e-06
5.85472e-06
4.4556e-06
4.59382e-06
4.72842e-06
4.84878e-06
4.96297e-06
5.06753e-06
5.16488e-06
5.25436e-06
5.33695e-06
5.41274e-06
5.48232e-06
5.546e-06
5.60419e-06
5.65719e-06
5.70508e-06
5.74764e-06
5.78367e-06
5.81102e-06
5.82318e-06
5.8145e-06
4.07022e-06
4.23109e-06
4.39094e-06
4.54038e-06
4.68419e-06
4.81906e-06
4.94608e-06
5.06422e-06
5.17381e-06
5.27461e-06
5.36682e-06
5.45049e-06
5.52584e-06
5.593e-06
5.65206e-06
5.70294e-06
5.74491e-06
5.77653e-06
5.79287e-06
5.7883e-06
3.66168e-06
3.8572e-06
4.05229e-06
4.2391e-06
4.4192e-06
4.58955e-06
4.75017e-06
4.89983e-06
5.03842e-06
5.16552e-06
5.28111e-06
5.38509e-06
5.47745e-06
5.55817e-06
5.62712e-06
5.68422e-06
5.72895e-06
5.76099e-06
5.77806e-06
5.77778e-06
3.27805e-06
3.51795e-06
3.75494e-06
3.98289e-06
4.20158e-06
4.40798e-06
4.60182e-06
4.78174e-06
4.94762e-06
5.09903e-06
5.23595e-06
5.35824e-06
5.4658e-06
5.55841e-06
5.63562e-06
5.69705e-06
5.74181e-06
5.77025e-06
5.78159e-06
5.77987e-06
5.15226e-06
5.49962e-06
6.0952e-06
6.75127e-06
7.40348e-06
7.97672e-06
8.44016e-06
8.77204e-06
8.97747e-06
9.01944e-06
4.88018e-06
5.20416e-06
5.75329e-06
6.37284e-06
7.01057e-06
7.59535e-06
8.09554e-06
8.47918e-06
8.74538e-06
8.84937e-06
4.63637e-06
4.94552e-06
5.45607e-06
6.03588e-06
6.64309e-06
7.2123e-06
7.71695e-06
8.13004e-06
8.4526e-06
8.65102e-06
4.41329e-06
4.7125e-06
5.19123e-06
5.73591e-06
6.31472e-06
6.86711e-06
7.36712e-06
7.78904e-06
8.12721e-06
8.38319e-06
4.20389e-06
4.49636e-06
4.94813e-06
5.4598e-06
6.00841e-06
6.53988e-06
7.03056e-06
7.46002e-06
7.80893e-06
8.09788e-06
4.00721e-06
4.29545e-06
4.72506e-06
5.20756e-06
5.72703e-06
6.23493e-06
6.70856e-06
7.13429e-06
7.48329e-06
7.7936e-06
3.81962e-06
4.10499e-06
4.5159e-06
4.97243e-06
5.4646e-06
5.94937e-06
6.40487e-06
6.82331e-06
7.16714e-06
7.48435e-06
3.64047e-06
3.92358e-06
4.31837e-06
4.75156e-06
5.21782e-06
5.67891e-06
6.11404e-06
6.52071e-06
6.8568e-06
7.17425e-06
3.46852e-06
3.74934e-06
4.12972e-06
4.5417e-06
4.98379e-06
5.42185e-06
5.83642e-06
6.2286e-06
6.55463e-06
6.86652e-06
3.30383e-06
3.58154e-06
3.94817e-06
4.34006e-06
4.75888e-06
5.17392e-06
5.56759e-06
5.94335e-06
6.25828e-06
6.5616e-06
3.14676e-06
3.41982e-06
3.7724e-06
4.14439e-06
4.54033e-06
4.9323e-06
5.30491e-06
5.6628e-06
5.96559e-06
6.25834e-06
2.99851e-06
3.26456e-06
3.60149e-06
3.95253e-06
4.32493e-06
4.69313e-06
5.04422e-06
5.38321e-06
5.67322e-06
5.95439e-06
2.86153e-06
3.11688e-06
3.43465e-06
3.76195e-06
4.10889e-06
4.45197e-06
4.78077e-06
5.1e-06
5.37671e-06
5.64591e-06
2.73957e-06
2.97852e-06
3.27148e-06
3.57057e-06
3.88876e-06
4.20457e-06
4.50986e-06
4.80859e-06
5.07169e-06
5.32902e-06
2.63973e-06
2.85226e-06
3.10977e-06
3.3727e-06
3.65688e-06
3.9426e-06
4.22315e-06
4.5011e-06
4.75098e-06
4.99737e-06
2.57039e-06
2.73941e-06
2.94729e-06
3.16486e-06
3.40887e-06
3.6613e-06
3.91587e-06
4.17313e-06
4.41078e-06
4.64781e-06
2.55019e-06
2.6426e-06
2.77182e-06
2.92808e-06
3.12449e-06
3.34156e-06
3.5711e-06
3.81017e-06
4.03904e-06
4.27073e-06
2.58251e-06
2.54414e-06
2.57003e-06
2.65638e-06
2.80157e-06
2.98337e-06
3.19053e-06
3.41548e-06
3.64063e-06
3.87212e-06
2.71347e-06
2.42014e-06
2.28127e-06
2.28228e-06
2.38236e-06
2.54008e-06
2.73769e-06
2.96145e-06
3.19535e-06
3.43837e-06
2.76419e-06
2.11696e-06
1.88605e-06
1.82104e-06
1.8992e-06
2.05022e-06
2.25537e-06
2.49423e-06
2.75136e-06
3.01902e-06
)
;

boundaryField
{
    left
    {
        type            calculated;
        value           nonuniform List<scalar> 
30
(
5.09396e-06
4.82483e-06
4.58385e-06
4.36327e-06
4.15667e-06
3.96308e-06
3.77918e-06
3.60451e-06
3.43801e-06
3.27999e-06
3.13124e-06
2.99318e-06
2.86854e-06
2.76146e-06
2.6794e-06
2.63334e-06
2.64562e-06
2.74298e-06
3.01795e-06
3.44326e-06
2.39337e-05
1.48209e-05
1.11966e-05
9.27535e-06
8.09873e-06
7.26266e-06
6.63744e-06
6.14152e-06
5.73679e-06
5.3876e-06
)
;
    }
    right
    {
        type            calculated;
        value           nonuniform List<scalar> 
30
(
5.77762e-06
5.77601e-06
5.79152e-06
5.83156e-06
5.89152e-06
5.96755e-06
6.05296e-06
6.14167e-06
6.2276e-06
6.3051e-06
6.36886e-06
6.41637e-06
6.4486e-06
6.46613e-06
6.46612e-06
6.44977e-06
6.41965e-06
6.37572e-06
6.32056e-06
6.25639e-06
6.1861e-06
6.11274e-06
6.03957e-06
5.96991e-06
5.90714e-06
5.85424e-06
5.81423e-06
5.78828e-06
5.77802e-06
5.77875e-06
)
;
    }
    down
    {
        type            calculated;
        value           nonuniform List<scalar> 
30
(
2.14399e-08
2.82309e-08
2.71746e-07
6.55067e-07
1.0962e-06
1.55706e-06
2.00709e-06
2.43609e-06
2.82968e-06
3.19465e-06
3.52335e-06
3.80982e-06
4.07302e-06
4.30974e-06
4.52331e-06
4.71471e-06
4.88631e-06
5.03927e-06
5.1754e-06
5.2957e-06
5.4014e-06
5.49321e-06
5.57179e-06
5.63754e-06
5.69065e-06
5.7314e-06
5.75967e-06
5.77654e-06
5.78191e-06
5.78001e-06
)
;
    }
    up
    {
        type            calculated;
        value           nonuniform List<scalar> 
30
(
2.72176e-06
2.09126e-06
1.87291e-06
1.80684e-06
1.88303e-06
2.0319e-06
2.23574e-06
2.47426e-06
2.73117e-06
2.9999e-06
3.2597e-06
3.50148e-06
3.74073e-06
3.97054e-06
4.19117e-06
4.39926e-06
4.59469e-06
4.77601e-06
4.94316e-06
5.09567e-06
5.23355e-06
5.35666e-06
5.46489e-06
5.55803e-06
5.63562e-06
5.69725e-06
5.74201e-06
5.77034e-06
5.78148e-06
5.78074e-06
)
;
    }
    hole
    {
        type            calculated;
        value           nonuniform List<scalar> 
20
(
1.02849e-05
1.20433e-05
1.37501e-05
1.53769e-05
1.69975e-05
1.84259e-05
1.94364e-05
2.06901e-05
2.24378e-05
2.42035e-05
8.86289e-09
8.57623e-09
2.0381e-07
6.92743e-07
1.45424e-06
2.48151e-06
3.74036e-06
5.19633e-06
6.80231e-06
8.51753e-06
)
;
    }
    frontAndBack
    {
        type            empty;
    }
}


// ************************************************************************* //
