/*--------------------------------*- C++ -*----------------------------------*\
  =========                 |
  \\      /  F ield         | OpenFOAM: The Open Source CFD Toolbox
   \\    /   O peration     | Website:  https://openfoam.org
    \\  /    A nd           | Version:  9
     \\/     M anipulation  |
\*---------------------------------------------------------------------------*/
FoamFile
{
    format      ascii;
    class       volSymmTensorField;
    location    "15";
    object      epsilon;
}
// * * * * * * * * * * * * * * * * * * * * * * * * * * * * * * * * * * * * * //

dimensions      [0 0 0 0 0 0 0];

internalField   nonuniform List<symmTensor> 
1000
(
(6.31008e-06 -8.19777e-06 7.16934e-19 1.26881e-06 7.8924e-19 2.15009e-33)
(8.69684e-06 -6.32318e-06 -1.30455e-20 -1.5663e-06 7.3035e-21 0)
(9.87162e-06 -4.85063e-06 1.52324e-20 -2.91135e-06 -2.92902e-21 0)
(1.05393e-05 -3.73982e-06 3.92463e-21 -3.87039e-06 -2.79436e-21 0)
(1.08621e-05 -2.8413e-06 -1.65668e-20 -4.3992e-06 1.21826e-21 0)
(1.09733e-05 -2.13935e-06 -1.80328e-21 -4.73931e-06 1.96326e-21 0)
(1.09641e-05 -1.56715e-06 -1.50218e-20 -4.92332e-06 -8.0627e-21 0)
(1.08666e-05 -1.11208e-06 1.03174e-20 -5.01726e-06 4.81979e-21 0)
(1.07389e-05 -7.33373e-07 -5.29975e-21 -5.05162e-06 -6.05136e-21 0)
(1.05515e-05 -4.18092e-07 0 -5.05641e-06 0 0)
(8.49994e-06 -9.12039e-06 6.60861e-19 3.82737e-07 8.54558e-19 1.15773e-34)
(1.03886e-05 -6.53941e-06 0 -2.18901e-06 0 0)
(1.11877e-05 -4.671e-06 1.21722e-20 -3.28641e-06 5.80567e-21 0)
(1.1567e-05 -3.33436e-06 -2.0901e-20 -4.08726e-06 -1.11507e-20 0)
(1.16654e-05 -2.30534e-06 -8.88467e-21 -4.48882e-06 -5.36056e-21 0)
(1.15977e-05 -1.53791e-06 6.17009e-21 -4.73901e-06 6.30869e-21 0)
(1.14436e-05 -9.36239e-07 6.92671e-21 -4.85202e-06 4.64471e-21 0)
(1.12326e-05 -4.79087e-07 1.63e-20 -4.90247e-06 9.51322e-21 0)
(1.09946e-05 -1.08076e-07 0 -4.8861e-06 0 0)
(1.0742e-05 1.88724e-07 0 -4.89371e-06 0 0)
(1.09434e-05 -9.70442e-06 6.00107e-19 -7.83531e-07 8.98121e-19 0)
(1.21493e-05 -6.53213e-06 0 -2.88292e-06 0 0)
(1.24565e-05 -4.34743e-06 1.16067e-20 -3.62689e-06 6.01378e-21 0)
(1.24766e-05 -2.8354e-06 -3.50981e-21 -4.19237e-06 1.23096e-21 0)
(1.2309e-05 -1.71515e-06 -1.72035e-22 -4.4264e-06 7.59764e-23 0)
(1.2037e-05 -9.10709e-07 -5.75176e-21 -4.55946e-06 -5.97037e-21 0)
(1.17244e-05 -3.03567e-07 7.89152e-21 -4.58634e-06 3.64854e-21 0)
(1.139e-05 1.39607e-07 -5.84746e-21 -4.58135e-06 -4.32216e-21 0)
(1.10505e-05 4.84578e-07 -4.81815e-22 -4.51757e-06 8.13372e-22 0)
(1.07223e-05 7.64773e-07 -1.23925e-21 -4.51094e-06 -5.32597e-22 0)
(1.358e-05 -9.85389e-06 5.17073e-19 -2.20115e-06 9.35374e-19 -5.98145e-35)
(1.39138e-05 -6.29243e-06 6.67519e-21 -3.59298e-06 -6.94003e-22 0)
(1.36482e-05 -3.89429e-06 -5.3036e-21 -3.91268e-06 -3.00635e-21 0)
(1.32538e-05 -2.27101e-06 -3.39311e-21 -4.18179e-06 6.54584e-22 0)
(1.27887e-05 -1.10862e-06 6.00586e-21 -4.21947e-06 5.82883e-21 0)
(1.22959e-05 -3.00903e-07 -7.25329e-21 -4.21848e-06 -4.80119e-21 0)
(1.18181e-05 2.85538e-07 -6.26515e-21 -4.15471e-06 -4.46388e-21 0)
(1.13621e-05 6.98155e-07 -1.39629e-20 -4.09359e-06 -1.02268e-20 0)
(1.09276e-05 1.00271e-06 -1.99244e-21 -3.99136e-06 -2.44554e-21 0)
(1.05341e-05 1.25035e-06 3.41484e-21 -3.9664e-06 3.02749e-21 0)
(1.62965e-05 -9.52085e-06 4.61477e-19 -3.8777e-06 1.00772e-18 -1.17794e-33)
(1.5631e-05 -5.78936e-06 3.50371e-25 -4.31992e-06 1.51787e-26 0)
(1.47412e-05 -3.31438e-06 -1.71919e-20 -4.15373e-06 -8.45478e-21 0)
(1.38909e-05 -1.65655e-06 1.57881e-21 -4.06702e-06 -6.10066e-23 0)
(1.31027e-05 -5.15279e-07 -2.21177e-21 -3.88077e-06 2.26671e-22 0)
(1.23796e-05 2.52675e-07 5.20719e-21 -3.73234e-06 4.83088e-21 0)
(1.17371e-05 7.85633e-07 -5.91825e-22 -3.57682e-06 1.71553e-22 0)
(1.11652e-05 1.14539e-06 5.51424e-21 -3.46238e-06 3.68969e-21 0)
(1.06485e-05 1.39305e-06 -1.17417e-21 -3.33302e-06 -2.55278e-21 0)
(1.01988e-05 1.5946e-06 -2.17783e-21 -3.29377e-06 -1.76282e-21 0)
(1.8904e-05 -8.72341e-06 3.10689e-19 -5.47516e-06 8.7245e-19 -1.14014e-33)
(1.73019e-05 -5.00355e-06 3.21853e-25 -5.05031e-06 6.52957e-26 0)
(1.57194e-05 -2.58357e-06 -1.74065e-25 -4.30333e-06 -2.69796e-26 0)
(1.43861e-05 -9.98995e-07 1.39844e-21 -3.84085e-06 1.67195e-22 0)
(1.32573e-05 4.35066e-08 -7.44494e-21 -3.41394e-06 -4.54107e-21 0)
(1.23052e-05 7.16726e-07 8.57237e-23 -3.12164e-06 -7.65145e-25 0)
(1.15066e-05 1.15976e-06 5.53815e-21 -2.88345e-06 3.7603e-21 0)
(1.08316e-05 1.44327e-06 1.17686e-20 -2.72664e-06 8.63128e-21 0)
(1.0248e-05 1.62038e-06 2.13176e-21 -2.58401e-06 1.56821e-21 0)
(9.75411e-06 1.76484e-06 -3.71948e-21 -2.53725e-06 -2.93874e-21 0)
(2.12801e-05 -7.22132e-06 1.89294e-19 -6.91673e-06 6.0954e-19 -1.92461e-33)
(1.88026e-05 -3.87259e-06 5.11372e-21 -5.68284e-06 1.96712e-21 0)
(1.65002e-05 -1.65819e-06 5.26803e-21 -4.30337e-06 2.41244e-21 0)
(1.46749e-05 -3.04903e-07 -1.15197e-21 -3.46397e-06 -3.35332e-22 0)
(1.32228e-05 5.41496e-07 5.36558e-21 -2.81463e-06 3.61572e-21 0)
(1.20684e-05 1.05367e-06 -4.94169e-21 -2.40605e-06 -3.42695e-21 0)
(1.11434e-05 1.36908e-06 1.42027e-21 -2.11262e-06 8.51096e-23 0)
(1.03912e-05 1.55506e-06 -4.41689e-21 -1.93558e-06 -2.90501e-21 0)
(9.76376e-06 1.65353e-06 -3.08534e-22 -1.79889e-06 4.03972e-23 0)
(9.241e-06 1.73552e-06 -2.23844e-21 -1.75495e-06 -1.46376e-21 0)
(2.36972e-05 -5.36459e-06 1.03491e-19 -8.10653e-06 3.91205e-19 -6.19581e-35)
(2.00494e-05 -2.37039e-06 -1.33058e-20 -5.97597e-06 -4.83205e-21 0)
(1.70099e-05 -5.51508e-07 1.04583e-22 -4.00578e-06 5.65738e-23 0)
(1.47266e-05 3.81051e-07 1.69012e-21 -2.86011e-06 8.22606e-22 0)
(1.30107e-05 9.20181e-07 1.22891e-20 -2.07309e-06 6.15949e-21 0)
(1.1712e-05 1.21237e-06 -7.32658e-22 -1.61624e-06 -2.19767e-22 0)
(1.07089e-05 1.37592e-06 1.8205e-26 -1.32002e-06 3.46121e-27 0)
(9.91612e-06 1.45842e-06 -4.32121e-21 -1.15749e-06 -2.28576e-21 0)
(9.2719e-06 1.48443e-06 1.0552e-22 -1.04984e-06 2.84057e-24 0)
(8.73771e-06 1.51017e-06 3.23773e-22 -1.02043e-06 1.58077e-22 0)
(2.60396e-05 -2.38266e-06 1.47554e-21 -9.39119e-06 -9.54791e-20 -2.2646e-34)
(2.07023e-05 -4.18471e-07 -1.47781e-20 -5.60935e-06 -6.05669e-21 0)
(1.69409e-05 5.44782e-07 1.54939e-21 -3.17949e-06 1.30742e-21 0)
(1.43446e-05 8.50929e-07 1.47075e-21 -1.92926e-06 1.09004e-21 0)
(1.25401e-05 1.01169e-06 -6.0758e-22 -1.1955e-06 -3.58734e-22 0)
(1.12233e-05 1.06841e-06 4.78185e-21 -8.15007e-07 1.75612e-21 0)
(1.02296e-05 1.09466e-06 2.63533e-22 -5.9393e-07 7.4494e-23 0)
(9.45002e-06 1.09653e-06 7.71728e-21 -4.88512e-07 2.96276e-21 0)
(8.82085e-06 1.07799e-06 1.70374e-21 -4.3007e-07 6.61045e-22 0)
(8.29211e-06 1.06923e-06 9.53799e-22 -4.22992e-07 3.89792e-22 0)
(2.79873e-05 2.22484e-06 -8.35623e-21 -9.12415e-06 -4.32934e-19 -1.88616e-33)
(2.02129e-05 2.40416e-06 -1.21413e-21 -3.69393e-06 -1.88219e-21 0)
(1.62592e-05 1.55908e-06 5.09979e-21 -1.64204e-06 2.15145e-21 0)
(1.37578e-05 1.03619e-06 2.67897e-22 -7.55674e-07 3.52123e-22 0)
(1.20917e-05 8.11667e-07 9.1037e-27 -3.65717e-07 8.28742e-27 0)
(1.08692e-05 7.03127e-07 4.85544e-21 -1.90636e-07 8.70568e-22 0)
(9.94051e-06 6.61161e-07 7.63731e-23 -1.08579e-07 1.99208e-23 0)
(9.19683e-06 6.40686e-07 3.72032e-21 -7.84831e-08 7.0372e-22 0)
(8.58861e-06 6.22229e-07 -4.16094e-23 -6.75255e-08 -1.3481e-24 0)
(8.06304e-06 6.10622e-07 -6.26463e-23 -7.29808e-08 -1.23811e-23 0)
(-2.55093e-08 1.86366e-08 2.76944e-20 -7.17693e-09 2.8834e-20 1.67641e-34)
(3.31938e-08 -6.9509e-08 -2.77636e-22 -1.10802e-08 2.40651e-20 1.4499e-36)
(3.21065e-07 -2.17275e-07 -3.55689e-21 -1.5024e-07 1.28905e-20 1.80313e-35)
(7.742e-07 -3.35739e-07 -1.98775e-24 -3.57285e-07 1.64808e-20 0)
(1.29567e-06 -4.09004e-07 -4.76361e-22 -5.87129e-07 1.04941e-20 -1.4152e-36)
(1.84047e-06 -4.50935e-07 -4.87788e-21 -8.23339e-07 1.52881e-20 2.91303e-35)
(2.37246e-06 -4.67624e-07 1.09715e-21 -1.05131e-06 2.07525e-20 1.36917e-36)
(2.8796e-06 -4.69208e-07 -3.23869e-21 -1.26675e-06 1.70518e-20 2.55948e-35)
(3.3448e-06 -4.57039e-07 2.61948e-21 -1.4651e-06 1.68967e-20 -1.02263e-35)
(3.77573e-06 -4.47013e-07 5.0105e-21 -1.64419e-06 7.84704e-21 -1.43459e-35)
(5.62243e-08 -7.48297e-08 2.84927e-20 -2.69261e-08 7.66018e-21 4.71436e-35)
(3.41406e-07 -4.01137e-07 3.93669e-21 -5.57319e-09 4.31812e-21 0)
(8.61121e-07 -7.61514e-07 -3.68423e-21 -2.21915e-07 -3.70027e-21 0)
(1.43848e-06 -1.03708e-06 3.5338e-23 -5.13416e-07 -3.06355e-21 0)
(2.01715e-06 -1.20669e-06 0 -8.03604e-07 0 0)
(2.56565e-06 -1.30189e-06 -5.59059e-21 -1.07683e-06 -8.29389e-22 0)
(3.071e-06 -1.3364e-06 9.40373e-22 -1.32272e-06 4.81213e-21 0)
(3.53535e-06 -1.33419e-06 7.01981e-23 -1.54288e-06 2.58914e-22 0)
(3.94455e-06 -1.29733e-06 -3.00558e-21 -1.73657e-06 -8.75221e-21 0)
(4.3246e-06 -1.26785e-06 2.20897e-21 -1.90136e-06 3.42322e-22 0)
(8.78832e-08 -3.64203e-07 3.37396e-20 1.03446e-07 6.59698e-21 -2.08984e-36)
(6.33815e-07 -9.99627e-07 4.0256e-21 3.17765e-08 4.26546e-21 0)
(1.36692e-06 -1.44569e-06 4.21017e-21 -3.04374e-07 8.82189e-22 0)
(2.08591e-06 -1.74487e-06 2.16131e-22 -7.21039e-07 -2.95457e-21 0)
(2.74723e-06 -1.90999e-06 0 -1.1048e-06 0 0)
(3.32899e-06 -1.98778e-06 -6.25505e-21 -1.44173e-06 -1.63277e-21 0)
(3.83442e-06 -1.99743e-06 -8.53232e-21 -1.72507e-06 -2.38917e-21 0)
(4.27888e-06 -1.96575e-06 5.6436e-21 -1.96381e-06 3.45155e-21 0)
(4.64835e-06 -1.8963e-06 3.41685e-23 -2.15872e-06 1.10252e-22 0)
(4.99309e-06 -1.83783e-06 -5.0756e-21 -2.31727e-06 -3.21007e-21 0)
(1.35366e-07 -8.17219e-07 6.21679e-20 4.13408e-07 1.33397e-20 -4.69443e-35)
(1.03388e-06 -1.71635e-06 9.91027e-22 7.05589e-08 -3.58162e-21 0)
(1.96457e-06 -2.18519e-06 4.62545e-21 -4.15298e-07 9.04972e-22 0)
(2.8121e-06 -2.44873e-06 0 -9.54879e-07 0 0)
(3.54625e-06 -2.55805e-06 -7.88464e-21 -1.42493e-06 2.93728e-21 0)
(4.16048e-06 -2.57866e-06 9.20602e-23 -1.82323e-06 7.272e-21 0)
(4.6686e-06 -2.53507e-06 -3.89918e-22 -2.14495e-06 -3.90695e-21 0)
(5.09778e-06 -2.454e-06 -1.12475e-21 -2.40585e-06 -6.03114e-21 0)
(5.43244e-06 -2.34112e-06 2.57558e-21 -2.60745e-06 8.35879e-22 0)
(5.74773e-06 -2.24566e-06 4.8077e-21 -2.76604e-06 1.80358e-21 0)
(2.58105e-07 -1.45692e-06 7.10258e-20 8.44078e-07 3.53049e-20 1.64812e-34)
(1.59632e-06 -2.4961e-06 -8.11585e-21 6.08351e-08 5.4397e-21 0)
(2.72474e-06 -2.91768e-06 -4.9237e-21 -6.27572e-07 -1.44965e-21 0)
(3.68194e-06 -3.09357e-06 -1.32888e-21 -1.30131e-06 5.32961e-21 0)
(4.46473e-06 -3.10562e-06 -5.2202e-23 -1.85002e-06 3.28792e-22 0)
(5.09083e-06 -3.03755e-06 7.59475e-21 -2.29734e-06 -2.03889e-21 0)
(5.58624e-06 -2.91799e-06 3.30798e-21 -2.64524e-06 8.68627e-22 0)
(5.98901e-06 -2.77137e-06 0 -2.91797e-06 0 0)
(6.28222e-06 -2.60645e-06 -3.52866e-21 -3.11834e-06 -4.6504e-21 0)
(6.56294e-06 -2.46617e-06 1.40932e-21 -3.2709e-06 3.41971e-22 0)
(5.25156e-07 -2.29755e-06 1.38503e-19 1.32851e-06 5.83267e-20 -3.1413e-34)
(2.33943e-06 -3.28605e-06 3.30936e-21 1.08515e-09 -6.4556e-21 0)
(3.65494e-06 -3.57632e-06 -4.0656e-21 -9.1815e-07 -4.3881e-21 0)
(4.69451e-06 -3.61947e-06 8.93932e-22 -1.72379e-06 -2.48159e-21 0)
(5.49533e-06 -3.50839e-06 8.60045e-21 -2.33478e-06 2.87995e-21 0)
(6.1067e-06 -3.33609e-06 -8.30009e-21 -2.81349e-06 9.2518e-22 0)
(6.56879e-06 -3.13109e-06 -9.63538e-24 -3.17247e-06 2.20446e-22 0)
(6.92853e-06 -2.91323e-06 -6.46287e-21 -3.44432e-06 -4.45555e-21 0)
(7.16981e-06 -2.69475e-06 1.34698e-23 -3.63532e-06 8.65356e-23 0)
(7.40598e-06 -2.50735e-06 -7.06028e-21 -3.77454e-06 -3.22857e-21 0)
(1.01365e-06 -3.32991e-06 2.58567e-19 1.76325e-06 1.3802e-19 -3.86255e-34)
(3.2696e-06 -4.05505e-06 1.83179e-22 -1.29234e-07 -2.77655e-22 0)
(4.73766e-06 -4.12121e-06 -1.34299e-25 -1.28013e-06 2.29383e-25 0)
(5.82266e-06 -3.98773e-06 -8.78218e-21 -2.20497e-06 -6.16066e-21 0)
(6.60757e-06 -3.73327e-06 -1.49395e-21 -2.85975e-06 3.99166e-21 0)
(7.1755e-06 -3.44833e-06 -8.05058e-21 -3.35182e-06 -3.27846e-21 0)
(7.58165e-06 -3.15558e-06 1.44737e-20 -3.70543e-06 6.45607e-21 0)
(7.87959e-06 -2.86761e-06 -2.08162e-24 -3.96288e-06 1.73147e-22 0)
(8.05762e-06 -2.59917e-06 2.85225e-21 -4.13473e-06 -1.30818e-23 0)
(8.23664e-06 -2.36615e-06 -3.8619e-21 -4.25284e-06 -1.83941e-21 0)
(1.79485e-06 -4.5161e-06 4.08206e-19 2.05245e-06 2.55012e-19 -8.49237e-34)
(4.38331e-06 -4.77304e-06 4.71769e-21 -3.3879e-07 -5.64014e-21 0)
(5.9382e-06 -4.52749e-06 -1.82255e-21 -1.68094e-06 2.42933e-21 0)
(7.01856e-06 -4.17804e-06 1.11524e-21 -2.69509e-06 -1.73741e-21 0)
(7.75075e-06 -3.76626e-06 9.95996e-26 -3.36968e-06 -1.95186e-25 0)
(8.24642e-06 -3.36727e-06 9.34734e-21 -3.85581e-06 7.89348e-22 0)
(8.57579e-06 -2.99119e-06 7.07984e-22 -4.18961e-06 -3.04571e-21 0)
(8.79481e-06 -2.64087e-06 -2.40571e-22 -4.42022e-06 2.50659e-21 0)
(8.90165e-06 -2.33106e-06 2.90988e-23 -4.56846e-06 1.25186e-21 0)
(9.01066e-06 -2.05835e-06 2.94772e-21 -4.65707e-06 2.75949e-21 0)
(2.9247e-06 -5.78515e-06 5.31167e-19 2.10431e-06 4.19455e-19 1.21556e-33)
(5.67146e-06 -5.40897e-06 -1.52191e-21 -6.44229e-07 1.03422e-20 0)
(7.21914e-06 -4.78401e-06 -1.76226e-25 -2.09989e-06 1.84789e-25 0)
(8.23339e-06 -4.18924e-06 1.20836e-20 -3.15805e-06 2.83774e-21 0)
(8.87255e-06 -3.61243e-06 9.22856e-21 -3.8216e-06 4.61028e-21 0)
(9.26718e-06 -3.10344e-06 8.32855e-21 -4.28144e-06 4.16098e-21 0)
(9.5e-06 -2.6521e-06 -9.19225e-22 -4.5796e-06 2.61758e-21 0)
(9.6244e-06 -2.25224e-06 -1.00325e-20 -4.77496e-06 -5.60811e-21 0)
(9.6543e-06 -1.91136e-06 6.16927e-21 -4.89222e-06 1.45848e-21 0)
(9.68495e-06 -1.60635e-06 2.76357e-21 -4.95919e-06 1.64287e-21 0)
(4.43103e-06 -7.04926e-06 6.3626e-19 1.85847e-06 5.89502e-19 1.83468e-34)
(7.11581e-06 -5.93549e-06 -3.05917e-21 -1.0488e-06 2.25983e-21 0)
(8.54007e-06 -4.89027e-06 -5.92818e-21 -2.51277e-06 -2.76611e-21 0)
(9.4178e-06 -4.03546e-06 2.57103e-20 -3.55593e-06 6.02018e-21 0)
(9.91996e-06 -3.29374e-06 1.581e-22 -4.1723e-06 -1.7911e-22 0)
(1.01845e-05 -2.68214e-06 -8.19035e-21 -4.58269e-06 -4.6519e-21 0)
(1.0302e-05 -2.1666e-06 -8.79297e-21 -4.83163e-06 -1.38163e-21 0)
(1.03178e-05 -1.73137e-06 -3.30826e-21 -4.97733e-06 -1.97914e-21 0)
(1.02741e-05 -1.37807e-06 3.82349e-22 -5.07152e-06 -2.74103e-21 0)
(1.02006e-05 -1.07136e-06 1.64255e-21 -5.07993e-06 3.46574e-21 0)
(4.16382e-06 -4.14534e-07 3.87993e-21 -1.81084e-06 4.42701e-21 1.69825e-37)
(4.50207e-06 -3.69816e-07 2.81193e-21 -1.94973e-06 -5.39469e-21 8.90625e-36)
(4.81282e-06 -3.30906e-07 -2.97285e-21 -2.07863e-06 -1.75506e-20 9.77809e-36)
(5.09232e-06 -2.95566e-07 -2.03543e-21 -2.19529e-06 -1.88371e-20 6.10484e-37)
(5.34448e-06 -2.62797e-07 -5.18422e-21 -2.30024e-06 -2.27715e-20 -4.60009e-35)
(5.57048e-06 -2.33444e-07 -8.354e-22 -2.39485e-06 -2.53005e-20 0)
(5.77308e-06 -2.06522e-07 -9.00774e-22 -2.47953e-06 -2.89077e-20 0)
(5.95369e-06 -1.82235e-07 7.17618e-22 -2.55528e-06 -3.00828e-20 -9.04879e-37)
(6.11441e-06 -1.59969e-07 5.18082e-22 -2.62271e-06 -3.4439e-20 2.57832e-35)
(6.25646e-06 -1.39574e-07 2.52928e-21 -2.68247e-06 -3.33897e-20 -1.79528e-36)
(6.38125e-06 -1.20608e-07 3.53684e-21 -2.73504e-06 -3.80506e-20 8.88498e-35)
(6.48966e-06 -1.02803e-07 -2.39782e-21 -2.78085e-06 -4.22517e-20 -3.12301e-35)
(6.58243e-06 -8.58121e-08 3.68846e-21 -2.82018e-06 -4.1607e-20 9.79528e-35)
(6.66007e-06 -6.93885e-08 -6.34602e-21 -2.85325e-06 -5.1155e-20 2.03094e-36)
(6.72277e-06 -5.33255e-08 -3.75555e-22 -2.88016e-06 -4.42656e-20 -3.5514e-35)
(6.77089e-06 -3.76037e-08 -6.26981e-22 -2.90102e-06 -4.67125e-20 8.56893e-45)
(6.80427e-06 -2.24482e-08 -2.43064e-21 -2.91577e-06 -4.95271e-20 3.91734e-37)
(6.82418e-06 -8.71776e-09 1.45979e-21 -2.92463e-06 -4.5445e-20 -2.83306e-37)
(6.83052e-06 1.78809e-09 6.04522e-22 -2.92731e-06 -5.05539e-20 1.11969e-34)
(6.82828e-06 4.25197e-09 -1.06683e-19 -2.92332e-06 -5.59297e-20 2.4979e-34)
(4.63716e-06 -1.1806e-06 5.39627e-21 -2.04993e-06 6.64164e-21 0)
(4.88781e-06 -1.0627e-06 3.50338e-21 -2.15594e-06 9.58321e-22 0)
(5.12751e-06 -9.58809e-07 2.66034e-22 -2.25357e-06 -1.51862e-21 0)
(5.34252e-06 -8.6185e-07 7.94804e-21 -2.34317e-06 7.171e-21 0)
(5.54052e-06 -7.70974e-07 -1.52958e-21 -2.42313e-06 -3.60226e-22 0)
(5.71926e-06 -6.88827e-07 -6.47833e-21 -2.49653e-06 -6.57463e-21 0)
(5.88204e-06 -6.12772e-07 3.30883e-21 -2.56239e-06 1.22201e-21 0)
(6.02861e-06 -5.43681e-07 0 -2.62227e-06 0 0)
(6.16089e-06 -4.79922e-07 1.5768e-21 -2.67611e-06 5.57177e-22 0)
(6.27924e-06 -4.2125e-07 3.24163e-21 -2.72464e-06 1.24676e-21 0)
(6.38484e-06 -3.66548e-07 9.71849e-21 -2.76807e-06 5.01618e-21 0)
(6.47819e-06 -3.1519e-07 4.37754e-23 -2.80675e-06 5.0167e-23 0)
(6.55998e-06 -2.66333e-07 1.26634e-21 -2.84084e-06 -9.83151e-22 0)
(6.63063e-06 -2.19401e-07 1.85131e-21 -2.87044e-06 2.12301e-21 0)
(6.69043e-06 -1.73934e-07 1.89923e-21 -2.89547e-06 2.18361e-21 0)
(6.73974e-06 -1.29922e-07 -1.88138e-21 -2.91567e-06 -2.17409e-21 0)
(6.77825e-06 -8.78916e-08 -1.892e-21 -2.93035e-06 -2.19868e-21 0)
(6.80642e-06 -4.96763e-08 -3.79954e-21 -2.9383e-06 -4.44124e-21 0)
(6.82203e-06 -1.80296e-08 -2.87556e-23 -2.93674e-06 -3.15415e-23 0)
(6.82584e-06 -1.23047e-09 -9.86327e-20 -2.92119e-06 1.89867e-21 -2.16522e-34)
(5.2337e-06 -1.70722e-06 1.47607e-21 -2.43961e-06 2.02234e-21 0)
(5.39125e-06 -1.54671e-06 2.01622e-21 -2.50251e-06 7.18963e-22 0)
(5.55448e-06 -1.40268e-06 -4.67819e-21 -2.55528e-06 -5.90251e-21 0)
(5.6975e-06 -1.26894e-06 -4.22302e-22 -2.60532e-06 1.07837e-21 0)
(5.83459e-06 -1.14152e-06 8.53959e-21 -2.648e-06 7.11654e-21 0)
(5.95882e-06 -1.02582e-06 -6.78139e-21 -2.68887e-06 -6.48356e-21 0)
(6.07525e-06 -9.17551e-07 -1.80434e-21 -2.72566e-06 -2.09421e-21 0)
(6.18143e-06 -8.18608e-07 3.44846e-21 -2.7604e-06 3.93088e-21 0)
(6.27958e-06 -7.26732e-07 2.21937e-23 -2.79257e-06 -2.5537e-21 0)
(6.36899e-06 -6.41891e-07 -3.64871e-21 -2.8228e-06 -4.11216e-21 0)
(6.45069e-06 -5.62698e-07 3.49623e-21 -2.85106e-06 3.92625e-21 0)
(6.52467e-06 -4.88473e-07 5.40235e-21 -2.87753e-06 6.07035e-21 0)
(6.59143e-06 -4.18205e-07 4.13377e-23 -2.90214e-06 4.5664e-23 0)
(6.65112e-06 -3.51191e-07 -1.84968e-21 -2.92476e-06 -2.09049e-21 0)
(6.70381e-06 -2.86811e-07 1.83102e-21 -2.94495e-06 2.08194e-21 0)
(6.74955e-06 -2.24835e-07 2.69931e-28 -2.96187e-06 3.01304e-28 0)
(6.78733e-06 -1.65415e-07 -1.88638e-21 -2.97388e-06 -2.17195e-21 0)
(6.81672e-06 -1.09495e-07 2.51884e-22 -2.97832e-06 1.57001e-21 0)
(6.83285e-06 -5.87925e-08 -6.2206e-21 -2.96962e-06 -7.93526e-22 0)
(6.83543e-06 -1.55832e-08 -9.75609e-20 -2.94157e-06 -1.3859e-21 -1.61072e-37)
(5.91761e-06 -2.0786e-06 0 -2.86456e-06 0 0)
(5.97868e-06 -1.89485e-06 2.15532e-21 -2.8878e-06 7.84942e-22 0)
(6.06444e-06 -1.72536e-06 1.68506e-21 -2.8981e-06 1.92952e-21 0)
(6.1323e-06 -1.57073e-06 1.84913e-21 -2.91115e-06 2.14538e-21 0)
(6.20539e-06 -1.42021e-06 0 -2.91738e-06 0 0)
(6.27094e-06 -1.28354e-06 2.5301e-22 -2.92584e-06 -1.08363e-21 0)
(6.33695e-06 -1.15405e-06 -5.53996e-21 -2.93297e-06 -3.40315e-21 0)
(6.39839e-06 -1.03516e-06 -3.53137e-21 -2.94145e-06 -3.8459e-21 0)
(6.45818e-06 -9.24002e-07 -1.98844e-21 -2.95046e-06 -9.17235e-22 0)
(6.51443e-06 -8.20967e-07 -1.80887e-23 -2.96062e-06 2.46121e-21 0)
(6.56813e-06 -7.24544e-07 -1.75288e-21 -2.97172e-06 5.42249e-22 0)
(6.61864e-06 -6.34126e-07 3.65941e-21 -2.98377e-06 1.56785e-21 0)
(6.66623e-06 -5.48637e-07 3.47777e-21 -2.99652e-06 1.69355e-22 0)
(6.71064e-06 -4.67292e-07 8.08873e-23 -3.00958e-06 1.31603e-21 0)
(6.75156e-06 -3.89306e-07 1.46065e-22 -3.02218e-06 1.39512e-21 0)
(6.78863e-06 -3.1409e-07 -1.86526e-21 -3.03312e-06 -2.10384e-21 0)
(6.82019e-06 -2.4126e-07 -3.98371e-28 -3.04018e-06 -4.49566e-28 0)
(6.84537e-06 -1.70349e-07 3.97368e-21 -3.04021e-06 5.84984e-21 0)
(6.85801e-06 -1.01972e-07 -1.98473e-22 -3.02697e-06 -1.53938e-21 0)
(6.85839e-06 -3.11737e-08 -1.06256e-19 -2.99409e-06 -9.71278e-21 3.10454e-34)
(6.65911e-06 -2.2707e-06 1.60827e-22 -3.33906e-06 2.6951e-21 0)
(6.62017e-06 -2.08627e-06 -2.34159e-21 -3.32176e-06 -1.02333e-21 0)
(6.62808e-06 -1.90636e-06 -5.88494e-21 -3.28607e-06 -4.80198e-21 0)
(6.6188e-06 -1.74791e-06 3.87545e-21 -3.26059e-06 2.64032e-21 0)
(6.62684e-06 -1.5887e-06 1.00859e-20 -3.22814e-06 6.62992e-21 0)
(6.6315e-06 -1.44478e-06 -1.85106e-21 -3.20172e-06 -1.93909e-21 0)
(6.64492e-06 -1.30634e-06 0 -3.17656e-06 0 0)
(6.65894e-06 -1.17854e-06 1.80257e-21 -3.15588e-06 1.88011e-21 0)
(6.67755e-06 -1.05807e-06 -5.81094e-21 -3.13887e-06 -2.48108e-21 0)
(6.69762e-06 -9.4579e-07 -3.76645e-21 -3.12604e-06 -2.7786e-21 0)
(6.72016e-06 -8.40288e-07 2.17484e-22 -3.11719e-06 -2.14725e-21 0)
(6.74396e-06 -7.41092e-07 -1.89276e-21 -3.11217e-06 -3.21486e-21 0)
(6.76899e-06 -6.47181e-07 -2.03544e-22 -3.11061e-06 3.37855e-21 0)
(6.79462e-06 -5.57698e-07 3.70281e-21 -3.11192e-06 5.23821e-21 0)
(6.82021e-06 -4.71688e-07 1.80825e-21 -3.11515e-06 7.69874e-22 0)
(6.84506e-06 -3.88091e-07 -6.43302e-23 -3.11889e-06 -1.30702e-21 0)
(6.86714e-06 -3.0595e-07 3.50529e-21 -3.12075e-06 1.43944e-21 0)
(6.88539e-06 -2.23233e-07 1.72408e-21 -3.11756e-06 6.90743e-22 0)
(6.89354e-06 -1.3988e-07 7.06793e-21 -3.10345e-06 5.5865e-21 0)
(6.89225e-06 -4.48918e-08 -9.30299e-20 -3.07259e-06 3.79296e-21 -3.04866e-34)
(7.426e-06 -2.29347e-06 1.37811e-21 -3.80971e-06 1.89845e-21 0)
(7.28619e-06 -2.13214e-06 3.31215e-23 -3.75793e-06 7.29132e-23 0)
(7.2187e-06 -1.95623e-06 -4.25538e-21 -3.67898e-06 -2.95237e-21 0)
(7.13243e-06 -1.80956e-06 -1.02181e-20 -3.61805e-06 -7.65665e-21 0)
(7.07665e-06 -1.65463e-06 3.99264e-21 -3.54985e-06 2.72274e-21 0)
(7.0205e-06 -1.51513e-06 3.75494e-21 -3.49031e-06 3.73589e-21 0)
(6.98122e-06 -1.37845e-06 -1.8397e-21 -3.43449e-06 -1.83318e-21 0)
(6.94718e-06 -1.25124e-06 -2.98578e-22 -3.38541e-06 8.22558e-22 0)
(6.92345e-06 -1.1302e-06 8.08059e-21 -3.34263e-06 4.81484e-21 0)
(6.90582e-06 -1.0165e-06 -5.39433e-21 -3.30648e-06 -5.51626e-21 0)
(6.89526e-06 -9.09023e-07 -1.91873e-21 -3.27689e-06 -1.98671e-21 0)
(6.8901e-06 -8.07431e-07 5.20856e-21 -3.25365e-06 7.74671e-21 0)
(6.89009e-06 -7.10862e-07 -7.6379e-21 -3.23643e-06 -2.26909e-21 0)
(6.8943e-06 -6.18431e-07 -5.43035e-21 -3.22463e-06 -5.81527e-21 0)
(6.9019e-06 -5.29095e-07 1.71245e-23 -3.21734e-06 -1.17557e-21 0)
(6.91195e-06 -4.41385e-07 -7.32448e-21 -3.21322e-06 -5.60891e-21 0)
(6.92247e-06 -3.53899e-07 -5.32896e-23 -3.21014e-06 -5.01821e-23 0)
(6.93232e-06 -2.63263e-07 7.19474e-21 -3.2054e-06 6.88842e-21 0)
(6.93629e-06 -1.69039e-07 1.09257e-22 -3.1943e-06 1.42312e-21 0)
(6.93465e-06 -5.5584e-08 -9.31158e-20 -3.17187e-06 -1.12729e-21 2.18373e-36)
(8.18104e-06 -2.14694e-06 -1.44388e-21 -4.25225e-06 -1.85749e-21 0)
(7.94485e-06 -2.03441e-06 1.99707e-21 -4.17551e-06 1.82648e-21 0)
(7.80931e-06 -1.87752e-06 2.46788e-21 -4.06068e-06 1.28956e-21 0)
(7.64976e-06 -1.75743e-06 -1.94835e-21 -3.96861e-06 -1.83063e-21 0)
(7.53396e-06 -1.62063e-06 -4.62156e-21 -3.8697e-06 -2.30848e-21 0)
(7.41952e-06 -1.49667e-06 2.2563e-21 -3.77915e-06 1.12194e-21 0)
(7.32879e-06 -1.37225e-06 6.38324e-21 -3.69435e-06 4.10966e-21 0)
(7.24762e-06 -1.25423e-06 -1.02692e-20 -3.61753e-06 -6.89968e-21 0)
(7.18162e-06 -1.14041e-06 -6.33468e-21 -3.54927e-06 -4.17509e-21 0)
(7.12613e-06 -1.03205e-06 9.94211e-21 -3.48978e-06 6.73665e-21 0)
(7.08182e-06 -9.28743e-07 -4.05752e-21 -3.43925e-06 -1.93921e-21 0)
(7.0468e-06 -8.30315e-07 5.36637e-21 -3.3975e-06 5.50883e-21 0)
(7.02055e-06 -7.36201e-07 5.78563e-21 -3.36426e-06 3.77065e-21 0)
(7.00196e-06 -6.45561e-07 -3.36849e-21 -3.33902e-06 -4.70639e-21 0)
(6.99011e-06 -5.57342e-07 -2.21249e-21 -3.32103e-06 1.14675e-21 0)
(6.98394e-06 -4.69783e-07 1.04329e-22 -3.30924e-06 9.63916e-23 0)
(6.98187e-06 -3.81184e-07 -8.9233e-21 -3.30203e-06 -7.43343e-21 0)
(6.98263e-06 -2.87178e-07 1.77024e-21 -3.29744e-06 1.99331e-21 0)
(6.98293e-06 -1.87165e-07 3.51322e-21 -3.29237e-06 2.75061e-21 0)
(6.98195e-06 -6.24618e-08 -9.42364e-20 -3.28308e-06 -1.83369e-21 8.83853e-37)
(8.88486e-06 -1.84193e-06 1.71714e-23 -4.62791e-06 5.91906e-23 0)
(8.56358e-06 -1.80325e-06 -2.06457e-21 -4.53859e-06 -1.81943e-21 0)
(8.37153e-06 -1.68162e-06 4.45911e-22 -4.40308e-06 -4.8266e-22 0)
(8.14674e-06 -1.59807e-06 0 -4.2854e-06 0 0)
(7.977e-06 -1.49173e-06 0 -4.16534e-06 0 0)
(7.81104e-06 -1.39201e-06 -6.18534e-21 -4.05084e-06 -4.84926e-21 0)
(7.67288e-06 -1.28944e-06 5.50045e-21 -3.94342e-06 5.13925e-21 0)
(7.54825e-06 -1.18898e-06 1.15992e-20 -3.84361e-06 1.01323e-20 0)
(7.44194e-06 -1.09024e-06 -8.77131e-21 -3.753e-06 -8.44112e-21 0)
(7.34983e-06 -9.94203e-07 -7.68661e-21 -3.67203e-06 -6.55502e-21 0)
(7.27213e-06 -9.012e-07 3.54307e-21 -3.60132e-06 3.53096e-21 0)
(7.20713e-06 -8.11329e-07 -3.50241e-22 -3.54107e-06 7.00538e-22 0)
(7.15413e-06 -7.24418e-07 6.07403e-21 -3.49137e-06 2.99975e-21 0)
(7.11199e-06 -6.39839e-07 9.45483e-21 -3.45205e-06 6.5431e-21 0)
(7.07986e-06 -5.56681e-07 1.28956e-22 -3.42277e-06 1.18016e-22 0)
(7.05666e-06 -4.7312e-07 4.31651e-21 -3.40296e-06 -1.18234e-21 0)
(7.04144e-06 -3.87358e-07 0 -3.39183e-06 0 0)
(7.03285e-06 -2.94487e-07 -3.62498e-21 -3.38829e-06 -1.59856e-21 0)
(7.03009e-06 -1.93889e-07 1.74412e-21 -3.39119e-06 7.36775e-22 0)
(7.03068e-06 -6.5344e-08 -9.02722e-20 -3.39822e-06 -3.85392e-22 2.31742e-36)
(9.50754e-06 -1.40794e-06 -1.33918e-23 -4.9095e-06 -5.17662e-23 0)
(9.1133e-06 -1.4566e-06 2.56524e-21 -4.81641e-06 1.53361e-21 0)
(8.88182e-06 -1.39531e-06 -2.55148e-21 -4.69151e-06 -1.55459e-21 0)
(8.60668e-06 -1.35541e-06 -2.51141e-21 -4.55815e-06 -1.51413e-21 0)
(8.38829e-06 -1.29227e-06 6.89325e-21 -4.42463e-06 4.70605e-21 0)
(8.17842e-06 -1.22273e-06 4.9126e-21 -4.29055e-06 2.9337e-21 0)
(7.99692e-06 -1.14698e-06 -6.52334e-21 -4.16326e-06 -4.36909e-21 0)
(7.83345e-06 -1.06785e-06 8.72867e-22 -4.04355e-06 -9.20064e-22 0)
(7.69041e-06 -9.87543e-07 1.47961e-21 -3.93359e-06 1.37488e-21 0)
(7.5648e-06 -9.07261e-07 -8.10467e-22 -3.83421e-06 1.08477e-21 0)
(7.45613e-06 -8.28035e-07 -6.62705e-21 -3.74618e-06 -3.63298e-21 0)
(7.36293e-06 -7.50304e-07 5.9216e-23 -3.66999e-06 5.72363e-23 0)
(7.28436e-06 -6.74204e-07 -3.02252e-21 -3.60595e-06 -4.12833e-21 0)
(7.21937e-06 -5.99335e-07 -1.02279e-22 -3.55425e-06 -9.3712e-23 0)
(7.1673e-06 -5.24944e-07 3.87202e-21 -3.51503e-06 1.88372e-21 0)
(7.12715e-06 -4.4929e-07 -7.71303e-23 -3.48827e-06 -6.74987e-23 0)
(7.09882e-06 -3.70604e-07 4.70724e-21 -3.47415e-06 6.33376e-21 0)
(7.08084e-06 -2.83864e-07 -1.78291e-21 -3.47262e-06 -7.96615e-22 0)
(7.07531e-06 -1.88437e-07 -8.33852e-21 -3.48458e-06 -8.26718e-21 0)
(7.07773e-06 -6.39918e-08 -9.98084e-20 -3.50943e-06 -6.86911e-21 1.72893e-34)
(1.00038e-05 -8.51152e-07 -3.27327e-22 -5.09298e-06 -1.64921e-22 0)
(9.595e-06 -9.57929e-07 -2.75099e-21 -4.97884e-06 -1.62165e-21 0)
(9.33043e-06 -9.8286e-07 2.23142e-21 -4.89259e-06 1.75436e-21 0)
(9.03596e-06 -9.92788e-07 -5.83711e-21 -4.77114e-06 -5.32671e-21 0)
(8.7781e-06 -9.87738e-07 -6.00815e-21 -4.64478e-06 -5.00306e-21 0)
(8.53428e-06 -9.65219e-07 3.55168e-21 -4.50947e-06 3.67807e-21 0)
(8.31378e-06 -9.30544e-07 3.08524e-21 -4.3732e-06 3.69177e-21 0)
(8.11363e-06 -8.85703e-07 5.38475e-21 -4.24015e-06 4.86282e-21 0)
(7.93486e-06 -8.33825e-07 -6.3225e-21 -4.11377e-06 -4.72529e-21 0)
(7.77602e-06 -7.77231e-07 1.5045e-23 -3.9967e-06 1.29806e-22 0)
(7.63652e-06 -7.17801e-07 -7.52967e-23 -3.89072e-06 -3.86987e-22 0)
(7.5151e-06 -6.56869e-07 -4.94028e-21 -3.79719e-06 -4.83952e-21 0)
(7.41093e-06 -5.95238e-07 0 -3.71707e-06 0 0)
(7.32297e-06 -5.33096e-07 -4.48825e-21 -3.65115e-06 -1.45496e-21 0)
(7.25074e-06 -4.70135e-07 -2.06587e-23 -3.60018e-06 -8.93958e-23 0)
(7.19331e-06 -4.05001e-07 -5.79087e-21 -3.56486e-06 -2.81659e-21 0)
(7.15147e-06 -3.36195e-07 1.58281e-21 -3.5464e-06 1.67366e-21 0)
(7.12371e-06 -2.59067e-07 3.6526e-21 -3.5459e-06 1.6691e-21 0)
(7.11519e-06 -1.73055e-07 4.55001e-23 -3.56652e-06 -3.75631e-24 0)
(7.11967e-06 -5.90446e-08 -9.76168e-20 -3.60947e-06 -3.04255e-21 7.24231e-37)
(1.02472e-05 -3.91682e-07 2.82573e-21 -5.10891e-06 2.49047e-21 0)
(9.8747e-06 -4.48318e-07 -2.61805e-21 -5.01295e-06 -1.64588e-21 0)
(9.58834e-06 -5.53884e-07 -1.51511e-21 -4.95237e-06 -1.25953e-21 0)
(9.29599e-06 -6.03759e-07 2.51591e-21 -4.85378e-06 1.53796e-21 0)
(9.02511e-06 -6.38958e-07 -4.97704e-21 -4.73825e-06 -2.2591e-21 0)
(8.76802e-06 -6.54781e-07 -3.35615e-21 -4.61153e-06 -1.58369e-21 0)
(8.53084e-06 -6.55349e-07 -4.17884e-21 -4.47889e-06 -3.03498e-21 0)
(8.31209e-06 -6.43315e-07 5.06983e-22 -4.34596e-06 -3.51171e-22 0)
(8.11361e-06 -6.21083e-07 8.45116e-21 -4.21673e-06 5.38832e-21 0)
(7.93457e-06 -5.91181e-07 -2.90099e-22 -4.09457e-06 -3.1279e-22 0)
(7.77505e-06 -5.55569e-07 4.51863e-21 -3.98202e-06 2.55853e-21 0)
(7.63423e-06 -5.15895e-07 -2.22396e-22 -3.88106e-06 -2.52695e-22 0)
(7.51168e-06 -4.7329e-07 1.64808e-35 -3.79331e-06 1.67755e-35 0)
(7.40665e-06 -4.2834e-07 -1.98716e-21 -3.72015e-06 -9.89241e-22 0)
(7.31908e-06 -3.81135e-07 1.94265e-21 -3.66302e-06 9.45014e-22 0)
(7.24826e-06 -3.3085e-07 -8.68892e-23 -3.62332e-06 -1.26018e-22 0)
(7.19585e-06 -2.76424e-07 3.12854e-22 -3.60327e-06 -8.20377e-22 0)
(7.16028e-06 -2.14243e-07 1.74028e-23 -3.60493e-06 5.85098e-23 0)
(7.14914e-06 -1.4392e-07 -1.80864e-23 -3.63338e-06 2.3338e-23 0)
(7.15466e-06 -4.92073e-08 -9.3987e-20 -3.6916e-06 -5.09775e-22 -8.36499e-37)
(1.00448e-05 6.00812e-08 2.62598e-21 -4.92306e-06 2.07862e-21 0)
(9.79625e-06 -5.35802e-09 0 -4.95013e-06 0 0)
(9.5369e-06 -1.34395e-07 -2.04736e-21 -4.90343e-06 -1.80715e-21 0)
(9.27767e-06 -2.18977e-07 2.67763e-35 -4.8286e-06 2.17044e-35 0)
(9.03036e-06 -2.85654e-07 6.13997e-36 -4.7297e-06 4.45658e-36 0)
(8.79152e-06 -3.3296e-07 2.91167e-35 -4.61685e-06 2.16688e-35 0)
(8.56732e-06 -3.63594e-07 4.46478e-35 -4.49529e-06 3.61209e-35 0)
(8.35693e-06 -3.80274e-07 -1.79405e-21 -4.37079e-06 -1.68487e-21 0)
(8.16293e-06 -3.85156e-07 0 -4.2476e-06 0 0)
(7.98522e-06 -3.80635e-07 1.71425e-21 -4.12943e-06 1.66485e-21 0)
(7.82459e-06 -3.68605e-07 -2.44592e-36 -4.01915e-06 -4.13352e-36 0)
(7.68086e-06 -3.5075e-07 -1.64891e-21 -3.91919e-06 -1.65826e-21 0)
(7.5542e-06 -3.28294e-07 1.62172e-21 -3.83157e-06 1.6592e-21 0)
(7.44436e-06 -3.02056e-07 2.33242e-35 -3.75811e-06 1.69982e-35 0)
(7.35183e-06 -2.72351e-07 -1.57828e-21 -3.70073e-06 -1.66865e-21 0)
(7.27633e-06 -2.38915e-07 -1.40009e-35 -3.66137e-06 -1.29658e-35 0)
(7.22022e-06 -2.01006e-07 1.55002e-21 -3.64293e-06 1.68847e-21 0)
(7.1822e-06 -1.5636e-07 1.54186e-21 -3.64813e-06 1.70324e-21 0)
(7.17167e-06 -1.05053e-07 -1.66617e-35 -3.68357e-06 -1.45488e-35 0)