/*--------------------------------*- C++ -*----------------------------------*\
  =========                 |
  \\      /  F ield         | OpenFOAM: The Open Source CFD Toolbox
   \\    /   O peration     | Website:  https://openfoam.org
    \\  /    A nd           | Version:  9
     \\/     M anipulation  |
\*---------------------------------------------------------------------------*/
FoamFile
{
    format      ascii;
    class       pointVectorField;
    location    "15";
    object      pointD;
}
// * * * * * * * * * * * * * * * * * * * * * * * * * * * * * * * * * * * * * //

dimensions      [0 1 0 0 0 0 0];

internalField   nonuniform List<vector> 
2142
(
(1.11385e-05 3.27372e-06 -9.84169e-20)
(1.03263e-05 3.78713e-06 0)
(9.75744e-06 4.15422e-06 0)
(9.34266e-06 4.4529e-06 0)
(9.04367e-06 4.69755e-06 0)
(8.83122e-06 4.9083e-06 0)
(8.68429e-06 5.09361e-06 0)
(8.58808e-06 5.26114e-06 0)
(8.5311e-06 5.41541e-06 0)
(8.50498e-06 5.55954e-06 0)
(8.50916e-06 5.71604e-06 0)
(1.01821e-05 3.00372e-06 -1.09974e-19)
(9.32063e-06 3.40938e-06 0)
(8.72277e-06 3.69462e-06 0)
(8.28931e-06 3.92929e-06 0)
(7.97762e-06 4.12084e-06 0)
(7.75583e-06 4.28663e-06 0)
(7.60106e-06 4.43251e-06 0)
(7.49762e-06 4.56494e-06 0)
(7.433e-06 4.68694e-06 0)
(7.39854e-06 4.80223e-06 0)
(7.25003e-06 4.80786e-06 0)
(9.19009e-06 2.73418e-06 -1.10566e-19)
(8.29964e-06 3.02304e-06 0)
(7.68865e-06 3.22049e-06 0)
(7.24804e-06 3.38826e-06 0)
(6.93237e-06 3.52595e-06 0)
(6.70801e-06 3.64716e-06 0)
(6.55072e-06 3.75469e-06 0)
(6.44408e-06 3.8533e-06 0)
(6.37517e-06 3.94436e-06 0)
(6.33464e-06 4.03141e-06 0)
(6.20151e-06 4.02231e-06 0)
(8.16184e-06 2.46996e-06 -1.09563e-19)
(7.26925e-06 2.63467e-06 0)
(6.66245e-06 2.74231e-06 0)
(6.2273e-06 2.84256e-06 0)
(5.9173e-06 2.92759e-06 0)
(5.69783e-06 3.00621e-06 0)
(5.54392e-06 3.07803e-06 0)
(5.43885e-06 3.14572e-06 0)
(5.36968e-06 3.20898e-06 0)
(5.32689e-06 3.27048e-06 0)
(5.21187e-06 3.25143e-06 0)
(7.09782e-06 2.21928e-06 -1.11199e-19)
(6.23506e-06 2.25266e-06 0)
(5.64973e-06 2.27185e-06 0)
(5.2333e-06 2.306e-06 0)
(4.93924e-06 2.3414e-06 0)
(4.73256e-06 2.38093e-06 0)
(4.58829e-06 2.42093e-06 0)
(4.48971e-06 2.46163e-06 0)
(4.42429e-06 2.50103e-06 0)
(4.38264e-06 2.54058e-06 0)
(4.28663e-06 2.51603e-06 0)
(6.00931e-06 1.97867e-06 -1.04035e-19)
(5.20084e-06 1.88398e-06 0)
(4.65369e-06 1.81887e-06 0)
(4.26984e-06 1.79179e-06 0)
(4.00263e-06 1.78295e-06 0)
(3.81706e-06 1.78899e-06 0)
(3.68874e-06 1.80267e-06 0)
(3.6014e-06 1.82157e-06 0)
(3.54336e-06 1.84205e-06 0)
(3.50572e-06 1.86418e-06 0)
(3.42868e-06 1.83845e-06 0)
(4.89842e-06 1.73779e-06 -7.93469e-20)
(4.16579e-06 1.53126e-06 0)
(3.67393e-06 1.39006e-06 0)
(3.33816e-06 1.3115e-06 0)
(3.1094e-06 1.26724e-06 0)
(2.95347e-06 1.24802e-06 0)
(2.84713e-06 1.24262e-06 0)
(2.77534e-06 1.24615e-06 0)
(2.72773e-06 1.25348e-06 0)
(2.69639e-06 1.26339e-06 0)
(2.63758e-06 1.2405e-06 0)
(3.78079e-06 1.48909e-06 -5.1713e-20)
(3.13217e-06 1.19012e-06 0)
(2.71198e-06 9.89637e-07 0)
(2.44075e-06 8.75763e-07 0)
(2.26181e-06 8.09805e-07 0)
(2.14314e-06 7.76494e-07 0)
(2.06362e-06 7.60993e-07 0)
(2.01048e-06 7.56448e-07 0)
(1.97531e-06 7.56802e-07 0)
(1.95175e-06 7.59934e-07 0)
(1.90985e-06 7.43136e-07 0)
(2.63303e-06 1.23299e-06 -1.4916e-20)
(2.09002e-06 8.49689e-07 0)
(1.76867e-06 6.18859e-07 0)
(1.57917e-06 4.95242e-07 0)
(1.45995e-06 4.27343e-07 0)
(1.3839e-06 3.93789e-07 0)
(1.33387e-06 3.7796e-07 0)
(1.30073e-06 3.72387e-07 0)
(1.27868e-06 3.71221e-07 0)
(1.26346e-06 3.7219e-07 0)
(1.23679e-06 3.63133e-07 0)
(1.52478e-06 9.32241e-07 2.70253e-20)
(1.04278e-06 4.97664e-07 0)
(8.57872e-07 2.93629e-07 0)
(7.64677e-07 1.97502e-07 0)
(7.09352e-07 1.51157e-07 0)
(6.75186e-07 1.30486e-07 0)
(6.52802e-07 1.21943e-07 0)
(6.37899e-07 1.19719e-07 0)
(6.27747e-07 1.19907e-07 0)
(6.20397e-07 1.21021e-07 0)
(6.07263e-07 1.18511e-07 0)
(5.05382e-07 3.80249e-07 2.21045e-20)
(0 0 0)
(0 0 0)
(0 0 0)
(0 0 0)
(0 0 0)
(0 0 0)
(0 0 0)
(0 0 0)
(0 0 0)
(0 0 0)
(1.11385e-05 3.27372e-06 -9.84169e-20)
(1.03263e-05 3.78713e-06 0)
(9.75744e-06 4.15422e-06 0)
(9.34266e-06 4.4529e-06 0)
(9.04367e-06 4.69755e-06 0)
(8.83122e-06 4.9083e-06 0)
(8.68429e-06 5.09361e-06 0)
(8.58808e-06 5.26114e-06 0)
(8.5311e-06 5.41541e-06 0)
(8.50498e-06 5.55954e-06 0)
(8.50916e-06 5.71604e-06 0)
(1.01821e-05 3.00372e-06 -1.09974e-19)
(9.32063e-06 3.40938e-06 0)
(8.72277e-06 3.69462e-06 0)
(8.28931e-06 3.92929e-06 0)
(7.97762e-06 4.12084e-06 0)
(7.75583e-06 4.28663e-06 0)
(7.60106e-06 4.43251e-06 0)
(7.49762e-06 4.56494e-06 0)
(7.433e-06 4.68694e-06 0)
(7.39854e-06 4.80223e-06 0)
(7.25003e-06 4.80786e-06 0)
(9.19009e-06 2.73418e-06 -1.10566e-19)
(8.29964e-06 3.02304e-06 0)
(7.68865e-06 3.22049e-06 0)
(7.24804e-06 3.38826e-06 0)
(6.93237e-06 3.52595e-06 0)
(6.70801e-06 3.64716e-06 0)
(6.55072e-06 3.75469e-06 0)
(6.44408e-06 3.8533e-06 0)
(6.37517e-06 3.94436e-06 0)
(6.33464e-06 4.03141e-06 0)
(6.20151e-06 4.02231e-06 0)
(8.16184e-06 2.46996e-06 -1.09563e-19)
(7.26925e-06 2.63467e-06 0)
(6.66245e-06 2.74231e-06 0)
(6.2273e-06 2.84256e-06 0)
(5.9173e-06 2.92759e-06 0)
(5.69783e-06 3.00621e-06 0)
(5.54392e-06 3.07803e-06 0)
(5.43885e-06 3.14572e-06 0)
(5.36968e-06 3.20898e-06 0)
(5.32689e-06 3.27048e-06 0)
(5.21187e-06 3.25143e-06 0)
(7.09782e-06 2.21928e-06 -1.11199e-19)
(6.23506e-06 2.25266e-06 0)
(5.64973e-06 2.27185e-06 0)
(5.2333e-06 2.306e-06 0)
(4.93924e-06 2.3414e-06 0)
(4.73256e-06 2.38093e-06 0)
(4.58829e-06 2.42093e-06 0)
(4.48971e-06 2.46163e-06 0)
(4.42429e-06 2.50103e-06 0)
(4.38264e-06 2.54058e-06 0)
(4.28663e-06 2.51603e-06 0)
(6.00931e-06 1.97867e-06 -1.04035e-19)
(5.20084e-06 1.88398e-06 0)
(4.65369e-06 1.81887e-06 0)
(4.26984e-06 1.79179e-06 0)
(4.00263e-06 1.78295e-06 0)
(3.81706e-06 1.78899e-06 0)
(3.68874e-06 1.80267e-06 0)
(3.6014e-06 1.82157e-06 0)
(3.54336e-06 1.84205e-06 0)
(3.50572e-06 1.86418e-06 0)
(3.42868e-06 1.83845e-06 0)
(4.89842e-06 1.73779e-06 -7.93469e-20)
(4.16579e-06 1.53126e-06 0)
(3.67393e-06 1.39006e-06 0)
(3.33816e-06 1.3115e-06 0)
(3.1094e-06 1.26724e-06 0)
(2.95347e-06 1.24802e-06 0)
(2.84713e-06 1.24262e-06 0)
(2.77534e-06 1.24615e-06 0)
(2.72773e-06 1.25348e-06 0)
(2.69639e-06 1.26339e-06 0)
(2.63758e-06 1.2405e-06 0)
(3.78079e-06 1.48909e-06 -5.1713e-20)
(3.13217e-06 1.19012e-06 0)
(2.71198e-06 9.89637e-07 0)
(2.44075e-06 8.75763e-07 0)
(2.26181e-06 8.09805e-07 0)
(2.14314e-06 7.76494e-07 0)
(2.06362e-06 7.60993e-07 0)
(2.01048e-06 7.56448e-07 0)
(1.97531e-06 7.56802e-07 0)
(1.95175e-06 7.59934e-07 0)
(1.90985e-06 7.43136e-07 0)
(2.63303e-06 1.23299e-06 -1.4916e-20)
(2.09002e-06 8.49689e-07 0)
(1.76867e-06 6.18859e-07 0)
(1.57917e-06 4.95242e-07 0)
(1.45995e-06 4.27343e-07 0)
(1.3839e-06 3.93789e-07 0)
(1.33387e-06 3.7796e-07 0)
(1.30073e-06 3.72387e-07 0)
(1.27868e-06 3.71221e-07 0)
(1.26346e-06 3.7219e-07 0)
(1.23679e-06 3.63133e-07 0)
(1.52478e-06 9.32241e-07 2.70253e-20)
(1.04278e-06 4.97664e-07 0)
(8.57872e-07 2.93629e-07 0)
(7.64677e-07 1.97502e-07 0)
(7.09352e-07 1.51157e-07 0)
(6.75186e-07 1.30486e-07 0)
(6.52802e-07 1.21943e-07 0)
(6.37899e-07 1.19719e-07 0)
(6.27747e-07 1.19907e-07 0)
(6.20397e-07 1.21021e-07 0)
(6.07263e-07 1.18511e-07 0)
(5.05382e-07 3.80249e-07 2.21045e-20)
(0 0 0)
(0 0 0)
(0 0 0)
(0 0 0)
(0 0 0)
(0 0 0)
(0 0 0)
(0 0 0)
(0 0 0)
(0 0 0)
(1.80707e-05 5.36663e-06 -2.58717e-21)
(1.81997e-05 5.8854e-06 -1.43509e-21)
(1.8184e-05 6.55244e-06 -1.56536e-21)
(1.81735e-05 7.17128e-06 -1.68642e-21)
(1.81844e-05 7.74089e-06 -1.79606e-21)
(1.82228e-05 8.26705e-06 -1.89647e-21)
(1.82908e-05 8.75658e-06 -1.9897e-21)
(1.83883e-05 9.21642e-06 -2.0776e-21)
(1.8514e-05 9.65232e-06 -2.0913e-21)
(1.86652e-05 1.00698e-05 -1.53628e-21)
(1.88402e-05 1.04709e-05 -4.84619e-22)
(1.76687e-05 5.16557e-06 -3.86993e-21)
(1.76135e-05 5.86201e-06 0)
(1.75675e-05 6.5248e-06 0)
(1.7543e-05 7.1345e-06 0)
(1.75461e-05 7.69135e-06 0)
(1.75789e-05 8.20218e-06 0)
(1.7641e-05 8.67451e-06 0)
(1.77311e-05 9.11589e-06 0)
(1.78473e-05 9.53249e-06 0)
(1.7987e-05 9.93017e-06 0)
(1.81586e-05 1.03138e-05 0)
(1.71214e-05 5.08036e-06 -3.9776e-21)
(1.70065e-05 5.79211e-06 0)
(1.69132e-05 6.44874e-06 0)
(1.68535e-05 7.04566e-06 0)
(1.68296e-05 7.5862e-06 0)
(1.68408e-05 8.07888e-06 0)
(1.68844e-05 8.5319e-06 0)
(1.69573e-05 8.95324e-06 0)
(1.70567e-05 9.3493e-06 0)
(1.7179e-05 9.72632e-06 0)
(1.73461e-05 1.00931e-05 0)
(1.65416e-05 4.94252e-06 -4.65976e-21)
(1.63544e-05 5.67753e-06 0)
(1.62048e-05 6.32569e-06 0)
(1.61003e-05 6.90509e-06 0)
(1.60405e-05 7.4241e-06 0)
(1.60221e-05 7.89397e-06 0)
(1.60403e-05 8.32382e-06 0)
(1.60904e-05 8.72202e-06 0)
(1.61684e-05 9.09513e-06 0)
(1.62697e-05 9.44952e-06 0)
(1.64319e-05 9.8e-06 0)
(1.59187e-05 4.76476e-06 -7.29568e-21)
(1.56472e-05 5.51996e-06 0)
(1.54351e-05 6.1559e-06 0)
(1.52807e-05 6.71349e-06 0)
(1.51807e-05 7.20638e-06 0)
(1.51287e-05 7.64912e-06 0)
(1.5118e-05 8.05191e-06 0)
(1.51423e-05 8.4236e-06 0)
(1.51966e-05 8.77088e-06 0)
(1.52751e-05 9.10012e-06 0)
(1.5433e-05 9.43429e-06 0)
(1.52472e-05 4.55563e-06 -1.32599e-20)
(1.48816e-05 5.32012e-06 0)
(1.46031e-05 5.93742e-06 0)
(1.43971e-05 6.46792e-06 0)
(1.42558e-05 6.92998e-06 0)
(1.41696e-05 7.34142e-06 0)
(1.41294e-05 7.71349e-06 0)
(1.41275e-05 8.05547e-06 0)
(1.41577e-05 8.37417e-06 0)
(1.42133e-05 8.67583e-06 0)
(1.43681e-05 8.99387e-06 0)
(1.45247e-05 4.32289e-06 -2.34829e-20)
(1.40594e-05 5.0799e-06 0)
(1.37132e-05 5.6697e-06 0)
(1.34562e-05 6.16717e-06 0)
(1.32749e-05 6.59391e-06 0)
(1.31557e-05 6.97046e-06 0)
(1.30873e-05 7.30875e-06 0)
(1.30603e-05 7.61836e-06 0)
(1.30676e-05 7.90616e-06 0)
(1.31015e-05 8.17813e-06 0)
(1.32547e-05 8.4804e-06 0)
(1.3751e-05 4.07286e-06 -3.81575e-20)
(1.31855e-05 4.80191e-06 0)
(1.27732e-05 5.35344e-06 0)
(1.24679e-05 5.81123e-06 0)
(1.22494e-05 6.19824e-06 0)
(1.21001e-05 6.53671e-06 0)
(1.20061e-05 6.83875e-06 0)
(1.19564e-05 7.11397e-06 0)
(1.1943e-05 7.36912e-06 0)
(1.19573e-05 7.60974e-06 0)
(1.21108e-05 7.8968e-06 0)
(1.29272e-05 3.81132e-06 -5.66243e-20)
(1.22667e-05 4.49016e-06 0)
(1.17933e-05 4.99169e-06 0)
(1.14442e-05 5.40288e-06 0)
(1.1193e-05 5.746e-06 0)
(1.10175e-05 6.04373e-06 0)
(1.09014e-05 6.30771e-06 0)
(1.08322e-05 6.54722e-06 0)
(1.08009e-05 6.7686e-06 0)
(1.07984e-05 6.97681e-06 0)
(1.09537e-05 7.24901e-06 0)
(1.20553e-05 3.54333e-06 -7.74364e-20)
(1.13109e-05 4.1497e-06 0)
(1.07843e-05 4.5895e-06 0)
(1.03982e-05 4.94743e-06 0)
(1.01197e-05 5.24288e-06 0)
(9.92286e-06 5.4978e-06 0)
(9.78889e-06 5.7226e-06 0)
(9.70403e-06 5.92586e-06 0)
(9.65805e-06 6.11319e-06 0)
(9.64206e-06 6.28827e-06 0)
(9.79998e-06 6.54549e-06 0)
(1.80707e-05 5.36663e-06 -2.58717e-21)
(1.81997e-05 5.8854e-06 -1.43509e-21)
(1.8184e-05 6.55244e-06 -1.56536e-21)
(1.81735e-05 7.17128e-06 -1.68642e-21)
(1.81844e-05 7.74089e-06 -1.79606e-21)
(1.82228e-05 8.26705e-06 -1.89647e-21)
(1.82908e-05 8.75658e-06 -1.9897e-21)
(1.83883e-05 9.21642e-06 -2.0776e-21)
(1.8514e-05 9.65232e-06 -2.0913e-21)
(1.86652e-05 1.00698e-05 -1.53628e-21)
(1.88402e-05 1.04709e-05 -4.84619e-22)
(1.76687e-05 5.16557e-06 -3.86993e-21)
(1.76135e-05 5.86201e-06 0)
(1.75675e-05 6.5248e-06 0)
(1.7543e-05 7.1345e-06 0)
(1.75461e-05 7.69135e-06 0)
(1.75789e-05 8.20218e-06 0)
(1.7641e-05 8.67451e-06 0)
(1.77311e-05 9.11589e-06 0)
(1.78473e-05 9.53249e-06 0)
(1.7987e-05 9.93017e-06 0)
(1.81586e-05 1.03138e-05 0)
(1.71214e-05 5.08036e-06 -3.9776e-21)
(1.70065e-05 5.79211e-06 0)
(1.69132e-05 6.44874e-06 0)
(1.68535e-05 7.04566e-06 0)
(1.68296e-05 7.5862e-06 0)
(1.68408e-05 8.07888e-06 0)
(1.68844e-05 8.5319e-06 0)
(1.69573e-05 8.95324e-06 0)
(1.70567e-05 9.3493e-06 0)
(1.7179e-05 9.72632e-06 0)
(1.73461e-05 1.00931e-05 0)
(1.65416e-05 4.94252e-06 -4.65976e-21)
(1.63544e-05 5.67753e-06 0)
(1.62048e-05 6.32569e-06 0)
(1.61003e-05 6.90509e-06 0)
(1.60405e-05 7.4241e-06 0)
(1.60221e-05 7.89397e-06 0)
(1.60403e-05 8.32382e-06 0)
(1.60904e-05 8.72202e-06 0)
(1.61684e-05 9.09513e-06 0)
(1.62697e-05 9.44952e-06 0)
(1.64319e-05 9.8e-06 0)
(1.59187e-05 4.76476e-06 -7.29568e-21)
(1.56472e-05 5.51996e-06 0)
(1.54351e-05 6.1559e-06 0)
(1.52807e-05 6.71349e-06 0)
(1.51807e-05 7.20638e-06 0)
(1.51287e-05 7.64912e-06 0)
(1.5118e-05 8.05191e-06 0)
(1.51423e-05 8.4236e-06 0)
(1.51966e-05 8.77088e-06 0)
(1.52751e-05 9.10012e-06 0)
(1.5433e-05 9.43429e-06 0)
(1.52472e-05 4.55563e-06 -1.32599e-20)
(1.48816e-05 5.32012e-06 0)
(1.46031e-05 5.93742e-06 0)
(1.43971e-05 6.46792e-06 0)
(1.42558e-05 6.92998e-06 0)
(1.41696e-05 7.34142e-06 0)
(1.41294e-05 7.71349e-06 0)
(1.41275e-05 8.05547e-06 0)
(1.41577e-05 8.37417e-06 0)
(1.42133e-05 8.67583e-06 0)
(1.43681e-05 8.99387e-06 0)
(1.45247e-05 4.32289e-06 -2.34829e-20)
(1.40594e-05 5.0799e-06 0)
(1.37132e-05 5.6697e-06 0)
(1.34562e-05 6.16717e-06 0)
(1.32749e-05 6.59391e-06 0)
(1.31557e-05 6.97046e-06 0)
(1.30873e-05 7.30875e-06 0)
(1.30603e-05 7.61836e-06 0)
(1.30676e-05 7.90616e-06 0)
(1.31015e-05 8.17813e-06 0)
(1.32547e-05 8.4804e-06 0)
(1.3751e-05 4.07286e-06 -3.81575e-20)
(1.31855e-05 4.80191e-06 0)
(1.27732e-05 5.35344e-06 0)
(1.24679e-05 5.81123e-06 0)
(1.22494e-05 6.19824e-06 0)
(1.21001e-05 6.53671e-06 0)
(1.20061e-05 6.83875e-06 0)
(1.19564e-05 7.11397e-06 0)
(1.1943e-05 7.36912e-06 0)
(1.19573e-05 7.60974e-06 0)
(1.21108e-05 7.8968e-06 0)
(1.29272e-05 3.81132e-06 -5.66243e-20)
(1.22667e-05 4.49016e-06 0)
(1.17933e-05 4.99169e-06 0)
(1.14442e-05 5.40288e-06 0)
(1.1193e-05 5.746e-06 0)
(1.10175e-05 6.04373e-06 0)
(1.09014e-05 6.30771e-06 0)
(1.08322e-05 6.54722e-06 0)
(1.08009e-05 6.7686e-06 0)
(1.07984e-05 6.97681e-06 0)
(1.09537e-05 7.24901e-06 0)
(1.20553e-05 3.54333e-06 -7.74364e-20)
(1.13109e-05 4.1497e-06 0)
(1.07843e-05 4.5895e-06 0)
(1.03982e-05 4.94743e-06 0)
(1.01197e-05 5.24288e-06 0)
(9.92286e-06 5.4978e-06 0)
(9.78889e-06 5.7226e-06 0)
(9.70403e-06 5.92586e-06 0)
(9.65805e-06 6.11319e-06 0)
(9.64206e-06 6.28827e-06 0)
(9.79998e-06 6.54549e-06 0)
(1.90392e-05 1.08607e-05 5.08095e-22)
(1.92588e-05 1.12444e-05 1.39992e-21)
(1.94953e-05 1.16224e-05 2.20293e-21)
(1.97474e-05 1.19964e-05 2.91853e-21)
(2.00133e-05 1.2368e-05 3.55465e-21)
(2.02914e-05 1.27385e-05 4.11761e-21)
(2.05805e-05 1.31088e-05 4.61397e-21)
(2.08794e-05 1.348e-05 5.04931e-21)
(2.11868e-05 1.38526e-05 5.4289e-21)
(2.15019e-05 1.42274e-05 5.75694e-21)
(2.18236e-05 1.46048e-05 6.037e-21)
(2.21511e-05 1.49854e-05 6.27186e-21)
(2.24834e-05 1.53695e-05 6.46379e-21)
(2.28199e-05 1.57573e-05 6.61433e-21)
(2.31595e-05 1.61491e-05 6.72474e-21)
(2.35015e-05 1.65448e-05 6.79585e-21)
(2.38449e-05 1.69443e-05 6.82951e-21)
(2.41888e-05 1.73471e-05 6.8282e-21)
(2.4532e-05 1.77523e-05 6.79616e-21)
(2.46453e-05 1.80048e-05 -1.48802e-21)
(1.8371e-05 1.06918e-05 0)
(1.86092e-05 1.10674e-05 0)
(1.88613e-05 1.1438e-05 0)
(1.91259e-05 1.18056e-05 0)
(1.94019e-05 1.21717e-05 0)
(1.9688e-05 1.25374e-05 0)
(1.99834e-05 1.29037e-05 0)
(2.02871e-05 1.32714e-05 0)
(2.05982e-05 1.36413e-05 0)
(2.09158e-05 1.4014e-05 0)
(2.12393e-05 1.43899e-05 0)
(2.15679e-05 1.47694e-05 0)
(2.19009e-05 1.5153e-05 0)
(2.22377e-05 1.55408e-05 0)
(2.25776e-05 1.59331e-05 0)
(2.292e-05 1.63298e-05 0)
(2.32641e-05 1.67308e-05 0)
(2.36096e-05 1.71355e-05 0)
(2.39555e-05 1.7543e-05 0)
(2.43001e-05 1.79513e-05 -9.81927e-21)
(1.75789e-05 1.04635e-05 0)
(1.7846e-05 1.08364e-05 0)
(1.81232e-05 1.12046e-05 0)
(1.84094e-05 1.15702e-05 0)
(1.87039e-05 1.19347e-05 0)
(1.90061e-05 1.22993e-05 0)
(1.93153e-05 1.26649e-05 0)
(1.96308e-05 1.30324e-05 0)
(1.99522e-05 1.34025e-05 0)
(2.02788e-05 1.37758e-05 0)
(2.06102e-05 1.41528e-05 0)
(2.09457e-05 1.45338e-05 0)
(2.12851e-05 1.49192e-05 0)
(2.16277e-05 1.53094e-05 0)
(2.19733e-05 1.57044e-05 0)
(2.23212e-05 1.61043e-05 0)
(2.26711e-05 1.6509e-05 0)
(2.30224e-05 1.69181e-05 0)
(2.33745e-05 1.73311e-05 0)
(2.37239e-05 1.77456e-05 -9.90181e-21)
(1.66903e-05 1.01674e-05 0)
(1.69934e-05 1.05437e-05 0)
(1.73026e-05 1.09153e-05 0)
(1.7617e-05 1.12841e-05 0)
(1.79365e-05 1.16519e-05 0)
(1.82607e-05 1.20197e-05 0)
(1.85895e-05 1.23886e-05 0)
(1.89224e-05 1.27596e-05 0)
(1.92592e-05 1.31333e-05 0)
(1.95997e-05 1.35103e-05 0)
(1.99436e-05 1.38912e-05 0)
(2.02906e-05 1.42764e-05 0)
(2.06405e-05 1.46662e-05 0)
(2.09931e-05 1.50611e-05 0)
(2.13481e-05 1.54612e-05 0)
(2.17051e-05 1.58666e-05 0)
(2.20639e-05 1.62774e-05 0)
(2.24241e-05 1.66936e-05 0)
(2.27851e-05 1.71149e-05 0)
(2.31418e-05 1.75396e-05 -1.00299e-20)
(1.5721e-05 9.80283e-06 0)
(1.60659e-05 1.01885e-05 0)
(1.64128e-05 1.0569e-05 0)
(1.67607e-05 1.09461e-05 0)
(1.71104e-05 1.13218e-05 0)
(1.74617e-05 1.16971e-05 0)
(1.78147e-05 1.20734e-05 0)
(1.81694e-05 1.24514e-05 0)
(1.85261e-05 1.2832e-05 0)
(1.88845e-05 1.32159e-05 0)
(1.92448e-05 1.36037e-05 0)
(1.96069e-05 1.39958e-05 0)
(1.99709e-05 1.43926e-05 0)
(2.03366e-05 1.47947e-05 0)
(2.07039e-05 1.52022e-05 0)
(2.10729e-05 1.56155e-05 0)
(2.14432e-05 1.60348e-05 0)
(2.18146e-05 1.64604e-05 0)
(2.21865e-05 1.68925e-05 0)
(2.2553e-05 1.73299e-05 -1.02005e-20)
(1.46891e-05 9.36807e-06 0)
(1.508e-05 9.76907e-06 0)
(1.54687e-05 1.01642e-05 0)
(1.58543e-05 1.05548e-05 0)
(1.62381e-05 1.09432e-05 0)
(1.66202e-05 1.13305e-05 0)
(1.70011e-05 1.17181e-05 0)
(1.73813e-05 1.2107e-05 0)
(1.7761e-05 1.24981e-05 0)
(1.81405e-05 1.28921e-05 0)
(1.85202e-05 1.32898e-05 0)
(1.89002e-05 1.36916e-05 0)
(1.92808e-05 1.40981e-05 0)
(1.9662e-05 1.45098e-05 0)
(2.00441e-05 1.49271e-05 0)
(2.0427e-05 1.53505e-05 0)
(2.08107e-05 1.57805e-05 0)
(2.11951e-05 1.62176e-05 0)
(2.15798e-05 1.66625e-05 0)
(2.19583e-05 1.71145e-05 -1.0414e-20)
(1.36111e-05 8.86462e-06 0)
(1.40508e-05 9.28668e-06 0)
(1.44843e-05 9.70194e-06 0)
(1.49103e-05 1.01111e-05 0)
(1.53312e-05 1.05169e-05 0)
(1.57468e-05 1.09205e-05 0)
(1.61585e-05 1.13235e-05 0)
(1.65666e-05 1.17269e-05 0)
(1.69719e-05 1.21319e-05 0)
(1.7375e-05 1.25393e-05 0)
(1.77763e-05 1.29498e-05 0)
(1.81763e-05 1.33641e-05 0)
(1.85754e-05 1.37829e-05 0)
(1.8974e-05 1.42067e-05 0)
(1.93724e-05 1.46361e-05 0)
(1.97707e-05 1.50717e-05 0)
(2.01693e-05 1.55143e-05 0)
(2.0568e-05 1.59647e-05 0)
(2.09668e-05 1.64238e-05 0)
(2.13592e-05 1.68916e-05 -1.06711e-20)
(1.25035e-05 8.29533e-06 0)
(1.29932e-05 8.74379e-06 0)
(1.34729e-05 9.1843e-06 0)
(1.39412e-05 9.61679e-06 0)
(1.44007e-05 1.00445e-05 0)
(1.48518e-05 1.04686e-05 0)
(1.5296e-05 1.08908e-05 0)
(1.5734e-05 1.13125e-05 0)
(1.61668e-05 1.17347e-05 0)
(1.6595e-05 1.21585e-05 0)
(1.70196e-05 1.25848e-05 0)
(1.74411e-05 1.30144e-05 0)
(1.78602e-05 1.3448e-05 0)
(1.82774e-05 1.38863e-05 0)
(1.86932e-05 1.43299e-05 0)
(1.91081e-05 1.47797e-05 0)
(1.95224e-05 1.52365e-05 0)
(1.99364e-05 1.57015e-05 0)
(2.03503e-05 1.61758e-05 0)
(2.07583e-05 1.66601e-05 -1.0973e-20)
(1.13826e-05 7.66557e-06 0)
(1.19218e-05 8.14521e-06 0)
(1.24479e-05 8.61533e-06 0)
(1.29588e-05 9.07548e-06 0)
(1.34578e-05 9.52893e-06 0)
(1.39453e-05 9.97723e-06 0)
(1.4423e-05 1.04222e-05 0)
(1.48919e-05 1.08654e-05 0)
(1.53531e-05 1.13081e-05 0)
(1.58077e-05 1.17514e-05 0)
(1.62565e-05 1.21963e-05 0)
(1.67005e-05 1.26438e-05 0)
(1.71404e-05 1.30946e-05 0)
(1.7577e-05 1.35496e-05 0)
(1.8011e-05 1.40095e-05 0)
(1.84431e-05 1.44752e-05 0)
(1.88737e-05 1.49478e-05 0)
(1.93036e-05 1.54285e-05 0)
(1.97331e-05 1.59188e-05 0)
(2.01579e-05 1.64198e-05 -1.13208e-20)
(1.02629e-05 6.98295e-06 0)
(1.08491e-05 7.49721e-06 0)
(1.14199e-05 8.00004e-06 0)
(1.1973e-05 8.49164e-06 0)
(1.25114e-05 8.97443e-06 0)
(1.30356e-05 9.45039e-06 0)
(1.35473e-05 9.92138e-06 0)
(1.40477e-05 1.03891e-05 0)
(1.4538e-05 1.08551e-05 0)
(1.50195e-05 1.13205e-05 0)
(1.54932e-05 1.17866e-05 0)
(1.59601e-05 1.22544e-05 0)
(1.64213e-05 1.27247e-05 0)
(1.68777e-05 1.31985e-05 0)
(1.73303e-05 1.36765e-05 0)
(1.77797e-05 1.41597e-05 0)
(1.8227e-05 1.46493e-05 0)
(1.86728e-05 1.51467e-05 0)
(1.91182e-05 1.56532e-05 0)
(1.95608e-05 1.61709e-05 -1.17156e-20)
(9.26881e-06 6.3619e-06 0)
(9.88997e-06 6.90595e-06 0)
(1.04941e-05 7.43546e-06 0)
(1.108e-05 7.95367e-06 0)
(1.16494e-05 8.46197e-06 0)
(1.22031e-05 8.96241e-06 0)
(1.27424e-05 9.45676e-06 0)
(1.32686e-05 9.94671e-06 0)
(1.37828e-05 1.04338e-05 0)
(1.42864e-05 1.09193e-05 0)
(1.47805e-05 1.14045e-05 0)
(1.52663e-05 1.18905e-05 0)
(1.57449e-05 1.2378e-05 0)
(1.62174e-05 1.28681e-05 0)
(1.66848e-05 1.33616e-05 0)
(1.71482e-05 1.38595e-05 0)
(1.76085e-05 1.43627e-05 0)
(1.80669e-05 1.48727e-05 0)
(1.85246e-05 1.53909e-05 0)
(1.89818e-05 1.59199e-05 -1.2035e-20)
(1.90392e-05 1.08607e-05 5.08095e-22)
(1.92588e-05 1.12444e-05 1.39992e-21)
(1.94953e-05 1.16224e-05 2.20293e-21)
(1.97474e-05 1.19964e-05 2.91853e-21)
(2.00133e-05 1.2368e-05 3.55465e-21)
(2.02914e-05 1.27385e-05 4.11761e-21)
(2.05805e-05 1.31088e-05 4.61397e-21)
(2.08794e-05 1.348e-05 5.04931e-21)
(2.11868e-05 1.38526e-05 5.4289e-21)
(2.15019e-05 1.42274e-05 5.75694e-21)
(2.18236e-05 1.46048e-05 6.037e-21)
(2.21511e-05 1.49854e-05 6.27186e-21)
(2.24834e-05 1.53695e-05 6.46379e-21)
(2.28199e-05 1.57573e-05 6.61433e-21)
(2.31595e-05 1.61491e-05 6.72474e-21)
(2.35015e-05 1.65448e-05 6.79585e-21)
(2.38449e-05 1.69443e-05 6.82951e-21)
(2.41888e-05 1.73471e-05 6.8282e-21)
(2.4532e-05 1.77523e-05 6.79616e-21)
(2.46453e-05 1.80048e-05 -1.48802e-21)
(1.8371e-05 1.06918e-05 0)
(1.86092e-05 1.10674e-05 0)
(1.88613e-05 1.1438e-05 0)
(1.91259e-05 1.18056e-05 0)
(1.94019e-05 1.21717e-05 0)
(1.9688e-05 1.25374e-05 0)
(1.99834e-05 1.29037e-05 0)
(2.02871e-05 1.32714e-05 0)
(2.05982e-05 1.36413e-05 0)
(2.09158e-05 1.4014e-05 0)
(2.12393e-05 1.43899e-05 0)
(2.15679e-05 1.47694e-05 0)
(2.19009e-05 1.5153e-05 0)
(2.22377e-05 1.55408e-05 0)
(2.25776e-05 1.59331e-05 0)
(2.292e-05 1.63298e-05 0)
(2.32641e-05 1.67308e-05 0)
(2.36096e-05 1.71355e-05 0)
(2.39555e-05 1.7543e-05 0)
(2.43001e-05 1.79513e-05 -9.81927e-21)
(1.75789e-05 1.04635e-05 0)
(1.7846e-05 1.08364e-05 0)
(1.81232e-05 1.12046e-05 0)
(1.84094e-05 1.15702e-05 0)
(1.87039e-05 1.19347e-05 0)
(1.90061e-05 1.22993e-05 0)
(1.93153e-05 1.26649e-05 0)
(1.96308e-05 1.30324e-05 0)
(1.99522e-05 1.34025e-05 0)
(2.02788e-05 1.37758e-05 0)
(2.06102e-05 1.41528e-05 0)
(2.09457e-05 1.45338e-05 0)
(2.12851e-05 1.49192e-05 0)
(2.16277e-05 1.53094e-05 0)
(2.19733e-05 1.57044e-05 0)
(2.23212e-05 1.61043e-05 0)
(2.26711e-05 1.6509e-05 0)
(2.30224e-05 1.69181e-05 0)
(2.33745e-05 1.73311e-05 0)
(2.37239e-05 1.77456e-05 -9.90181e-21)
(1.66903e-05 1.01674e-05 0)
(1.69934e-05 1.05437e-05 0)
(1.73026e-05 1.09153e-05 0)
(1.7617e-05 1.12841e-05 0)
(1.79365e-05 1.16519e-05 0)
(1.82607e-05 1.20197e-05 0)
(1.85895e-05 1.23886e-05 0)
(1.89224e-05 1.27596e-05 0)
(1.92592e-05 1.31333e-05 0)
(1.95997e-05 1.35103e-05 0)
(1.99436e-05 1.38912e-05 0)
(2.02906e-05 1.42764e-05 0)
(2.06405e-05 1.46662e-05 0)
(2.09931e-05 1.50611e-05 0)
(2.13481e-05 1.54612e-05 0)
(2.17051e-05 1.58666e-05 0)
(2.20639e-05 1.62774e-05 0)
(2.24241e-05 1.66936e-05 0)
(2.27851e-05 1.71149e-05 0)
(2.31418e-05 1.75396e-05 -1.00299e-20)
(1.5721e-05 9.80283e-06 0)
(1.60659e-05 1.01885e-05 0)
(1.64128e-05 1.0569e-05 0)
(1.67607e-05 1.09461e-05 0)
(1.71104e-05 1.13218e-05 0)
(1.74617e-05 1.16971e-05 0)
(1.78147e-05 1.20734e-05 0)
(1.81694e-05 1.24514e-05 0)
(1.85261e-05 1.2832e-05 0)
(1.88845e-05 1.32159e-05 0)
(1.92448e-05 1.36037e-05 0)
(1.96069e-05 1.39958e-05 0)
(1.99709e-05 1.43926e-05 0)
(2.03366e-05 1.47947e-05 0)
(2.07039e-05 1.52022e-05 0)
(2.10729e-05 1.56155e-05 0)
(2.14432e-05 1.60348e-05 0)
(2.18146e-05 1.64604e-05 0)
(2.21865e-05 1.68925e-05 0)
(2.2553e-05 1.73299e-05 -1.02005e-20)
(1.46891e-05 9.36807e-06 0)
(1.508e-05 9.76907e-06 0)
(1.54687e-05 1.01642e-05 0)
(1.58543e-05 1.05548e-05 0)
(1.62381e-05 1.09432e-05 0)
(1.66202e-05 1.13305e-05 0)
(1.70011e-05 1.17181e-05 0)
(1.73813e-05 1.2107e-05 0)
(1.7761e-05 1.24981e-05 0)
(1.81405e-05 1.28921e-05 0)
(1.85202e-05 1.32898e-05 0)
(1.89002e-05 1.36916e-05 0)
(1.92808e-05 1.40981e-05 0)
(1.9662e-05 1.45098e-05 0)
(2.00441e-05 1.49271e-05 0)
(2.0427e-05 1.53505e-05 0)
(2.08107e-05 1.57805e-05 0)
(2.11951e-05 1.62176e-05 0)
(2.15798e-05 1.66625e-05 0)
(2.19583e-05 1.71145e-05 -1.0414e-20)
(1.36111e-05 8.86462e-06 0)
(1.40508e-05 9.28668e-06 0)
(1.44843e-05 9.70194e-06 0)
(1.49103e-05 1.01111e-05 0)
(1.53312e-05 1.05169e-05 0)
(1.57468e-05 1.09205e-05 0)
(1.61585e-05 1.13235e-05 0)
(1.65666e-05 1.17269e-05 0)
(1.69719e-05 1.21319e-05 0)
(1.7375e-05 1.25393e-05 0)
(1.77763e-05 1.29498e-05 0)
(1.81763e-05 1.33641e-05 0)
(1.85754e-05 1.37829e-05 0)
(1.8974e-05 1.42067e-05 0)
(1.93724e-05 1.46361e-05 0)
(1.97707e-05 1.50717e-05 0)
(2.01693e-05 1.55143e-05 0)
(2.0568e-05 1.59647e-05 0)
(2.09668e-05 1.64238e-05 0)
(2.13592e-05 1.68916e-05 -1.06711e-20)
(1.25035e-05 8.29533e-06 0)
(1.29932e-05 8.74379e-06 0)
(1.34729e-05 9.1843e-06 0)
(1.39412e-05 9.61679e-06 0)
(1.44007e-05 1.00445e-05 0)
(1.48518e-05 1.04686e-05 0)
(1.5296e-05 1.08908e-05 0)
(1.5734e-05 1.13125e-05 0)
(1.61668e-05 1.17347e-05 0)
(1.6595e-05 1.21585e-05 0)
(1.70196e-05 1.25848e-05 0)
(1.74411e-05 1.30144e-05 0)
(1.78602e-05 1.3448e-05 0)
(1.82774e-05 1.38863e-05 0)
(1.86932e-05 1.43299e-05 0)
(1.91081e-05 1.47797e-05 0)
(1.95224e-05 1.52365e-05 0)
(1.99364e-05 1.57015e-05 0)
(2.03503e-05 1.61758e-05 0)
(2.07583e-05 1.66601e-05 -1.0973e-20)
(1.13826e-05 7.66557e-06 0)
(1.19218e-05 8.14521e-06 0)
(1.24479e-05 8.61533e-06 0)
(1.29588e-05 9.07548e-06 0)
(1.34578e-05 9.52893e-06 0)
(1.39453e-05 9.97723e-06 0)
(1.4423e-05 1.04222e-05 0)
(1.48919e-05 1.08654e-05 0)
(1.53531e-05 1.13081e-05 0)
(1.58077e-05 1.17514e-05 0)
(1.62565e-05 1.21963e-05 0)
(1.67005e-05 1.26438e-05 0)
(1.71404e-05 1.30946e-05 0)
(1.7577e-05 1.35496e-05 0)
(1.8011e-05 1.40095e-05 0)
(1.84431e-05 1.44752e-05 0)
(1.88737e-05 1.49478e-05 0)
(1.93036e-05 1.54285e-05 0)
(1.97331e-05 1.59188e-05 0)
(2.01579e-05 1.64198e-05 -1.13208e-20)
(1.02629e-05 6.98295e-06 0)
(1.08491e-05 7.49721e-06 0)
(1.14199e-05 8.00004e-06 0)
(1.1973e-05 8.49164e-06 0)
(1.25114e-05 8.97443e-06 0)
(1.30356e-05 9.45039e-06 0)
(1.35473e-05 9.92138e-06 0)
(1.40477e-05 1.03891e-05 0)
(1.4538e-05 1.08551e-05 0)
(1.50195e-05 1.13205e-05 0)
(1.54932e-05 1.17866e-05 0)
(1.59601e-05 1.22544e-05 0)
(1.64213e-05 1.27247e-05 0)
(1.68777e-05 1.31985e-05 0)
(1.73303e-05 1.36765e-05 0)
(1.77797e-05 1.41597e-05 0)
(1.8227e-05 1.46493e-05 0)
(1.86728e-05 1.51467e-05 0)
(1.91182e-05 1.56532e-05 0)
(1.95608e-05 1.61709e-05 -1.17156e-20)
(9.26881e-06 6.3619e-06 0)
(9.88997e-06 6.90595e-06 0)
(1.04941e-05 7.43546e-06 0)
(1.108e-05 7.95367e-06 0)
(1.16494e-05 8.46197e-06 0)
(1.22031e-05 8.96241e-06 0)
(1.27424e-05 9.45676e-06 0)
(1.32686e-05 9.94671e-06 0)
(1.37828e-05 1.04338e-05 0)
(1.42864e-05 1.09193e-05 0)
(1.47805e-05 1.14045e-05 0)
(1.52663e-05 1.18905e-05 0)
(1.57449e-05 1.2378e-05 0)
(1.62174e-05 1.28681e-05 0)
(1.66848e-05 1.33616e-05 0)
(1.71482e-05 1.38595e-05 0)
(1.76085e-05 1.43627e-05 0)
(1.80669e-05 1.48727e-05 0)
(1.85246e-05 1.53909e-05 0)
(1.89818e-05 1.59199e-05 -1.2035e-20)
(7.79645e-06 5.32472e-06 0)
(8.54464e-06 5.9359e-06 0)
(9.17784e-06 6.49255e-06 0)
(9.79381e-06 7.0341e-06 0)
(1.03923e-05 7.56533e-06 0)
(1.09744e-05 8.08713e-06 0)
(1.15407e-05 8.60121e-06 0)
(1.20924e-05 9.1091e-06 0)
(1.26303e-05 9.61223e-06 0)
(1.31558e-05 1.01119e-05 0)
(1.36698e-05 1.06095e-05 0)
(1.41736e-05 1.11059e-05 0)
(1.46683e-05 1.16022e-05 0)
(1.5155e-05 1.20992e-05 0)
(1.56348e-05 1.25977e-05 0)
(1.61089e-05 1.30986e-05 0)
(1.65782e-05 1.36027e-05 0)
(1.70441e-05 1.41109e-05 0)
(1.75077e-05 1.46244e-05 0)
(1.79705e-05 1.51442e-05 0)
(1.84338e-05 1.56731e-05 -1.21272e-20)
(7.26555e-06 5.01295e-06 0)
(7.98906e-06 5.61633e-06 0)
(8.61785e-06 6.17406e-06 0)
(9.23158e-06 6.71954e-06 0)
(9.82956e-06 7.25638e-06 0)
(1.04124e-05 7.78502e-06 0)
(1.09805e-05 8.30669e-06 0)
(1.15345e-05 8.82252e-06 0)
(1.20753e-05 9.33366e-06 0)
(1.26037e-05 9.84118e-06 0)
(1.31208e-05 1.03461e-05 0)
(1.36275e-05 1.08493e-05 0)
(1.41249e-05 1.13517e-05 0)
(1.46141e-05 1.18539e-05 0)
(1.50961e-05 1.23567e-05 0)
(1.55721e-05 1.28607e-05 0)
(1.60431e-05 1.33666e-05 0)
(1.65104e-05 1.38752e-05 0)
(1.69752e-05 1.43874e-05 0)
(1.74393e-05 1.49039e-05 0)
(1.7904e-05 1.54265e-05 -1.2098e-20)
(6.79433e-06 4.71274e-06 0)
(7.491e-06 5.30792e-06 0)
(8.10873e-06 5.86436e-06 0)
(8.71465e-06 6.41156e-06 0)
(9.30692e-06 6.95221e-06 0)
(9.88598e-06 7.48618e-06 0)
(1.04516e-05 8.01419e-06 0)
(1.10043e-05 8.537e-06 0)
(1.15446e-05 9.05538e-06 0)
(1.20731e-05 9.57013e-06 0)
(1.25907e-05 1.0082e-05 0)
(1.30981e-05 1.05917e-05 0)
(1.35965e-05 1.11e-05 0)
(1.40866e-05 1.16073e-05 0)
(1.45696e-05 1.21142e-05 0)
(1.50464e-05 1.26213e-05 0)
(1.55182e-05 1.3129e-05 0)
(1.59862e-05 1.36378e-05 0)
(1.64517e-05 1.41484e-05 0)
(1.69167e-05 1.46611e-05 0)
(1.73822e-05 1.51769e-05 -1.20808e-20)
(6.37414e-06 4.42653e-06 0)
(7.04233e-06 5.01152e-06 0)
(7.64511e-06 5.56456e-06 0)
(8.23908e-06 6.11168e-06 0)
(8.82169e-06 6.65455e-06 0)
(9.39317e-06 7.19247e-06 0)
(9.95287e-06 7.72567e-06 0)
(1.05011e-05 8.25446e-06 0)
(1.10379e-05 8.77926e-06 0)
(1.15639e-05 9.30057e-06 0)
(1.20797e-05 9.81888e-06 0)
(1.2586e-05 1.03347e-05 0)
(1.30835e-05 1.08484e-05 0)
(1.35731e-05 1.13606e-05 0)
(1.40557e-05 1.18714e-05 0)
(1.45324e-05 1.23814e-05 0)
(1.50042e-05 1.28907e-05 0)
(1.54723e-05 1.33997e-05 0)
(1.5938e-05 1.39084e-05 0)
(1.64034e-05 1.4417e-05 0)
(1.68693e-05 1.49257e-05 -1.20763e-20)
(5.99772e-06 4.15521e-06 0)
(6.63679e-06 4.72898e-06 0)
(7.22173e-06 5.27696e-06 0)
(7.80061e-06 5.82233e-06 0)
(8.37047e-06 6.36582e-06 0)
(8.93134e-06 6.90624e-06 0)
(9.48222e-06 7.44333e-06 0)
(1.00232e-05 7.97697e-06 0)
(1.05541e-05 8.50723e-06 0)
(1.10754e-05 9.03426e-06 0)
(1.15873e-05 9.55831e-06 0)
(1.20906e-05 1.00796e-05 0)
(1.25857e-05 1.05984e-05 0)
(1.30735e-05 1.1115e-05 0)
(1.35547e-05 1.16295e-05 0)
(1.40303e-05 1.21421e-05 0)
(1.45013e-05 1.26528e-05 0)
(1.49688e-05 1.31616e-05 0)
(1.54342e-05 1.36684e-05 0)
(1.58992e-05 1.41729e-05 0)
(1.63649e-05 1.46746e-05 -1.20851e-20)
(5.65755e-06 3.89883e-06 0)
(6.26769e-06 4.46052e-06 0)
(6.83297e-06 5.00214e-06 0)
(7.39461e-06 5.54439e-06 0)
(7.94944e-06 6.08716e-06 0)
(8.49733e-06 6.62879e-06 0)
(9.0371e-06 7.16858e-06 0)
(9.56859e-06 7.70598e-06 0)
(1.00915e-05 8.2407e-06 0)
(1.06061e-05 8.77259e-06 0)
(1.11125e-05 9.3016e-06 0)
(1.16111e-05 9.82776e-06 0)
(1.21024e-05 1.03511e-05 0)
(1.25872e-05 1.08716e-05 0)
(1.3066e-05 1.13894e-05 0)