/*--------------------------------*- C++ -*----------------------------------*\
  =========                 |
  \\      /  F ield         | OpenFOAM: The Open Source CFD Toolbox
   \\    /   O peration     | Website:  https://openfoam.org
    \\  /    A nd           | Version:  9
     \\/     M anipulation  |
\*---------------------------------------------------------------------------*/
FoamFile
{
    format      ascii;
    class       volScalarField;
    location    "15";
    object      sigmaEq;
}
// * * * * * * * * * * * * * * * * * * * * * * * * * * * * * * * * * * * * * //

dimensions      [1 -1 -2 0 0 0 0];

internalField   nonuniform List<scalar> 
1000
(
2.58256e+06
2.45996e+06
2.42503e+06
2.42949e+06
2.42254e+06
2.40745e+06
2.38362e+06
2.352e+06
2.31919e+06
2.27848e+06
3.01957e+06
2.76522e+06
2.63967e+06
2.58507e+06
2.53782e+06
2.49386e+06
2.4481e+06
2.40053e+06
2.35071e+06
2.30318e+06
3.44057e+06
3.06101e+06
2.8402e+06
2.71954e+06
2.62693e+06
2.54965e+06
2.47899e+06
2.41228e+06
2.34642e+06
2.28795e+06
3.84883e+06
3.34188e+06
3.02515e+06
2.83335e+06
2.69148e+06
2.57766e+06
2.48005e+06
2.39329e+06
2.31158e+06
2.24233e+06
4.23147e+06
3.60207e+06
3.19346e+06
2.92688e+06
2.73207e+06
2.57912e+06
2.4531e+06
2.34553e+06
2.24868e+06
2.16836e+06
4.58125e+06
3.84875e+06
3.34256e+06
3.00072e+06
2.74979e+06
2.55663e+06
2.40168e+06
2.27352e+06
2.16236e+06
2.07109e+06
4.85505e+06
4.06264e+06
3.45817e+06
3.0426e+06
2.73807e+06
2.50759e+06
2.32687e+06
2.18074e+06
2.05781e+06
1.95681e+06
5.14275e+06
4.23575e+06
3.53221e+06
3.04778e+06
2.69809e+06
2.43819e+06
2.23854e+06
2.07995e+06
1.94964e+06
1.84177e+06
5.33221e+06
4.31338e+06
3.51015e+06
2.9751e+06
2.60857e+06
2.34054e+06
2.13778e+06
1.97718e+06
1.84644e+06
1.73607e+06
5.67448e+06
4.23626e+06
3.39604e+06
2.87233e+06
2.5259e+06
2.27083e+06
2.07664e+06
1.92043e+06
1.79226e+06
1.68121e+06
10001.2
19094.4
87842.2
184906
292649
404369
513158
616995
712865
803331
22370
126445
266578
403830
526981
637182
734228
823215
900371
973526
101030
296188
473333
631197
763832
875470
968741
1.04794e+06
1.11067e+06
1.17096e+06
237408
504984
704255
870096
1.00436e+06
1.11398e+06
1.20003e+06
1.2698e+06
1.32042e+06
1.37034e+06
433844
742368
952823
1.12015e+06
1.24978e+06
1.35017e+06
1.42558e+06
1.48408e+06
1.52245e+06
1.56192e+06
689653
998880
1.20731e+06
1.37184e+06
1.48994e+06
1.57751e+06
1.63989e+06
1.68555e+06
1.71133e+06
1.7398e+06
998730
1.27048e+06
1.46529e+06
1.61627e+06
1.71868e+06
1.79075e+06
1.83835e+06
1.86994e+06
1.88296e+06
1.89966e+06
1.35332e+06
1.55405e+06
1.71843e+06
1.84702e+06
1.92954e+06
1.98379e+06
2.01555e+06
2.03237e+06
2.03331e+06
2.0374e+06
1.74252e+06
1.85089e+06
1.96396e+06
2.0607e+06
2.11866e+06
2.15269e+06
2.16733e+06
2.16885e+06
2.15812e+06
2.15024e+06
2.15648e+06
2.15392e+06
2.19964e+06
2.25472e+06
2.28279e+06
2.29343e+06
2.2894e+06
2.27419e+06
2.2545e+06
2.22951e+06
884622
955009
1.02015e+06
1.07899e+06
1.1322e+06
1.18004e+06
1.22298e+06
1.26133e+06
1.2955e+06
1.32573e+06
1.35231e+06
1.37542e+06
1.39522e+06
1.41179e+06
1.4252e+06
1.43549e+06
1.44266e+06
1.44693e+06
1.44829e+06
1.44766e+06
1.03014e+06
1.07271e+06
1.11548e+06
1.15489e+06
1.19189e+06
1.22606e+06
1.2576e+06
1.28643e+06
1.31273e+06
1.33648e+06
1.35784e+06
1.37684e+06
1.39359e+06
1.40812e+06
1.42046e+06
1.43065e+06
1.43859e+06
1.44429e+06
1.44716e+06
1.44707e+06
1.20553e+06
1.22157e+06
1.24157e+06
1.26023e+06
1.27921e+06
1.2976e+06
1.31566e+06
1.3329e+06
1.34941e+06
1.36495e+06
1.37953e+06
1.39304e+06
1.40548e+06
1.4168e+06
1.42694e+06
1.43581e+06
1.44312e+06
1.44861e+06
1.45104e+06
1.44998e+06
1.38625e+06
1.37947e+06
1.37941e+06
1.37919e+06
1.3812e+06
1.38419e+06
1.38868e+06
1.39393e+06
1.40008e+06
1.40666e+06
1.41365e+06
1.42079e+06
1.428e+06
1.43511e+06
1.44195e+06
1.44832e+06
1.45374e+06
1.45784e+06
1.45909e+06
1.45718e+06
1.5613e+06
1.53517e+06
1.51776e+06
1.50101e+06
1.48794e+06
1.47679e+06
1.46861e+06
1.46231e+06
1.45823e+06
1.45576e+06
1.45488e+06
1.45525e+06
1.45671e+06
1.45901e+06
1.46189e+06
1.46508e+06
1.468e+06
1.47025e+06
1.47029e+06
1.46793e+06
1.72439e+06
1.68202e+06
1.65e+06
1.619e+06
1.59302e+06
1.56937e+06
1.54988e+06
1.53302e+06
1.51942e+06
1.5083e+06
1.49973e+06
1.49328e+06
1.48879e+06
1.48598e+06
1.48455e+06
1.48419e+06
1.48435e+06
1.48461e+06
1.48377e+06
1.48158e+06
1.87126e+06
1.81571e+06
1.77226e+06
1.72917e+06
1.6926e+06
1.65812e+06
1.62868e+06
1.60233e+06
1.57996e+06
1.5608e+06
1.54492e+06
1.53192e+06
1.52162e+06
1.51373e+06
1.50796e+06
1.50399e+06
1.50141e+06
1.49981e+06
1.49846e+06
1.49701e+06
1.99819e+06
1.93233e+06
1.88122e+06
1.82796e+06
1.78314e+06
1.73995e+06
1.70231e+06
1.668e+06
1.63798e+06
1.6116e+06
1.58896e+06
1.56975e+06
1.55383e+06
1.54094e+06
1.53087e+06
1.52334e+06
1.51811e+06
1.51482e+06
1.51335e+06
1.51313e+06
2.10474e+06
2.02935e+06
1.97605e+06
1.91536e+06
1.86379e+06
1.81345e+06
1.7685e+06
1.72729e+06
1.69056e+06
1.65788e+06
1.62928e+06
1.60455e+06
1.58356e+06
1.56612e+06
1.55209e+06
1.54126e+06
1.53362e+06
1.52887e+06
1.52756e+06
1.52888e+06
2.18705e+06
2.10739e+06
2.05395e+06
1.99229e+06
1.93652e+06
1.88209e+06
1.83142e+06
1.78434e+06
1.74141e+06
1.70267e+06
1.6682e+06
1.63795e+06
1.61186e+06
1.5898e+06
1.57174e+06
1.55754e+06
1.54742e+06
1.54118e+06
1.54008e+06
1.54311e+06
2.2242e+06
2.14945e+06
2.09417e+06
2.03466e+06
1.97783e+06
1.92244e+06
1.86997e+06
1.82056e+06
1.77488e+06
1.73308e+06
1.6954e+06
1.66189e+06
1.63261e+06
1.60753e+06
1.58676e+06
1.57026e+06
1.55849e+06
1.5513e+06
1.55052e+06
1.555e+06
2.17241e+06
2.12754e+06
2.07658e+06
2.02413e+06
1.97242e+06
1.92131e+06
1.8722e+06
1.82529e+06
1.78134e+06
1.74059e+06
1.70343e+06
1.66999e+06
1.64048e+06
1.61497e+06
1.59371e+06
1.57676e+06
1.56477e+06
1.5577e+06
1.55779e+06
1.56374e+06
2.13212e+06
2.09468e+06
2.05395e+06
2.00779e+06
1.96194e+06
1.91511e+06
1.8695e+06
1.82518e+06
1.78316e+06
1.74374e+06
1.7074e+06
1.6744e+06
1.64502e+06
1.61946e+06
1.59804e+06
1.58096e+06
1.56899e+06
1.56212e+06
1.56287e+06
1.56978e+06
2.08084e+06
2.05336e+06
2.02126e+06
1.98161e+06
1.94166e+06
1.89949e+06
1.85786e+06
1.81676e+06
1.77735e+06
1.73997e+06
1.70521e+06
1.6734e+06
1.64488e+06
1.61994e+06
1.59896e+06
1.58225e+06
1.57055e+06
1.56413e+06
1.5656e+06
1.57306e+06
2.02121e+06
2.00206e+06
1.97825e+06
1.94553e+06
1.91194e+06
1.87506e+06
1.83805e+06
1.8008e+06
1.76466e+06
1.72999e+06
1.69747e+06
1.66748e+06
1.64043e+06
1.61667e+06
1.59656e+06
1.58065e+06
1.56923e+06
1.56394e+06
1.56325e+06
1.57353e+06
1.95647e+06
1.94499e+06
1.92874e+06
1.90271e+06
1.87526e+06
1.84376e+06
1.81155e+06
1.7785e+06
1.74604e+06
1.71455e+06
1.68479e+06
1.65715e+06
1.63211e+06
1.61003e+06
1.59138e+06
1.5765e+06
1.56629e+06
1.56097e+06
1.56277e+06
1.57004e+06
1.88812e+06
1.88329e+06
1.87377e+06
1.85413e+06
1.83259e+06
1.80652e+06
1.77925e+06
1.75066e+06
1.72219e+06
1.69428e+06
1.66769e+06
1.64284e+06
1.62025e+06
1.60028e+06
1.5834e+06
1.56993e+06
1.56073e+06
1.5558e+06
1.55746e+06
1.5643e+06
1.8176e+06
1.81852e+06
1.81498e+06
1.80125e+06
1.78526e+06
1.76448e+06
1.74213e+06
1.7181e+06
1.69384e+06
1.66977e+06
1.64667e+06
1.62498e+06
1.60521e+06
1.58769e+06
1.5729e+06
1.5611e+06
1.55305e+06
1.54877e+06
1.55021e+06
1.5561e+06
1.74567e+06
1.75145e+06
1.75311e+06
1.74479e+06
1.734e+06
1.71833e+06
1.70084e+06
1.68144e+06
1.66153e+06
1.64152e+06
1.62218e+06
1.60394e+06
1.58729e+06
1.57255e+06
1.56014e+06
1.55026e+06
1.54355e+06
1.53995e+06
1.54109e+06
1.54584e+06
1.67274e+06
1.6826e+06
1.6888e+06
1.68541e+06
1.67946e+06
1.66871e+06
1.656e+06
1.64126e+06
1.6258e+06
1.61002e+06
1.59466e+06
1.58011e+06
1.56684e+06
1.55514e+06
1.54536e+06
1.53765e+06
1.53247e+06
1.52971e+06
1.53054e+06
1.53398e+06
1.59881e+06
1.61211e+06
1.62227e+06
1.62342e+06
1.62203e+06
1.61605e+06
1.60807e+06
1.59802e+06
1.58711e+06
1.57572e+06
1.56452e+06
1.55388e+06
1.54422e+06
1.53579e+06
1.52887e+06
1.52355e+06
1.5201e+06
1.51833e+06
1.51893e+06
1.52107e+06
1.52363e+06
1.53989e+06
1.55361e+06
1.559e+06
1.562e+06
1.56072e+06
1.55747e+06
1.55219e+06
1.54596e+06
1.53912e+06
1.53226e+06
1.52571e+06
1.51985e+06
1.51489e+06
1.51102e+06
1.50829e+06
1.50677e+06
1.50621e+06
1.50673e+06
1.50767e+06
1.44666e+06
1.46561e+06
1.48265e+06
1.49217e+06
1.49954e+06
1.503e+06
1.5046e+06
1.50425e+06
1.50287e+06
1.50076e+06
1.49843e+06
1.49616e+06
1.49427e+06
1.49292e+06
1.49227e+06
1.49229e+06
1.49289e+06
1.49373e+06
1.49443e+06
1.49439e+06
1.36724e+06
1.38885e+06
1.40921e+06
1.42297e+06
1.43486e+06
1.44328e+06
1.44996e+06
1.45478e+06
1.45851e+06
1.46135e+06
1.46375e+06
1.46593e+06
1.46814e+06
1.47053e+06
1.47318e+06
1.47604e+06
1.4789e+06
1.48135e+06
1.48251e+06
1.48183e+06
1.28446e+06
1.30905e+06
1.33302e+06
1.35139e+06
1.3682e+06
1.38199e+06
1.39415e+06
1.40451e+06
1.41368e+06
1.42178e+06
1.42914e+06
1.43594e+06
1.44237e+06
1.44854e+06
1.45451e+06
1.46022e+06
1.46539e+06
1.46955e+06
1.47149e+06
1.47056e+06
1.19767e+06
1.22592e+06
1.25414e+06
1.2778e+06
1.30018e+06
1.31994e+06
1.33813e+06
1.35452e+06
1.36953e+06
1.3832e+06
1.39577e+06
1.40734e+06
1.41804e+06
1.42799e+06
1.4372e+06
1.44564e+06
1.45302e+06
1.45889e+06
1.46184e+06
1.46109e+06
1.10594e+06
1.13909e+06
1.17265e+06
1.20268e+06
1.23159e+06
1.25818e+06
1.28313e+06
1.30616e+06
1.3275e+06
1.34712e+06
1.36514e+06
1.38162e+06
1.39664e+06
1.41026e+06
1.42253e+06
1.43342e+06
1.44271e+06
1.45004e+06
1.4541e+06
1.45392e+06
1.00988e+06
1.0497e+06
1.09009e+06
1.12784e+06
1.16443e+06
1.19879e+06
1.23125e+06
1.26149e+06
1.28957e+06
1.31541e+06
1.33905e+06
1.36048e+06
1.37975e+06
1.39689e+06
1.41192e+06
1.42486e+06
1.43557e+06
1.44384e+06
1.44872e+06
1.44925e+06
909838
958920
1.0083e+06
1.05553e+06
1.10119e+06
1.14437e+06
1.18514e+06
1.22313e+06
1.25832e+06
1.2906e+06
1.31995e+06
1.34635e+06
1.36978e+06
1.39025e+06
1.40772e+06
1.42218e+06
1.43354e+06
1.44178e+06
1.44647e+06
1.44736e+06
812557
873453
933660
991541
1.0471e+06
1.09952e+06
1.14875e+06
1.19445e+06
1.23659e+06
1.27504e+06
1.30982e+06
1.34087e+06
1.36818e+06
1.39169e+06
1.41128e+06
1.42685e+06
1.43817e+06
1.44535e+06
1.44819e+06
1.4479e+06
1.58741e+06
1.64077e+06
1.74249e+06
1.85627e+06
1.97266e+06
2.07467e+06
2.1553e+06
2.2089e+06
2.23614e+06
2.23018e+06
1.50119e+06
1.55154e+06
1.64708e+06
1.7571e+06
1.87454e+06
1.98337e+06
2.0764e+06
2.14555e+06
2.1892e+06
2.19662e+06
1.42345e+06
1.4714e+06
1.56066e+06
1.66423e+06
1.77703e+06
1.88432e+06
1.98016e+06
2.05801e+06
2.11699e+06
2.1502e+06
1.35222e+06
1.39873e+06
1.48331e+06
1.58179e+06
1.69095e+06
1.79703e+06
1.89411e+06
1.976e+06
2.03978e+06
2.08762e+06
1.28535e+06
1.33068e+06
1.41091e+06
1.50395e+06
1.60827e+06
1.71147e+06
1.80817e+06
1.89367e+06
1.96169e+06
2.01962e+06
1.22248e+06
1.2671e+06
1.34393e+06
1.43236e+06
1.53209e+06
1.63184e+06
1.72632e+06
1.81252e+06
1.88172e+06
1.94625e+06
1.16234e+06
1.2064e+06
1.28025e+06
1.3644e+06
1.45963e+06
1.55576e+06
1.64762e+06
1.73369e+06
1.80304e+06
1.87081e+06
1.10463e+06
1.14826e+06
1.21962e+06
1.29997e+06
1.39091e+06
1.48321e+06
1.57181e+06
1.65652e+06
1.72524e+06
1.79435e+06
1.04876e+06
1.09195e+06
1.16104e+06
1.23791e+06
1.32481e+06
1.4133e+06
1.49855e+06
1.58123e+06
1.64881e+06
1.71777e+06
995512
1.03718e+06
1.10414e+06
1.1777e+06
1.2607e+06
1.3453e+06
1.42706e+06
1.50715e+06
1.57332e+06
1.64126e+06
943892
983675
1.0484e+06
1.11866e+06
1.19779e+06
1.27846e+06
1.35666e+06
1.4338e+06
1.49831e+06
1.56466e+06
893842
931363
993548
1.06026e+06
1.13536e+06
1.2119e+06
1.28642e+06
1.36035e+06
1.42305e+06
1.48751e+06
845700
880821
939279
1.00188e+06
1.07252e+06
1.14463e+06
1.21531e+06
1.28582e+06
1.3466e+06
1.40904e+06
800136
832179
885360
942888
1.00836e+06
1.07558e+06
1.14216e+06
1.20908e+06
1.2679e+06
1.32835e+06
758507
785595
831338
882155
941341
1.00307e+06
1.0653e+06
1.12858e+06
1.18554e+06
1.24422e+06
722744
741317
776521
818502
870024
925568
983210
1.04294e+06
1.09831e+06
1.15564e+06
696745
700061
719398
748394
790671
839615
892896
949642
1.00423e+06
1.06113e+06
683070
658289
655524
670058
701456
743582
793184
847970
903035
960817
692118
610566
573185
570825
593759
631389
679257
734382
792669
853895
694902
523153
464745
448154
467487
504953
555918
615319
679186
746919
)
;

boundaryField
{
    left
    {
        type            calculated;
        value           nonuniform List<scalar> 
30
(
1.57415e+06
1.48812e+06
1.41054e+06
1.33935e+06
1.27258e+06
1.20985e+06
1.14998e+06
1.0927e+06
1.03748e+06
985240
934801
886304
840140
797069
758555
727155
707923
709504
758070
871900
5.99421e+06
4.12818e+06
3.28646e+06
2.80679e+06
2.48877e+06
2.24794e+06
2.06079e+06
1.9074e+06
1.78032e+06
1.6686e+06
)
;
    }
    right
    {
        type            calculated;
        value           nonuniform List<scalar> 
30
(
1.44736e+06
1.44707e+06
1.44982e+06
1.45692e+06
1.46762e+06
1.4813e+06
1.4968e+06
1.51305e+06
1.52893e+06
1.54337e+06
1.55533e+06
1.56428e+06
1.57038e+06
1.5737e+06
1.5737e+06
1.5706e+06
1.5649e+06
1.55662e+06
1.54626e+06
1.53428e+06
1.52124e+06
1.50773e+06
1.49436e+06
1.48172e+06
1.47042e+06
1.46096e+06
1.45384e+06
1.44924e+06
1.44743e+06
1.44756e+06
)
;
    }
    down
    {
        type            calculated;
        value           nonuniform List<scalar> 
30
(
7550.55
5620.01
65610.1
160723
270200
384579
496269
602743
700671
793056
876275
948813
1.01546e+06
1.07541e+06
1.1295e+06
1.17798e+06
1.22144e+06
1.26018e+06
1.29466e+06
1.32513e+06
1.3519e+06
1.37516e+06
1.39506e+06
1.41172e+06
1.42517e+06
1.43549e+06
1.44265e+06
1.44692e+06
1.44829e+06
1.44781e+06
)
;
    }
    up
    {
        type            calculated;
        value           nonuniform List<scalar> 
30
(
673642
517160
462969
446569
465479
502427
553018
612216
675977
743757
809525
870740
931318
989512
1.04538e+06
1.09808e+06
1.14758e+06
1.1935e+06
1.23584e+06
1.27446e+06
1.30939e+06
1.34057e+06
1.36799e+06
1.39158e+06
1.41123e+06
1.42684e+06
1.43818e+06
1.44536e+06
1.44818e+06
1.44799e+06
)
;
    }
    hole
    {
        type            calculated;
        value           nonuniform List<scalar> 
20
(
2.56621e+06
2.88282e+06
3.26839e+06
3.72142e+06
4.2025e+06
4.56486e+06
4.89024e+06
5.17897e+06
4.88903e+06
4.71397e+06
3425.73
3392.69
50670.5
173303
364484
622342
937963
1.30226e+06
1.70296e+06
2.12949e+06
)
;
    }
    frontAndBack
    {
        type            empty;
    }
}


// ************************************************************************* //
