/*--------------------------------*- C++ -*----------------------------------*\
  =========                 |
  \\      /  F ield         | OpenFOAM: The Open Source CFD Toolbox
   \\    /   O peration     | Website:  https://openfoam.org
    \\  /    A nd           | Version:  9
     \\/     M anipulation  |
\*---------------------------------------------------------------------------*/
FoamFile
{
    format      ascii;
    class       volSymmTensorField;
    location    "15";
    object      sigma;
}
// * * * * * * * * * * * * * * * * * * * * * * * * * * * * * * * * * * * * * //

dimensions      [1 -1 -2 0 0 0 0];

internalField   nonuniform List<symmTensor> 
1000
(
(1.83808e+06 -1.26187e+06 -6.06931e-10 1.06915e+06 -8.79951e-10 249775)
(2.15508e+06 -973740 -3.91222e-10 582441 -6.06758e-10 206005)
(2.31747e+06 -747328 -2.31184e-10 356297 -4.17384e-10 187695)
(2.3875e+06 -576479 -1.18514e-10 175422 -2.77742e-10 169936)
(2.41418e+06 -438253 -3.0916e-11 70396.3 -1.72049e-10 159468)
(2.40545e+06 -330237 3.31855e-11 -8311.67 -9.23391e-11 150257)
(2.38224e+06 -242170 8.33425e-11 -58937.3 -3.02686e-11 143716)
(2.34552e+06 -172111 1.20593e-10 -95531 1.71448e-11 138085)
(2.30749e+06 -113802 1.50621e-10 -119587 5.52387e-11 133862)
(2.2567e+06 -65237.3 1.72704e-10 -142579 8.56929e-11 129010)
(2.32492e+06 -1.40434e+06 -6.22315e-10 1.084e+06 -9.34706e-10 273930)
(2.53882e+06 -1.00742e+06 -3.54088e-10 610409 -5.99823e-10 228251)
(2.62899e+06 -720026 -1.66418e-10 407357 -3.78899e-10 210208)
(2.63981e+06 -514369 -4.07583e-11 235649 -2.22307e-10 191184)
(2.62085e+06 -356018 5.27101e-11 138888 -1.08115e-10 179805)
(2.57439e+06 -237886 1.17531e-10 63683.5 -2.531e-11 169317)
(2.52035e+06 -145253 1.65966e-10 15400.8 3.69054e-11 161613)
(2.45807e+06 -74847 1.99573e-10 -22610 8.25521e-11 154532)
(2.39617e+06 -17696.5 2.25328e-10 -45760.1 1.1776e-10 149226)
(2.32749e+06 28044.2 2.42789e-10 -77019.9 1.45787e-10 142367)
(2.84565e+06 -1.49269e+06 -5.95296e-10 1.05047e+06 -9.44963e-10 293945)
(2.93311e+06 -1.00672e+06 -2.94244e-10 627153 -5.67982e-10 250032)
(2.93191e+06 -670570 -8.90759e-11 462216 -3.26934e-10 233095)
(2.87331e+06 -437856 4.35087e-11 312256 -1.60822e-10 213834)
(2.80213e+06 -265414 1.38243e-10 229787 -4.33718e-11 201920)
(2.71419e+06 -141545 2.00599e-10 162468 3.88153e-11 190479)
(2.62741e+06 -48035.3 2.44785e-10 119035 9.82859e-11 181793)
(2.53827e+06 20248.3 2.73067e-10 81686.6 1.40186e-10 173436)
(2.45446e+06 73415.8 2.93088e-10 59558.9 1.70793e-10 167119)
(2.36704e+06 116622 3.06057e-10 23407.6 1.96124e-10 158657)
(3.39447e+06 -1.51832e+06 -5.35497e-10 976176 -9.07301e-10 311420)
(3.32678e+06 -970258 -2.12343e-10 639942 -5.12103e-10 271759)
(3.22048e+06 -601163 -1.34502e-12 522835 -2.63657e-10 256297)
(3.08459e+06 -351253 1.31077e-10 404655 -9.6362e-11 237579)
(2.95597e+06 -172268 2.21695e-10 340591 1.84442e-11 225303)
(2.82402e+06 -47850.1 2.78041e-10 283802 9.60659e-11 213058)
(2.70318e+06 42510.1 3.15288e-10 245666 1.4997e-10 203327)
(2.58774e+06 106120 3.36749e-10 209372 1.86437e-10 193736)
(2.48273e+06 153092 3.49729e-10 186625 2.1123e-10 186201)
(2.37979e+06 191306 3.57212e-10 147865 2.3225e-10 176558)
(3.93299e+06 -1.46764e+06 -4.26434e-10 839144 -8.12557e-10 320994)
(3.70601e+06 -893260 -1.0762e-10 642674 -4.29494e-10 292017)
(3.48776e+06 -512229 9.53572e-11 584062 -1.89341e-10 278789)
(3.2702e+06 -256922 2.19875e-10 508860 -3.03202e-11 261696)
(3.0804e+06 -81123 2.99866e-10 467683 7.45804e-11 249323)
(2.9034e+06 37224.5 3.45985e-10 423940 1.42884e-10 236458)
(2.74871e+06 119391 3.73197e-10 391452 1.87864e-10 225670)
(2.60815e+06 174895 3.85877e-10 356126 2.1674e-10 214845)
(2.4841e+06 213134 3.90526e-10 331206 2.34402e-10 205960)
(2.36761e+06 244270 3.91519e-10 289808 2.49904e-10 195202)
(4.45172e+06 -1.34548e+06 -2.75692e-10 710669 -6.73229e-10 331687)
(4.0726e+06 -772746 2.21334e-11 639062 -3.18459e-10 311420)
(3.73484e+06 -400057 2.03742e-10 656582 -1.02671e-10 302073)
(3.43049e+06 -155933 3.09328e-10 626610 3.64264e-11 286415)
(3.17664e+06 4734.61 3.70889e-10 610808 1.22997e-10 273962)
(2.95447e+06 108553 4.01485e-10 579312 1.76474e-10 260249)
(2.7672e+06 176918 4.1533e-10 551050 2.09093e-10 248204)
(2.60369e+06 220716 4.17284e-10 515231 2.28351e-10 236013)
(2.46307e+06 248117 4.12618e-10 486169 2.37926e-10 225614)
(2.33547e+06 270483 4.06425e-10 441700 2.47046e-10 213783)
(4.91819e+06 -1.11268e+06 -1.10423e-10 590942 -4.65976e-10 343437)
(4.405e+06 -599093 1.79962e-10 642032 -1.75948e-10 330717)
(3.94618e+06 -257914 3.25804e-10 746450 -1.2045e-12 326258)
(3.55265e+06 -49284.4 3.96965e-10 761032 1.01775e-10 311492)
(3.23719e+06 81274.4 4.31085e-10 767721 1.60655e-10 298497)
(2.97381e+06 160359 4.40306e-10 744168 1.93389e-10 283433)
(2.75874e+06 209117 4.37801e-10 716188 2.10668e-10 269772)
(2.57665e+06 237929 4.27575e-10 676912 2.18849e-10 256000)
(2.42344e+06 253245 4.1336e-10 641210 2.20137e-10 243943)
(2.28769e+06 266008 3.99883e-10 592674 2.2269e-10 231044)
(5.38338e+06 -814696 -1.3122e-10 513010 -2.19534e-10 366263)
(4.70862e+06 -368297 3.70412e-10 706810 -5.20586e-12 357437)
(4.1191e+06 -87839.4 4.6058e-10 884962 1.09883e-10 355267)
(3.63714e+06 56148.8 4.78964e-10 929069 1.59273e-10 339067)
(3.26621e+06 139490 4.75561e-10 942378 1.81498e-10 323528)
(2.96932e+06 184763 4.58657e-10 915194 1.8947e-10 305858)
(2.73336e+06 210181 4.38325e-10 878986 1.90505e-10 289765)
(2.53856e+06 223086 4.1611e-10 831153 1.88082e-10 274025)
(2.37739e+06 227263 3.93558e-10 785732 1.82454e-10 260151)
(2.23683e+06 231377 3.73863e-10 731987 1.79482e-10 246214)
(5.71802e+06 -350412 8.64451e-11 455984 1.45969e-10 385645)
(4.92892e+06 -68229.8 5.93909e-10 880184 1.91794e-10 395142)
(4.19719e+06 80729.4 5.81914e-10 1.09873e+06 2.03312e-10 389362)
(3.64238e+06 128418 5.29322e-10 1.13496e+06 1.83802e-10 367186)
(3.24104e+06 153579 4.84634e-10 1.12383e+06 1.67815e-10 346144)
(2.93017e+06 162641 4.42611e-10 1.07409e+06 1.53268e-10 324338)
(2.68794e+06 166941 4.07777e-10 1.01882e+06 1.42007e-10 305153)
(2.49001e+06 167446 3.77071e-10 957181 1.32711e-10 287287)
(2.32716e+06 164772 3.49748e-10 900287 1.23732e-10 271738)
(2.18544e+06 163580 3.2646e-10 841178 1.17772e-10 256970)
(6.23999e+06 360971 5.48997e-10 749852 6.31531e-10 461355)
(5.02144e+06 365911 8.88047e-10 1.33765e+06 4.33946e-10 465414)
(4.19239e+06 236759 6.85747e-10 1.43289e+06 2.67604e-10 434872)
(3.62022e+06 156921 5.49298e-10 1.3825e+06 1.72301e-10 398773)
(3.21604e+06 122814 4.65609e-10 1.29507e+06 1.25675e-10 366817)
(2.90666e+06 106452 4.07e-10 1.20106e+06 9.954e-11 338959)
(2.66578e+06 100259 3.65173e-10 1.11595e+06 8.48894e-11 315804)
(2.46878e+06 97325.2 3.32106e-10 1.03823e+06 7.525e-11 295838)
(2.30608e+06 94664.5 3.04582e-10 970996 6.74817e-11 278948)
(2.16377e+06 93035.7 2.80866e-10 908887 6.15279e-11 263753)
(-8456.79 2942.53 -3.45636e-11 -4789.92 -1.76267e-11 1374.38)
(6815.56 -10616.3 -4.17936e-11 929.734 -2.67821e-11 3170.04)
(68063.5 -33282.1 -5.50292e-11 -3381 -4.16845e-11 8573.21)
(165978 -51410.3 -6.41422e-11 -6956.81 -5.34381e-11 17613.6)
(279701 -62576.1 -6.80693e-11 -8816.07 -6.05067e-11 28369.9)
(398997 -68919 -6.86045e-11 -9711.14 -6.43435e-11 39778.3)
(515825 -71383.3 -6.66305e-11 -9866.17 -6.56039e-11 51036.6)
(627428 -71529.9 -6.32602e-11 -9512.03 -6.5338e-11 61847.9)
(729770 -69621.8 -5.563e-11 -9313.78 -6.15026e-11 70484.4)
(825208 -68180.8 -4.04088e-11 -7705.44 -5.26739e-11 75455.1)
(11175.2 -11427.3 -4.24369e-11 -684.762 -2.72782e-11 3462.33)
(90147.9 -61642.3 -6.5717e-11 37933.5 -6.14676e-11 13598.8)
(204679 -116980 -9.71386e-11 39560.9 -9.8216e-11 24327.9)
(326101 -159233 -1.22228e-10 27573.8 -1.25892e-10 34801.3)
(448130 -185189 -1.36861e-10 16069.8 -1.4265e-10 45506.4)
(564076 -199707 -1.44233e-10 5646.65 -1.51784e-10 55801)
(671634 -204902 -1.4555e-10 -2391.43 -1.54744e-10 65543.6)
(771286 -204621 -1.33344e-10 -8019.55 -1.47374e-10 70851.8)
(859203 -199044 -1.16822e-10 -12845.3 -1.35707e-10 74666.5)
(942603 -194597 -1.01579e-10 -13269.7 -1.25674e-10 78815.4)
(34544.9 -56010.3 -6.38066e-11 38104.1 -5.78807e-11 8285.21)
(172654 -153735 -1.14674e-10 81740.9 -1.23824e-10 24119.5)
(330678 -222195 -1.54351e-10 75685.9 -1.69068e-10 38360.4)
(475701 -268020 -1.83797e-10 46306.8 -1.98704e-10 49767.8)
(609141 -293238 -2.00143e-10 19124.5 -2.14609e-10 60394.6)
(726740 -305134 -2.02445e-10 -4502.68 -2.17976e-10 67709.9)
(830176 -306727 -1.8835e-10 -22300.3 -2.08246e-10 70504.3)
(922375 -301950 -1.71864e-10 -35162.6 -1.95822e-10 73472.3)
(999476 -291346 -1.53945e-10 -44907.8 -1.81179e-10 76177.3)
(1.0741e+06 -282428 -1.3729e-10 -47740.1 -1.68656e-10 79638.1)
(82855.1 -125862 -9.23783e-11 127084 -1.06365e-10 19107.8)
(284210 -264019 -1.72245e-10 138342 -1.98541e-10 38264.3)
(478060 -335910 -2.15843e-10 114725 -2.45606e-10 54608.8)
(643480 -376192 -2.44097e-10 67043.7 -2.71084e-10 66647.9)
(786698 -392942 -2.47409e-10 25211.3 -2.74367e-10 73352.5)
(906144 -396236 -2.32388e-10 -10914.2 -2.623e-10 74527.7)
(1.00591e+06 -389633 -2.13969e-10 -38725 -2.4631e-10 75946.6)
(1.09148e+06 -377248 -1.93919e-10 -59312.6 -2.2853e-10 77682.4)
(1.15846e+06 -359950 -1.73484e-10 -74884.2 -2.09648e-10 79217.1)
(1.22519e+06 -345333 -1.54544e-10 -81131.1 -1.93633e-10 81918.5)
(165259 -224497 -1.31561e-10 257248 -1.74875e-10 36103.1)
(433811 -383977 -2.33896e-10 200579 -2.79732e-10 56431.7)
(657467 -448499 -2.77027e-10 145183 -3.21108e-10 73312)
(837067 -475393 -2.90044e-10 74206.2 -3.30244e-10 81108.1)
(984547 -477398 -2.70495e-10 17119.3 -3.12547e-10 80959)
(1.1016e+06 -467045 -2.47609e-10 -30825.1 -2.90303e-10 80662)
(1.19499e+06 -448746 -2.23064e-10 -67155.7 -2.66142e-10 80814)
(1.27213e+06 -426266 -1.98138e-10 -93984.3 -2.41683e-10 81456.2)
(1.32813e+06 -400950 -1.7446e-10 -114021 -2.17915e-10 81973.7)
(1.38628e+06 -379427 -1.52563e-10 -122648 -1.97786e-10 84033.8)
(292574 -354072 -1.84023e-10 418523 -2.64612e-10 59536.1)
(626262 -505484 -2.94041e-10 270137 -3.61968e-10 79281.7)
(873677 -549717 -3.2854e-10 174143 -3.8777e-10 94938.3)
(1.0606e+06 -556544 -3.06969e-10 77666.6 -3.65399e-10 91543.4)
(1.20585e+06 -539602 -2.76301e-10 5898.95 -3.33678e-10 89629.7)
(1.3154e+06 -513202 -2.44787e-10 -52203.3 -3.00294e-10 87856.3)
(1.39861e+06 -481746 -2.13737e-10 -95373.6 -2.6751e-10 86791.9)
(1.46432e+06 -448293 -1.83804e-10 -126948 -2.36217e-10 86398.9)
(1.50746e+06 -414722 -1.56996e-10 -150472 -2.07679e-10 85936.5)
(1.55519e+06 -385938 -1.32179e-10 -160666 -1.8345e-10 87374.8)
(473581 -513123 -2.51625e-10 591934 -3.74178e-10 88830.2)
(860933 -623737 -3.50421e-10 342218 -4.41933e-10 106430)
(1.12311e+06 -633820 -3.42876e-10 201958 -4.2549e-10 109796)
(1.30865e+06 -613468 -3.05212e-10 78659.2 -3.82186e-10 103209)
(1.44468e+06 -574453 -2.62503e-10 -6742.31 -3.35087e-10 99363.4)
(1.54108e+06 -530708 -2.22365e-10 -73475.2 -2.90356e-10 96050.3)
(1.60991e+06 -485736 -1.85175e-10 -121678 -2.49274e-10 93801.9)
(1.6607e+06 -441480 -1.50831e-10 -156532 -2.11724e-10 92388.9)
(1.68906e+06 -400205 -1.21494e-10 -182221 -1.79094e-10 91015.9)
(1.72387e+06 -364390 -9.42582e-11 -193347 -1.51202e-10 91788.2)
(716395 -695767 -3.33222e-10 759877 -4.99243e-10 123486)
(1.13592e+06 -734142 -3.98579e-10 414120 -5.15117e-10 136727)
(1.39993e+06 -696625 -3.39795e-10 232903 -4.47179e-10 126718)
(1.57409e+06 -643031 -2.83714e-10 85020.9 -3.80037e-10 116817)
(1.69377e+06 -579793 -2.28646e-10 -11821.2 -3.16994e-10 111001)
(1.7715e+06 -518481 -1.80531e-10 -85319.1 -2.6145e-10 106120)
(1.822e+06 -460666 -1.38177e-10 -137081 -2.13019e-10 102674)
(1.85469e+06 -406798 -1.00609e-10 -173844 -1.70425e-10 100245)
(1.86663e+06 -359141 -6.98027e-11 -201414 -1.34747e-10 97899.6)
(1.88602e+06 -317203 -4.10713e-11 -212704 -1.04091e-10 97969)
(1.0255e+06 -891044 -4.2466e-10 904062 -6.3207e-10 162644)
(1.44718e+06 -832321 -4.11538e-10 480849 -5.61393e-10 159538)
(1.69648e+06 -736411 -3.19347e-10 268215 -4.52489e-10 145506)
(1.84796e+06 -645045 -2.4361e-10 100828 -3.60055e-10 132456)
(1.944e+06 -556391 -1.76449e-10 -3822.33 -2.81311e-10 124798)
(1.99764e+06 -478129 -1.21503e-10 -81945.8 -2.16067e-10 118351)
(2.02632e+06 -408713 -7.52375e-11 -135288 -1.61629e-10 113775)
(2.03762e+06 -347199 -3.61478e-11 -173512 -1.15619e-10 110199)
(2.03243e+06 -294744 -4.93422e-12 -201643 -7.81514e-11 106995)
(2.03324e+06 -247816 2.40451e-11 -216171 -4.53952e-11 105788)
(1.40147e+06 -1.08542e+06 -5.19425e-10 1.01143e+06 -7.63315e-10 205483)
(1.78918e+06 -913698 -4.0964e-10 538947 -5.92976e-10 182983)
(2.00465e+06 -753091 -2.8265e-10 309739 -4.42261e-10 166002)
(2.12132e+06 -621679 -1.87484e-10 130567 -3.24942e-10 150237)
(2.18605e+06 -507618 -1.09281e-10 22745.2 -2.31684e-10 140961)
(2.21044e+06 -413537 -4.89148e-11 -57127.2 -1.58255e-10 133051)
(2.21378e+06 -334215 -2.83289e-13 -110572 -9.93965e-11 127340)
(2.2016e+06 -267236 3.8707e-11 -147992 -5.18515e-11 122778)
(2.17926e+06 -212851 6.85004e-11 -178423 -1.42931e-11 118449)
(2.15877e+06 -165639 9.45512e-11 -189235 1.64251e-11 116672)
(910564 -63273.9 -2.45781e-11 -7701.3 -4.22217e-11 79763.5)
(985705 -56474 -9.06065e-12 -5996.01 -3.15767e-11 83812.5)
(1.05459e+06 -50560.5 4.95699e-12 -4779.19 -2.19899e-11 87474.7)
(1.11646e+06 -45189.1 1.75808e-11 -3875.74 -1.33176e-11 90740.2)
(1.17231e+06 -40206.5 2.90614e-11 -2983.54 -5.40943e-12 93700)
(1.22231e+06 -35743.4 3.93367e-11 -2330.05 1.68808e-12 96330.4)
(1.26715e+06 -31649 4.86104e-11 -1705.98 8.11e-12 98695.7)
(1.30708e+06 -27954.8 5.68981e-11 -1224.63 1.38695e-11 100793)
(1.34262e+06 -24566.8 6.4335e-11 -798.596 1.90616e-11 102661)
(1.37402e+06 -21462.1 7.09734e-11 -466.013 2.3727e-11 104307)
(1.40159e+06 -18573.3 7.69045e-11 -195.019 2.79343e-11 105752)
(1.42552e+06 -15859.4 8.21799e-11 3.12975 3.17268e-11 107004)
(1.446e+06 -13266.9 8.68608e-11 137.99 3.51541e-11 108075)
(1.46311e+06 -10758.1 9.09842e-11 207.225 3.82498e-11 108968)
(1.47691e+06 -8301.34 9.45787e-11 209.136 4.10392e-11 109688)
(1.48749e+06 -5893.73 9.76579e-11 154.024 4.353e-11 110239)
(1.49479e+06 -3569.77 1.00194e-10 39.9773 4.56959e-11 110619)
(1.49915e+06 -1461.63 1.02155e-10 -45.5048 4.74671e-11 110854)
(1.50056e+06 153.111 1.03371e-10 -35.2044 4.86525e-11 110947)
(1.50042e+06 532.241 1.03604e-10 777.247 4.87976e-11 111052)
(1.00974e+06 -181243 -8.33091e-11 -17138.5 -1.10732e-10 81830.2)
(1.06515e+06 -163162 -6.376e-11 -16723.7 -9.41494e-11 84886.4)
(1.11856e+06 -147235 -4.58265e-11 -15319.7 -7.92724e-11 87942.7)
(1.16624e+06 -132367 -2.94261e-11 -14604.4 -6.55007e-11 90609.7)
(1.21044e+06 -118433 -1.41113e-11 -13258.6 -5.27116e-11 93173.5)
(1.25021e+06 -105836 -3.03883e-13 -12372.1 -4.1129e-11 95438.4)
(1.28653e+06 -94173.2 1.24125e-11 -11301.5 -3.04749e-11 97543.7)
(1.31918e+06 -83577.8 2.39073e-11 -10490.6 -2.08079e-11 99417.4)
(1.34866e+06 -73799.4 3.44201e-11 -9708.16 -1.19445e-11 101119)
(1.375e+06 -64800.3 4.39745e-11 -9103.63 -3.84095e-12 102631)
(1.3985e+06 -56408.9 5.27216e-11 -8598.6 3.63162e-12 103979)
(1.41923e+06 -48529.1 6.07344e-11 -8230.65 1.05488e-11 105166)
(1.43738e+06 -41031.5 6.81203e-11 -7962.74 1.70063e-11 106206)
(1.45304e+06 -33827.2 7.49501e-11 -7772.98 2.30693e-11 107109)
(1.46631e+06 -26845.8 8.12819e-11 -7607.85 2.87851e-11 107885)
(1.4773e+06 -20085.9 8.71379e-11 -7353.74 3.41528e-11 108558)
(1.48603e+06 -13628.7 9.2471e-11 -6863.89 3.91013e-11 109145)
(1.49274e+06 -7756.23 9.71527e-11 -5758.79 4.34225e-11 109703)
(1.49715e+06 -2891.82 1.00889e-10 -3546.77 4.67561e-11 110278)
(1.5e+06 -310.745 1.03024e-10 1067.46 4.81718e-11 111057)
(1.12493e+06 -262386 -1.17332e-10 -52872.5 -1.50526e-10 81770.1)
(1.16027e+06 -237728 -9.66774e-11 -51627.6 -1.31386e-10 84028.5)
(1.1983e+06 -215609 -7.71235e-11 -47003.3 -1.14086e-10 86826.4)
(1.23119e+06 -195068 -5.93565e-11 -43976.5 -9.8079e-11 89138.6)
(1.26332e+06 -175497 -4.22775e-11 -39654.1 -8.29267e-11 91569.1)
(1.29219e+06 -157727 -2.68284e-11 -36323.5 -6.91258e-11 93683)
(1.31942e+06 -141099 -1.23313e-11 -32800.4 -5.62405e-11 95724.8)
(1.34412e+06 -125902 8.82178e-13 -29902.9 -4.44435e-11 97539.4)
(1.36694e+06 -111791 1.31353e-11 -27241.1 -3.34947e-11 99215.2)
(1.38762e+06 -98759.2 2.43847e-11 -25065.8 -2.33848e-11 100706)
(1.40645e+06 -86595.1 3.48101e-11 -23249.1 -1.39633e-11 102047)
(1.4234e+06 -75193.1 4.44705e-11 -21840.1 -5.15761e-12 103230)
(1.43861e+06 -64398 5.34851e-11 -20767.1 3.13879e-12 104275)
(1.45215e+06 -54102 6.19332e-11 -19971.6 1.09961e-11 105193)
(1.46408e+06 -44209.2 6.98863e-11 -19329.7 1.84686e-11 106006)
(1.47451e+06 -34685.2 7.73868e-11 -18613.2 2.55621e-11 106749)
(1.48336e+06 -25552.4 8.44172e-11 -17494.1 3.22174e-11 107461)
(1.49082e+06 -16956.7 9.09295e-11 -15308.8 3.82778e-11 108235)
(1.49623e+06 -9161.83 9.66801e-11 -11121.1 4.34048e-11 109158)
(1.50021e+06 -2518.84 1.01584e-10 -3297.12 4.72321e-11 110468)
(1.25973e+06 -319666 -1.33564e-10 -88035.4 -1.72955e-10 83088.3)
(1.27368e+06 -291410 -1.13885e-10 -87276 -1.53188e-10 84270.5)
(1.29577e+06 -265356 -9.42155e-11 -80186.6 -1.34917e-10 86652.3)
(1.3127e+06 -241584 -7.68001e-11 -75898.4 -1.18268e-10 88380.9)
(1.33183e+06 -218445 -5.93954e-11 -69171.8 -1.02133e-10 90528)
(1.34865e+06 -197436 -4.36926e-11 -63914.3 -8.74303e-11 92339.6)
(1.36574e+06 -177533 -2.86277e-11 -58241.6 -7.34836e-11 94203.6)
(1.38143e+06 -159257 -1.48048e-11 -53458 -6.0629e-11 95859.6)
(1.39661e+06 -142172 -1.80597e-12 -49006.9 -4.85656e-11 97430.3)
(1.4107e+06 -126334 1.02364e-11 -45268 -3.73379e-11 98836.5)
(1.42398e+06 -111513 2.15146e-11 -42076.4 -2.67871e-11 100117)
(1.43629e+06 -97614.9 3.20587e-11 -39505.1 -1.68569e-11 101256)
(1.44773e+06 -84474.1 4.19888e-11 -37459.9 -7.44086e-12 102272)
(1.45826e+06 -71969.9 5.13789e-11 -35862.7 1.5302e-12 103177)
(1.46791e+06 -59981.6 6.03085e-11 -34546.1 1.01174e-11 103993)
(1.47671e+06 -48418.4 6.88472e-11 -33223.6 1.83514e-11 104763)
(1.48447e+06 -37221.5 7.7011e-11 -31496.8 2.62087e-11 105528)
(1.49132e+06 -26318.8 8.48825e-11 -28615.4 3.36626e-11 106395)
(1.49633e+06 -15804.2 9.22834e-11 -23614.8 4.04599e-11 107441)
(1.5003e+06 -4916.57 9.98495e-11 -14754 4.69728e-11 108945)
(1.4045e+06 -349371 -1.31306e-10 -129907 -1.75546e-10 84407)
(1.39618e+06 -320987 -1.14896e-10 -129795 -1.57501e-10 84400.4)
(1.40262e+06 -293314 -9.64864e-11 -119337 -1.39869e-10 86466.6)
(1.40322e+06 -268936 -8.11063e-11 -113600 -1.24365e-10 87581.4)
(1.4093e+06 -244449 -6.47516e-11 -103990 -1.08772e-10 89475.1)
(1.41375e+06 -222311 -5.01462e-11 -96388.9 -9.46379e-11 90993.5)
(1.42041e+06 -201018 -3.57207e-11 -88112.9 -8.09537e-11 92698.2)
(1.42671e+06 -181363 -2.23931e-11 -80970.3 -6.82518e-11 94214.1)
(1.43381e+06 -162836 -9.65686e-12 -74279.6 -5.61755e-11 95695.5)
(1.44081e+06 -145569 2.25943e-12 -68542.7 -4.4831e-11 97030.3)
(1.44802e+06 -129345 1.35386e-11 -63588.9 -3.40691e-11 98258.4)
(1.45511e+06 -114091 2.41788e-11 -59517.2 -2.38561e-11 99352.4)
(1.46213e+06 -99649.4 3.42846e-11 -56230.7 -1.40962e-11 100329)
(1.46897e+06 -85889.2 4.39249e-11 -53645.8 -4.72058e-12 101196)
(1.47558e+06 -72663.2 5.31861e-11 -51582.2 4.34209e-12 101976)
(1.48192e+06 -59808 6.21727e-11 -49738.9 1.31628e-11 102710)
(1.48774e+06 -47176.4 7.09449e-11 -47708.5 2.17696e-11 103438)
(1.49311e+06 -34455.8 7.97254e-11 -44765.7 3.02922e-11 104264)
(1.49702e+06 -21635.8 8.83898e-11 -40053.6 3.8554e-11 105250)
(1.50033e+06 -7025.77 9.81557e-11 -31933.1 4.75572e-11 106676)
(1.55672e+06 -353032 -1.11647e-10 -167855 -1.60745e-10 86967.2)
(1.52518e+06 -328177 -1.00961e-10 -170114 -1.4672e-10 85449.1)
(1.5163e+06 -301104 -8.51526e-11 -156731 -1.31115e-10 87127.5)
(1.50024e+06 -278521 -7.3369e-11 -150351 -1.18279e-10 87473.9)
(1.49324e+06 -254678 -5.93217e-11 -138502 -1.04474e-10 89001.5)
(1.48514e+06 -233207 -4.69686e-11 -129018 -9.20576e-11 90132.5)
(1.48114e+06 -212175 -3.42524e-11 -118586 -7.96937e-11 91585.3)
(1.47777e+06 -192599 -2.2375e-11 -109357 -6.8101e-11 92892.1)
(1.47644e+06 -173976 -1.07956e-11 -100631 -5.69077e-11 94221.6)
(1.47598e+06 -156483 1.87576e-13 -92978.3 -4.6264e-11 95438.8)
(1.47666e+06 -139948 1.07231e-11 -86272.6 -3.60492e-11 96575.7)
(1.47806e+06 -124319 2.07785e-11 -80649.3 -2.62478e-11 97594.5)
(1.48014e+06 -109464 3.04325e-11 -76046.2 -1.67828e-11 98503.6)
(1.48273e+06 -95246.3 3.97443e-11 -72411.6 -7.58444e-12 99302.7)
(1.48571e+06 -81504.7 4.87995e-11 -69597 1.42591e-12 100008)
(1.48898e+06 -68013.5 5.77305e-11 -67350.6 1.03612e-11 100649)
(1.49226e+06 -54556.8 6.66355e-11 -65329.1 1.92998e-11 101262)
(1.49555e+06 -40615.6 7.58524e-11 -62940.9 2.85178e-11 101929)
(1.49799e+06 -26121.4 8.53091e-11 -59522.1 3.7911e-11 102697)
(1.50026e+06 -8668.58 9.66335e-11 -53710.8 4.89697e-11 103808)
(1.70916e+06 -330646 -7.56163e-11 -199656 -1.29415e-10 90700.3)
(1.65449e+06 -313274 -7.31481e-11 -206319 -1.21785e-10 87355)
(1.63139e+06 -289112 -6.12377e-11 -191147 -1.0951e-10 88520.5)
(1.59916e+06 -270602 -5.44096e-11 -184848 -1.00722e-10 87996.7)
(1.57952e+06 -249535 -4.39509e-11 -171671 -8.99718e-11 89031.3)
(1.55928e+06 -230443 -3.48596e-11 -160577 -8.03391e-11 89736.5)
(1.54475e+06 -211286 -2.48428e-11 -148295 -7.03156e-11 90881.9)
(1.53188e+06 -193114 -1.52157e-11 -137049 -6.06857e-11 91960.5)
(1.5221e+06 -175593 -5.54289e-12 -126351 -5.11613e-11 93112.1)
(1.51414e+06 -158914 3.85203e-12 -116797 -4.19091e-11 94193.1)
(1.50814e+06 -143014 1.30326e-11 -108361 -3.28764e-11 95215.2)
(1.50363e+06 -127866 2.19384e-11 -101207 -2.40679e-11 96133.6)
(1.50049e+06 -113383 3.06084e-11 -95327.8 -1.54364e-11 96944.7)
(1.49849e+06 -99435.4 3.90861e-11 -90712.5 -6.91792e-12 97639.9)
(1.49746e+06 -85861.4 4.74518e-11 -87269.7 1.57112e-12 98225.4)
(1.49725e+06 -72389.8 5.58534e-11 -84831.8 1.01772e-11 98719)
(1.49761e+06 -58758.6 6.44217e-11 -83157.1 1.90245e-11 99143.5)
(1.49843e+06 -44296.4 7.35693e-11 -81857 2.85038e-11 99553.9)
(1.4992e+06 -28909.6 8.32838e-11 -80484.9 3.85806e-11 99983.3)
(1.50013e+06 -9724.18 9.54083e-11 -78129.1 5.10692e-11 100602)
(1.85569e+06 -283873 -2.50347e-11 -219438 -8.38484e-11 96044.1)
(1.77946e+06 -277839 -3.29886e-11 -232524 -8.47936e-11 90633.7)
(1.7435e+06 -259089 -2.63924e-11 -218306 -7.70735e-11 90960.9)
(1.69661e+06 -246184 -2.52595e-11 -212647 -7.31553e-11 89548)
(1.66485e+06 -229791 -1.95346e-11 -200004 -6.64567e-11 89846.2)
(1.63347e+06 -214416 -1.4411e-11 -188416 -6.02778e-11 90011.2)
(1.60876e+06 -198610 -7.99001e-12 -175524 -5.34002e-11 90683.8)
(1.58681e+06 -183130 -1.36968e-12 -163112 -4.645e-11 91426.8)
(1.56874e+06 -167921 5.6549e-12 -151061 -3.93096e-11 92311.1)
(1.55338e+06 -153130 1.28028e-11 -139956 -3.21082e-11 93200.9)
(1.5407e+06 -138808 2.00384e-11 -129948 -2.48634e-11 94074.9)
(1.53024e+06 -124971 2.72722e-11 -121283 -1.75976e-11 94876.7)
(1.52179e+06 -111591 3.4491e-11 -114066 -1.02975e-11 95583.1)
(1.51507e+06 -98570.9 4.17091e-11 -108384 -2.91354e-12 96170.1)
(1.50987e+06 -85771.2 4.89846e-11 -104247 4.63193e-12 96628.7)
(1.506e+06 -72911.1 5.64613e-11 -101621 1.25025e-11 96956.1)
(1.50327e+06 -59713.1 6.42877e-11 -100404 2.08552e-11 97161.4)
(1.50145e+06 -45422.1 7.29021e-11 -100469 3.01549e-11 97260)
(1.50046e+06 -29943.4 8.23563e-11 -101590 4.04316e-11 97278.6)
(1.49994e+06 -10165.2 9.4536e-11 -103440 5.36724e-11 97284.1)
(1.99136e+06 -217243 3.66277e-11 -223340 -2.79007e-11 103194)
(1.89582e+06 -224626 1.72717e-11 -243811 -3.8496e-11 95675.8)
(1.84794e+06 -215146 1.61525e-11 -236980 -3.70603e-11 94319.5)
(1.78925e+06 -208945 1.13139e-11 -232909 -3.83868e-11 92020.8)
(1.7459e+06 -199186 1.11326e-11 -222252 -3.68236e-11 91392.2)
(1.70491e+06 -188445 1.19417e-11 -210464 -3.45419e-11 91042.5)
(1.67079e+06 -176754 1.4402e-11 -197227 -3.12189e-11 91236.1)
(1.64066e+06 -164549 1.77799e-11 -183949 -2.72239e-11 91639.9)
(1.61491e+06 -152168 2.1918e-11 -170929 -2.27126e-11 92230.3)
(1.59263e+06 -139793 2.65519e-11 -158744 -1.78168e-11 92884.1)
(1.57361e+06 -127585 3.15459e-11 -147652 -1.26299e-11 93554.6)
(1.55738e+06 -115609 3.67826e-11 -137954 -7.20043e-12 94178.9)
(1.54368e+06 -103886 4.22051e-11 -129833 -1.54305e-12 94720.1)
(1.53222e+06 -92355.8 4.78039e-11 -123460 4.3772e-12 95141.2)
(1.5228e+06 -80900.8 5.36183e-11 -118949 1.06336e-11 95419.8)
(1.51514e+06 -69252.9 5.97731e-11 -116413 1.73941e-11 95531.2)
(1.50922e+06 -57140 6.64308e-11 -115906 2.48416e-11 95470.2)
(1.50463e+06 -43789.5 7.40094e-11 -117587 3.34719e-11 95207.6)
(1.50185e+06 -29103.9 8.26388e-11 -121463 4.33891e-11 94766.4)
(1.49975e+06 -9954.44 9.4089e-11 -127887 5.66074e-11 94088.2)
(2.10442e+06 -131698 1.06932e-10 -215503 3.72888e-11 111014)
(2.00734e+06 -148022 8.1876e-11 -231980 2.01952e-11 103817)
(1.94599e+06 -151792 7.01802e-11 -239332 1.33666e-11 99757.9)
(1.88066e+06 -153250 5.94624e-11 -240680 7.03981e-12 96316.7)
(1.82578e+06 -152415 5.18599e-11 -236489 2.4747e-12 94149)
(1.77574e+06 -148898 4.67401e-11 -228277 -3.71601e-13 92783.1)
(1.73211e+06 -143518 4.38051e-11 -217118 -1.78429e-12 92145.8)
(1.6936e+06 -136579 4.26399e-11 -204478 -1.90392e-12 91977.9)
(1.6601e+06 -128563 4.29079e-11 -191164 -9.67091e-13 92160.8)
(1.63089e+06 -119826 4.4263e-11 -178055 8.32864e-13 92540.6)
(1.60561e+06 -110657 4.64587e-11 -165695 3.33678e-12 93024.1)
(1.58376e+06 -101260 4.92826e-11 -154590 6.42561e-12 93517.5)
(1.56502e+06 -91758.3 5.25985e-11 -145100 1.00307e-11 93955.5)
(1.549e+06 -82180.8 5.6326e-11 -137555 1.41401e-11 94276.2)
(1.53549e+06 -72480.2 6.04568e-11 -132210 1.87963e-11 94436.3)
(1.52416e+06 -62447.2 6.50642e-11 -129364 2.41435e-11 94383.3)
(1.51508e+06 -51851.2 7.02979e-11 -129248 3.0367e-11 94094)
(1.50773e+06 -39976.3 7.65132e-11 -132334 3.79499e-11 93490.1)
(1.50313e+06 -26737.1 8.39108e-11 -138877 4.70643e-11 92590.7)
(1.49948e+06 -9190.7 9.40272e-11 -149926 5.96238e-11 91210.1)
(2.16863e+06 -61075.9 1.61e-10 -191801 8.66652e-11 118271)
(2.07928e+06 -69693.3 1.41877e-10 -208988 7.53993e-11 111472)
(2.009e+06 -85859.2 1.20925e-10 -225732 6.0704e-11 105573)
(1.94156e+06 -93460.6 1.05938e-10 -232967 5.08156e-11 101174)
(1.88188e+06 -98812.8 9.36703e-11 -233177 4.22615e-11 98108.1)
(1.82723e+06 -101190 8.41083e-11 -228797 3.55708e-11 95931.8)
(1.77865e+06 -101226 7.69986e-11 -220530 3.04926e-11 94596.6)
(1.73509e+06 -99329.4 7.1891e-11 -210062 2.68625e-11 93824.3)
(1.69656e+06 -95869.2 6.85413e-11 -198250 2.45375e-11 93499.5)
(1.66247e+06 -91233.5 6.65935e-11 -186098 2.33243e-11 93455.4)
(1.63254e+06 -85723.7 6.58041e-11 -174274 2.30777e-11 93586.9)
(1.6063e+06 -79592.8 6.5934e-11 -163409 2.36647e-11 93785.8)
(1.58347e+06 -73014.3 6.6818e-11 -153985 2.50001e-11 93971.7)
(1.56367e+06 -66078.2 6.83364e-11 -146461 2.70467e-11 94065.3)
(1.54672e+06 -58797.8 7.04451e-11 -141228 2.98257e-11 94006.7)
(1.53227e+06 -51046 7.31592e-11 -138746 3.34438e-11 93720)
(1.52052e+06 -42659.6 7.65999e-11 -139419 3.80713e-11 93164)
(1.5108e+06 -33081.8 8.09984e-11 -143984 4.41058e-11 92217.9)
(1.50457e+06 -22254.7 8.65976e-11 -152931 5.17649e-11 90890.7)
(1.49941e+06 -7675.65 9.45551e-11 -167955 6.26933e-11 88875.7)
(2.13603e+06 8463.37 1.99962e-10 -165327 1.26829e-10 121066)
(2.06583e+06 -1526.98 1.82431e-10 -201267 1.18431e-10 112752)
(2.0012e+06 -21310 1.60061e-10 -218618 1.01891e-10 107005)
(1.93991e+06 -34257.5 1.42612e-10 -228405 8.92819e-11 102504)
(1.88462e+06 -44457.5 1.27949e-10 -230359 7.80956e-11 99362.3)
(1.83326e+06 -51681.7 1.15828e-10 -227588 6.86638e-11 97072.6)
(1.78687e+06 -56346.5 1.06134e-10 -220795 6.08806e-11 95589.8)
(1.74455e+06 -58868.8 9.84361e-11 -211620 5.4584e-11 94650)
(1.70651e+06 -59580.4 9.25391e-11 -200909 4.96687e-11 94147.8)
(1.67229e+06 -58849.5 8.81234e-11 -189667 4.59687e-11 93924.6)
(1.64177e+06 -56967.2 8.49738e-11 -178579 4.33596e-11 93881)
(1.61462e+06 -54192.4 8.28648e-11 -168312 4.17191e-11 93909.7)
(1.59064e+06 -50712.7 8.16398e-11 -159391 4.0968e-11 93930.5)
(1.56956e+06 -46654 8.11667e-11 -152337 4.10589e-11 93859.8)
(1.55129e+06 -42064.8 8.13919e-11 -147604 4.20047e-11 93632.8)
(1.53552e+06 -36903.9 8.22833e-11 -145752 4.38712e-11 93162.7)
(1.52257e+06 -31057.4 8.39456e-11 -147280 4.68171e-11 92400.6)
(1.51176e+06 -24176.3 8.64764e-11 -153076 5.11189e-11 91202.4)
(1.50487e+06 -16274 9.01177e-11 -163824 5.69963e-11 89567.2)
(1.49914e+06 -5601.46 9.55009e-11 -181466 6.55954e-11 87128.4)
(2.11144e+06 78201.8 2.40358e-10 -133955 1.67239e-10 124900)
(2.04674e+06 62357.8 2.19879e-10 -175707 1.56103e-10 116020)
(1.99198e+06 38989 1.96663e-10 -197218 1.38507e-10 110171)
(1.93548e+06 21725.6 1.77147e-10 -211498 1.23967e-10 105263)
(1.88461e+06 7433.56 1.60512e-10 -217264 1.10886e-10 101786)
(1.83592e+06 -3939.14 1.46135e-10 -217919 9.9332e-11 99125.2)
(1.79148e+06 -12626 1.34167e-10 -214002 8.93862e-11 97308.8)
(1.75028e+06 -19077.9 1.24139e-10 -207252 8.0866e-11 96053.8)
(1.71283e+06 -23556.3 1.15943e-10 -198512 7.3737e-11 95271.4)
(1.67871e+06 -26410 1.09278e-10 -188852 6.78585e-11 94797.8)
(1.64796e+06 -27905.9 1.03965e-10 -179006 6.31399e-11 94534)
(1.62031e+06 -28299.4 9.97895e-11 -169711 5.94753e-11 94367.6)
(1.59566e+06 -27788.7 9.65992e-11 -161563 5.67934e-11 94212.9)
(1.57378e+06 -26527.5 9.4253e-11 -155155 5.50425e-11 93979.8)
(1.55464e+06 -24606.9 9.26749e-11 -151031 5.42214e-11 93593.6)
(1.53802e+06 -22067.2 9.17927e-11 -149821 5.43566e-11 92960.7)
(1.52425e+06 -18853.8 9.16775e-11 -152167 5.55874e-11 92015.2)
(1.51271e+06 -14876.2 9.22709e-11 -158950 5.80218e-11 90611.9)
(1.5054e+06 -10098.4 9.38777e-11 -170947 6.19422e-11 88749.5)
(1.49909e+06 -3483.97 9.66045e-11 -190570 6.80373e-11 85967)
(2.06785e+06 132304 2.68072e-10 -107589 1.96285e-10 126921)
(2.01177e+06 116077 2.48539e-10 -154062 1.86167e-10 117849)
(1.96624e+06 91592.3 2.25952e-10 -178190 1.68912e-10 112101)
(1.91604e+06 72279.4 2.06037e-10 -195449 1.53893e-10 107089)
(1.87078e+06 55302.7 1.88514e-10 -203841 1.39814e-10 103511)
(1.82626e+06 40958.6 1.72859e-10 -206937 1.26929e-10 100698)
(1.78518e+06 29105.8 1.59377e-10 -205216 1.15427e-10 98718.4)
(1.74648e+06 19427.9 1.47671e-10 -200429 1.05211e-10 97286.9)
(1.71089e+06 11730 1.37713e-10 -193403 9.63088e-11 96329.1)
(1.67808e+06 5725.67 1.29251e-10 -185219 8.86277e-11 95684)
(1.64819e+06 1184.93 1.22145e-10 -176625 8.21136e-11 95257.9)
(1.62106e+06 -2127.68 1.16208e-10 -168383 7.66843e-11 94939.3)