/*--------------------------------*- C++ -*----------------------------------*\
  =========                 |
  \\      /  F ield         | OpenFOAM: The Open Source CFD Toolbox
   \\    /   O peration     | Website:  https://openfoam.org
    \\  /    A nd           | Version:  9
     \\/     M anipulation  |
\*---------------------------------------------------------------------------*/
FoamFile
{
    format      ascii;
    class       volVectorField;
    location    "5";
    object      D;
}
// * * * * * * * * * * * * * * * * * * * * * * * * * * * * * * * * * * * * * //

dimensions      [0 1 0 0 0 0 0];

internalField   nonuniform List<vector> 
1000
(
(3.38042e-06 1.13643e-06 0)
(3.15432e-06 1.25524e-06 0)
(2.98982e-06 1.35525e-06 0)
(2.87093e-06 1.43344e-06 0)
(2.7861e-06 1.50093e-06 0)
(2.72625e-06 1.55902e-06 0)
(2.68573e-06 1.61136e-06 0)
(2.66002e-06 1.65904e-06 0)
(2.64552e-06 1.70354e-06 0)
(2.64043e-06 1.74572e-06 0)
(3.04628e-06 1.02465e-06 0)
(2.81148e-06 1.11099e-06 0)
(2.64179e-06 1.18674e-06 0)
(2.51971e-06 1.24523e-06 0)
(2.43272e-06 1.29662e-06 0)
(2.37113e-06 1.34081e-06 0)
(2.32894e-06 1.38091e-06 0)
(2.30134e-06 1.41759e-06 0)
(2.28465e-06 1.45162e-06 0)
(2.27641e-06 1.48483e-06 0)
(2.70502e-06 9.12647e-07 0)
(2.46804e-06 9.64384e-07 0)
(2.29783e-06 1.01485e-06 0)
(2.17602e-06 1.05341e-06 0)
(2.08951e-06 1.08896e-06 0)
(2.02826e-06 1.11984e-06 0)
(1.98602e-06 1.14849e-06 0)
(1.95788e-06 1.17502e-06 0)
(1.94014e-06 1.19959e-06 0)
(1.9302e-06 1.22422e-06 0)
(2.35835e-06 8.02203e-07 0)
(2.12606e-06 8.18573e-07 0)
(1.96027e-06 8.4367e-07 0)
(1.84247e-06 8.62717e-07 0)
(1.75931e-06 8.83194e-07 0)
(1.70063e-06 9.01722e-07 0)
(1.66015e-06 9.19984e-07 0)
(1.63291e-06 9.37436e-07 0)
(1.61543e-06 9.53734e-07 0)
(1.60487e-06 9.70691e-07 0)
(2.00716e-06 6.94957e-07 0)
(1.7866e-06 6.76636e-07 0)
(1.63043e-06 6.77376e-07 0)
(1.52065e-06 6.7818e-07 0)
(1.4439e-06 6.85049e-07 0)
(1.39015e-06 6.92736e-07 0)
(1.35322e-06 7.02156e-07 0)
(1.32828e-06 7.11981e-07 0)
(1.31217e-06 7.21454e-07 0)
(1.30194e-06 7.31935e-07 0)
(1.65297e-06 5.91678e-07 0)
(1.45063e-06 5.40759e-07 0)
(1.3094e-06 5.19501e-07 0)
(1.21184e-06 5.0437e-07 0)
(1.14464e-06 4.99937e-07 0)
(1.09815e-06 4.98942e-07 0)
(1.0665e-06 5.01534e-07 0)
(1.04516e-06 5.05558e-07 0)
(1.03135e-06 5.09949e-07 0)
(1.02223e-06 5.15489e-07 0)
(1.29441e-06 4.92303e-07 0)
(1.11735e-06 4.12405e-07 0)
(9.96829e-07 3.73193e-07 0)
(9.15943e-07 3.45901e-07 0)
(8.6155e-07 3.33514e-07 0)
(8.24571e-07 3.26711e-07 0)
(7.99745e-07 3.24913e-07 0)
(7.83055e-07 3.25233e-07 0)
(7.72266e-07 3.26433e-07 0)
(7.64835e-07 3.28707e-07 0)
(9.3402e-07 3.94009e-07 0)
(7.88133e-07 2.91089e-07 0)
(6.94507e-07 2.40907e-07 0)
(6.34608e-07 2.07282e-07 0)
(5.95724e-07 1.91557e-07 0)
(5.6984e-07 1.82553e-07 0)
(5.52753e-07 1.79144e-07 0)
(5.41275e-07 1.7801e-07 0)
(5.33845e-07 1.77924e-07 0)
(5.28462e-07 1.78645e-07 0)
(5.63725e-07 2.87105e-07 0)
(4.60698e-07 1.73326e-07 0)
(4.01487e-07 1.24015e-07 0)
(3.66337e-07 9.33595e-08 0)
(3.45019e-07 8.0242e-08 0)
(3.31063e-07 7.3016e-08 0)
(3.22052e-07 7.05328e-08 0)
(3.15885e-07 6.9729e-08 0)
(3.11826e-07 6.97122e-08 0)
(3.08627e-07 7.01025e-08 0)
(1.94241e-07 1.50219e-07 0)
(1.46489e-07 6.37552e-08 0)
(1.28279e-07 3.33945e-08 0)
(1.18644e-07 1.81529e-08 0)
(1.13047e-07 1.2916e-08 0)
(1.09137e-07 1.05589e-08 0)
(1.06581e-07 1.02444e-08 0)
(1.04705e-07 1.04585e-08 0)
(1.03423e-07 1.08616e-08 0)
(1.0229e-07 1.13044e-08 0)
(5.96169e-06 1.84166e-06 0)
(5.95189e-06 2.07085e-06 0)
(5.94515e-06 2.2844e-06 0)
(5.94543e-06 2.47991e-06 0)
(5.95444e-06 2.65938e-06 0)
(5.97283e-06 2.82505e-06 0)
(6.00071e-06 2.97949e-06 0)
(6.03749e-06 3.12495e-06 0)
(6.08287e-06 3.26319e-06 0)
(6.13568e-06 3.39619e-06 0)
(5.77472e-06 1.8265e-06 0)
(5.74828e-06 2.05502e-06 0)
(5.73029e-06 2.26597e-06 0)
(5.72235e-06 2.45754e-06 0)
(5.72536e-06 2.6322e-06 0)
(5.73876e-06 2.79233e-06 0)
(5.76211e-06 2.94075e-06 0)
(5.79433e-06 3.07983e-06 0)
(5.83498e-06 3.21143e-06 0)
(5.88246e-06 3.33776e-06 0)
(5.57641e-06 1.79577e-06 0)
(5.53026e-06 2.0237e-06 0)
(5.49695e-06 2.23035e-06 0)
(5.47692e-06 2.41574e-06 0)
(5.47036e-06 2.58362e-06 0)
(5.47572e-06 2.73668e-06 0)
(5.49202e-06 2.87797e-06 0)
(5.51762e-06 3.00988e-06 0)
(5.55191e-06 3.13432e-06 0)
(5.59277e-06 3.2536e-06 0)
(5.36209e-06 1.75111e-06 0)
(5.29379e-06 1.97794e-06 0)
(5.24268e-06 2.17933e-06 0)
(5.20832e-06 2.35716e-06 0)
(5.19004e-06 2.51687e-06 0)
(5.18542e-06 2.66156e-06 0)
(5.19302e-06 2.79456e-06 0)
(5.21061e-06 2.91827e-06 0)
(5.23748e-06 3.0347e-06 0)
(5.27084e-06 3.14611e-06 0)
(5.12931e-06 1.69293e-06 0)
(5.03673e-06 1.91686e-06 0)
(4.96657e-06 2.11132e-06 0)
(4.91708e-06 2.27985e-06 0)
(4.88641e-06 2.4298e-06 0)
(4.87125e-06 2.56469e-06 0)
(4.86963e-06 2.68816e-06 0)
(4.87883e-06 2.80261e-06 0)
(4.89796e-06 2.91015e-06 0)
(4.92364e-06 3.01289e-06 0)
(4.87773e-06 1.62259e-06 0)
(4.75948e-06 1.84053e-06 0)
(4.66987e-06 2.02605e-06 0)
(4.60529e-06 2.1837e-06 0)
(4.56233e-06 2.32256e-06 0)
(4.53678e-06 2.44647e-06 0)
(4.52609e-06 2.5594e-06 0)
(4.52706e-06 2.66367e-06 0)
(4.5386e-06 2.76153e-06 0)
(4.55686e-06 2.85482e-06 0)
(4.60799e-06 1.54116e-06 0)
(4.46371e-06 1.74896e-06 0)
(4.35506e-06 1.92299e-06 0)
(4.27608e-06 2.068e-06 0)
(4.2216e-06 2.19451e-06 0)
(4.1864e-06 2.30641e-06 0)
(4.16732e-06 2.40794e-06 0)
(4.16071e-06 2.50131e-06 0)
(4.16522e-06 2.58885e-06 0)
(4.17668e-06 2.6721e-06 0)
(4.3215e-06 1.45015e-06 0)
(4.15208e-06 1.64299e-06 0)
(4.02561e-06 1.80271e-06 0)
(3.93347e-06 1.93335e-06 0)
(3.86868e-06 2.04639e-06 0)
(3.82495e-06 2.14548e-06 0)
(3.79847e-06 2.23502e-06 0)
(3.78522e-06 2.31695e-06 0)
(3.78351e-06 2.39375e-06 0)
(3.78907e-06 2.46644e-06 0)
(4.02006e-06 1.35113e-06 0)
(3.82775e-06 1.52396e-06 0)
(3.68552e-06 1.66643e-06 0)
(3.58202e-06 1.78101e-06 0)
(3.50851e-06 1.87957e-06 0)
(3.45768e-06 1.96526e-06 0)
(3.42503e-06 2.0424e-06 0)
(3.40628e-06 2.1127e-06 0)
(3.39926e-06 2.17844e-06 0)
(3.40003e-06 2.24044e-06 0)
(3.70568e-06 1.24592e-06 0)
(3.49407e-06 1.39386e-06 0)
(3.33891e-06 1.51631e-06 0)
(3.22632e-06 1.61331e-06 0)
(3.14602e-06 1.69661e-06 0)
(3.0897e-06 1.76854e-06 0)
(3.05231e-06 1.83321e-06 0)
(3.02932e-06 1.89185e-06 0)
(3.01806e-06 1.94672e-06 0)
(3.01542e-06 1.99735e-06 0)
(6.19879e-06 3.52412e-06 0)
(6.27123e-06 3.6511e-06 0)
(6.34924e-06 3.77603e-06 0)
(6.43217e-06 3.89953e-06 0)
(6.51961e-06 4.02222e-06 0)
(6.61105e-06 4.14444e-06 0)
(6.70611e-06 4.26664e-06 0)
(6.80438e-06 4.38907e-06 0)
(6.90553e-06 4.51202e-06 0)
(7.00923e-06 4.63569e-06 0)
(7.11517e-06 4.76027e-06 0)
(7.22307e-06 4.88592e-06 0)
(7.33268e-06 5.01278e-06 0)
(7.44372e-06 5.14093e-06 0)
(7.55595e-06 5.27046e-06 0)
(7.66911e-06 5.4014e-06 0)
(7.78298e-06 5.53373e-06 0)
(7.89728e-06 5.66734e-06 0)
(8.01182e-06 5.80201e-06 0)
(8.12634e-06 5.93733e-06 0)
(5.94825e-06 3.46086e-06 0)
(6.02961e-06 3.58573e-06 0)
(6.11534e-06 3.70868e-06 0)
(6.20474e-06 3.83042e-06 0)
(6.29767e-06 3.95161e-06 0)
(6.39371e-06 4.07257e-06 0)
(6.49264e-06 4.19373e-06 0)
(6.59415e-06 4.31534e-06 0)
(6.69802e-06 4.43768e-06 0)
(6.80399e-06 4.56093e-06 0)
(6.91184e-06 4.68528e-06 0)
(7.02137e-06 4.81087e-06 0)
(7.13239e-06 4.93784e-06 0)
(7.24468e-06 5.06628e-06 0)
(7.35809e-06 5.19626e-06 0)
(7.47242e-06 5.32781e-06 0)
(7.58749e-06 5.46092e-06 0)
(7.70313e-06 5.59547e-06 0)
(7.81917e-06 5.73126e-06 0)
(7.93534e-06 5.86794e-06 0)
(5.66218e-06 3.37307e-06 0)
(5.75506e-06 3.49815e-06 0)
(5.85108e-06 3.62139e-06 0)
(5.94935e-06 3.74337e-06 0)
(6.05012e-06 3.86489e-06 0)
(6.15295e-06 3.98621e-06 0)
(6.25786e-06 4.10782e-06 0)
(6.36459e-06 4.22995e-06 0)
(6.47306e-06 4.3529e-06 0)
(6.58309e-06 4.47685e-06 0)
(6.69457e-06 4.60199e-06 0)
(6.80736e-06 4.72848e-06 0)
(6.92134e-06 4.85644e-06 0)
(7.0364e-06 4.98598e-06 0)
(7.15241e-06 5.11717e-06 0)
(7.26925e-06 5.25008e-06 0)
(7.38682e-06 5.38471e-06 0)
(7.50495e-06 5.52101e-06 0)
(7.62353e-06 5.65889e-06 0)
(7.74221e-06 5.79811e-06 0)
(5.34481e-06 3.26265e-06 0)
(5.45135e-06 3.38976e-06 0)
(5.55986e-06 3.5151e-06 0)
(5.6691e-06 3.63895e-06 0)
(5.77973e-06 3.76233e-06 0)
(5.89129e-06 3.88541e-06 0)
(6.00402e-06 4.00876e-06 0)
(6.11773e-06 4.13259e-06 0)
(6.23247e-06 4.25725e-06 0)
(6.34814e-06 4.38292e-06 0)
(6.46475e-06 4.50982e-06 0)
(6.58222e-06 4.6381e-06 0)
(6.70052e-06 4.76791e-06 0)
(6.81959e-06 4.89937e-06 0)
(6.9394e-06 5.03258e-06 0)
(7.05987e-06 5.16762e-06 0)
(7.18094e-06 5.30457e-06 0)
(7.30248e-06 5.44343e-06 0)
(7.42442e-06 5.58426e-06 0)
(7.5464e-06 5.72697e-06 0)
(5.00303e-06 3.1275e-06 0)
(5.12486e-06 3.25868e-06 0)
(5.24754e-06 3.38821e-06 0)
(5.36928e-06 3.51577e-06 0)
(5.49132e-06 3.64274e-06 0)
(5.61307e-06 3.76914e-06 0)
(5.73503e-06 3.89567e-06 0)
(5.85706e-06 4.02255e-06 0)
(5.97934e-06 4.15014e-06 0)
(6.10188e-06 4.27866e-06 0)
(6.22475e-06 4.40836e-06 0)
(6.34798e-06 4.53941e-06 0)
(6.47161e-06 4.67198e-06 0)
(6.59566e-06 4.80622e-06 0)
(6.72014e-06 4.94225e-06 0)
(6.84505e-06 5.08022e-06 0)
(6.97037e-06 5.22023e-06 0)
(7.09603e-06 5.36242e-06 0)
(7.22198e-06 5.50696e-06 0)
(7.34792e-06 5.6539e-06 0)
(4.64243e-06 2.9684e-06 0)
(4.78071e-06 3.10558e-06 0)
(4.9188e-06 3.24122e-06 0)
(5.05421e-06 3.37422e-06 0)
(5.1888e-06 3.5064e-06 0)
(5.32186e-06 3.63764e-06 0)
(5.45414e-06 3.76874e-06 0)
(5.58553e-06 3.89995e-06 0)
(5.71637e-06 4.03167e-06 0)
(5.84672e-06 4.16416e-06 0)
(5.97676e-06 4.29769e-06 0)
(6.1066e-06 4.43247e-06 0)
(6.23635e-06 4.56869e-06 0)
(6.3661e-06 4.70655e-06 0)
(6.49592e-06 4.8462e-06 0)
(6.62589e-06 4.98783e-06 0)
(6.75604e-06 5.13162e-06 0)
(6.88635e-06 5.27777e-06 0)
(7.01683e-06 5.42662e-06 0)
(7.14726e-06 5.57831e-06 0)
(4.26899e-06 2.78566e-06 0)
(4.42431e-06 2.93074e-06 0)
(4.57856e-06 3.07439e-06 0)
(4.72838e-06 3.21461e-06 0)
(4.8763e-06 3.35357e-06 0)
(5.02145e-06 3.49114e-06 0)
(5.1648e-06 3.62817e-06 0)
(5.30631e-06 3.76498e-06 0)
(5.44641e-06 3.902e-06 0)
(5.58526e-06 4.03956e-06 0)
(5.72312e-06 4.17795e-06 0)
(5.86018e-06 4.31742e-06 0)
(5.99661e-06 4.4582e-06 0)
(6.13258e-06 4.60051e-06 0)
(6.26824e-06 4.74456e-06 0)
(6.40371e-06 4.89056e-06 0)
(6.53908e-06 5.03877e-06 0)
(6.67443e-06 5.18946e-06 0)
(6.80981e-06 5.34308e-06 0)
(6.94515e-06 5.49987e-06 0)
(3.88833e-06 2.58091e-06 0)
(4.06074e-06 2.73571e-06 0)
(4.23134e-06 2.88887e-06 0)
(4.39592e-06 3.03794e-06 0)
(4.5575e-06 3.18511e-06 0)
(4.71521e-06 3.33044e-06 0)
(4.8701e-06 3.47471e-06 0)
(5.02224e-06 3.61836e-06 0)
(5.17211e-06 3.76184e-06 0)
(5.31995e-06 3.90553e-06 0)
(5.4661e-06 4.04976e-06 0)
(5.61081e-06 4.19484e-06 0)
(5.75433e-06 4.34103e-06 0)
(5.89689e-06 4.48858e-06 0)
(6.0387e-06 4.63773e-06 0)
(6.17996e-06 4.78875e-06 0)
(6.32082e-06 4.94194e-06 0)
(6.46145e-06 5.09762e-06 0)
(6.60196e-06 5.25636e-06 0)
(6.74246e-06 5.41844e-06 0)
(3.5062e-06 2.35609e-06 0)
(3.69524e-06 2.52249e-06 0)
(3.88175e-06 2.68634e-06 0)
(4.06117e-06 2.84577e-06 0)
(4.23637e-06 3.00233e-06 0)
(4.40678e-06 3.15655e-06 0)
(4.57334e-06 3.30914e-06 0)
(4.73629e-06 3.46066e-06 0)
(4.89613e-06 3.61161e-06 0)
(5.05319e-06 3.76241e-06 0)
(5.20786e-06 3.91344e-06 0)
(5.36045e-06 4.06503e-06 0)
(5.51128e-06 4.21748e-06 0)
(5.66063e-06 4.37106e-06 0)
(5.80879e-06 4.52605e-06 0)
(5.956e-06 4.68272e-06 0)
(6.10249e-06 4.84143e-06 0)
(6.24854e-06 5.00253e-06 0)
(6.39429e-06 5.16663e-06 0)
(6.5401e-06 5.33407e-06 0)
(3.12706e-06 2.11462e-06 0)
(3.33187e-06 2.29383e-06 0)
(3.53261e-06 2.46871e-06 0)
(3.72651e-06 2.6396e-06 0)
(3.91506e-06 2.8068e-06 0)
(4.09825e-06 2.97114e-06 0)
(4.27665e-06 3.1332e-06 0)
(4.45062e-06 3.29363e-06 0)
(4.62065e-06 3.45298e-06 0)
(4.78713e-06 3.61175e-06 0)
(4.95049e-06 3.77037e-06 0)
(5.1111e-06 3.9292e-06 0)
(5.26935e-06 4.08859e-06 0)
(5.42558e-06 4.24884e-06 0)
(5.58013e-06 4.41025e-06 0)
(5.73332e-06 4.5731e-06 0)
(5.88546e-06 4.73777e-06 0)
(6.03691e-06 4.9046e-06 0)
(6.18789e-06 5.07423e-06 0)
(6.33899e-06 5.24701e-06 0)
(2.83464e-06 1.9336e-06 0)
(3.04819e-06 2.12212e-06 0)
(3.25641e-06 2.30323e-06 0)
(3.45816e-06 2.48066e-06 0)
(3.65429e-06 2.65437e-06 0)
(3.84481e-06 2.82515e-06 0)
(4.03023e-06 2.99354e-06 0)
(4.21086e-06 3.16011e-06 0)
(4.38713e-06 3.32537e-06 0)
(4.55943e-06 3.48978e-06 0)
(4.72818e-06 3.65376e-06 0)
(4.89377e-06 3.81765e-06 0)
(5.05658e-06 3.98179e-06 0)
(5.217e-06 4.14647e-06 0)
(5.37537e-06 4.31197e-06 0)
(5.53209e-06 4.47858e-06 0)
(5.68747e-06 4.6466e-06 0)
(5.84198e-06 4.8164e-06 0)
(5.99588e-06 4.98849e-06 0)
(6.14995e-06 5.1632e-06 0)
(2.63956e-06 1.82538e-06 0)
(2.85313e-06 2.01386e-06 0)
(3.0614e-06 2.19645e-06 0)
(3.2638e-06 2.37587e-06 0)
(3.46092e-06 2.55206e-06 0)
(3.65268e-06 2.72554e-06 0)
(3.83952e-06 2.89676e-06 0)
(4.02165e-06 3.06617e-06 0)
(4.19944e-06 3.2342e-06 0)
(4.37322e-06 3.40123e-06 0)
(4.54338e-06 3.56762e-06 0)
(4.71025e-06 3.73369e-06 0)
(4.87422e-06 3.89972e-06 0)
(5.03566e-06 4.06597e-06 0)
(5.19491e-06 4.2327e-06 0)
(5.35236e-06 4.40015e-06 0)
(5.50837e-06 4.56858e-06 0)
(5.66341e-06 4.73829e-06 0)
(5.81779e-06 4.90969e-06 0)
(5.97239e-06 5.083e-06 0)
(2.46739e-06 1.72149e-06 0)
(2.67709e-06 1.9094e-06 0)
(2.88322e-06 2.09251e-06 0)
(3.08406e-06 2.27314e-06 0)
(3.28037e-06 2.45109e-06 0)
(3.47176e-06 2.62671e-06 0)
(3.65862e-06 2.80032e-06 0)
(3.84101e-06 2.97223e-06 0)
(4.01924e-06 3.14277e-06 0)
(4.19357e-06 3.31225e-06 0)
(4.36433e-06 3.48096e-06 0)
(4.53182e-06 3.64914e-06 0)
(4.69638e-06 3.81703e-06 0)
(4.85836e-06 3.98486e-06 0)
(5.0181e-06 4.15281e-06 0)
(5.17599e-06 4.3211e-06 0)
(5.33238e-06 4.4899e-06 0)
(5.48777e-06 4.65945e-06 0)
(5.64247e-06 4.83e-06 0)
(5.79745e-06 5.00171e-06 0)
(2.31308e-06 1.62144e-06 0)
(2.51775e-06 1.80782e-06 0)
(2.72017e-06 1.99075e-06 0)
(2.91801e-06 2.17208e-06 0)
(3.1121e-06 2.35139e-06 0)
(3.30182e-06 2.5288e-06 0)
(3.48748e-06 2.70451e-06 0)
(3.66904e-06 2.87869e-06 0)
(3.84674e-06 3.05156e-06 0)
(4.02076e-06 3.22334e-06 0)
(4.19136e-06 3.39423e-06 0)
(4.35881e-06 3.56443e-06 0)
(4.52342e-06 3.73412e-06 0)
(4.68549e-06 3.90346e-06 0)
(4.84535e-06 4.0726e-06 0)
(5.00337e-06 4.24167e-06 0)
(5.1599e-06 4.41079e-06 0)
(5.31542e-06 4.58013e-06 0)
(5.47029e-06 4.74976e-06 0)
(5.62547e-06 4.91974e-06 0)
(2.17489e-06 1.52629e-06 0)
(2.37339e-06 1.71058e-06 0)
(2.57084e-06 1.89273e-06 0)
(2.76446e-06 2.07416e-06 0)
(2.95515e-06 2.25424e-06 0)
(3.14209e-06 2.43297e-06 0)
(3.32553e-06 2.61034e-06 0)
(3.50533e-06 2.78642e-06 0)
(3.68165e-06 2.96132e-06 0)
(3.85459e-06 3.13515e-06 0)
(4.02437e-06 3.30803e-06 0)
(4.1912e-06 3.4801e-06 0)
(4.35535e-06 3.65146e-06 0)
(4.51709e-06 3.82221e-06 0)
(4.67671e-06 3.99246e-06 0)
(4.83455e-06 4.16225e-06 0)
(4.99099e-06 4.33165e-06 0)
(5.14636e-06 4.50071e-06 0)
(5.30135e-06 4.66929e-06 0)
(5.45663e-06 4.83749e-06 0)
(2.05014e-06 1.43597e-06 0)
(2.24186e-06 1.61764e-06 0)
(2.4335e-06 1.79851e-06 0)
(2.62207e-06 1.97954e-06 0)
(2.80848e-06 2.15995e-06 0)
(2.99177e-06 2.33956e-06 0)
(3.17215e-06 2.51823e-06 0)
(3.34939e-06 2.69588e-06 0)
(3.52359e-06 2.87251e-06 0)
(3.69479e-06 3.04813e-06 0)
(3.86315e-06 3.22278e-06 0)
(4.02883e-06 3.39653e-06 0)
(4.19206e-06 3.5694e-06 0)
(4.35308e-06 3.74144e-06 0)
(4.51214e-06 3.91269e-06 0)
(4.66957e-06 4.08312e-06 0)
(4.82566e-06 4.25273e-06 0)
(4.9809e-06 4.42141e-06 0)
(5.13555e-06 4.58901e-06 0)
(5.29055e-06 4.75552e-06 0)
(1.93667e-06 1.35056e-06 0)
(2.12123e-06 1.52931e-06 0)
(2.30648e-06 1.70851e-06 0)
(2.48939e-06 1.88872e-06 0)
(2.67082e-06 2.06903e-06 0)
(2.84979e-06 2.24912e-06 0)
(3.02644e-06 2.4287e-06 0)
(3.20047e-06 2.60757e-06 0)
(3.37194e-06 2.7856e-06 0)
(3.54083e-06 2.96273e-06 0)
(3.70726e-06 3.13891e-06 0)
(3.87134e-06 3.31411e-06 0)
(4.03325e-06 3.48831e-06 0)
(4.1932e-06 3.66149e-06 0)
(4.35142e-06 3.8336e-06 0)
(4.50818e-06 4.00459e-06 0)
(4.66375e-06 4.17434e-06 0)
(4.81857e-06 4.3427e-06 0)
(4.97286e-06 4.50935e-06 0)
(5.12748e-06 4.67417e-06 0)
(1.83235e-06 1.26982e-06 0)
(2.00957e-06 1.44546e-06 0)
(2.18808e-06 1.62272e-06 0)
(2.36491e-06 1.8018e-06 0)
(2.5409e-06 1.98167e-06 0)
(2.71503e-06 2.1619e-06 0)
(2.88742e-06 2.34204e-06 0)
(3.05772e-06 2.5218e-06 0)
(3.22596e-06 2.70094e-06 0)
(3.39208e-06 2.87929e-06 0)
(3.55615e-06 3.05673e-06 0)
(3.71824e-06 3.23316e-06 0)
(3.87849e-06 3.40849e-06 0)
(4.03708e-06 3.58262e-06 0)
(4.19419e-06 3.75548e-06 0)
(4.35007e-06 3.92691e-06 0)
(4.50493e-06 4.09675e-06 0)
(4.65918e-06 4.26477e-06 0)
(4.81298e-06 4.43055e-06 0)
(4.9671e-06 4.59387e-06 0)
(1.73529e-06 1.19354e-06 0)
(1.9051e-06 1.36601e-06 0)
(2.07665e-06 1.54116e-06 0)
(2.24714e-06 1.71887e-06 0)
(2.41734e-06 1.89803e-06 0)
(2.58626e-06 2.0781e-06 0)
(2.754e-06 2.2585e-06 0)
(2.92018e-06 2.43884e-06 0)
(3.0848e-06 2.61879e-06 0)
(3.24778e-06 2.79809e-06 0)
(3.40913e-06 2.97653e-06 0)
(3.56892e-06 3.15395e-06 0)
(3.72723e-06 3.33019e-06 0)
(3.88421e-06 3.5051e-06 0)
(4.04e-06 3.67855e-06 0)
(4.19481e-06 3.85033e-06 0)
(4.34882e-06 4.02022e-06 0)
(4.50235e-06 4.18792e-06 0)
(4.65554e-06 4.35293e-06 0)
(4.80903e-06 4.51495e-06 0)
(1.64374e-06 1.12141e-06 0)
(1.80613e-06 1.29075e-06 0)
(1.97063e-06 1.46372e-06 0)
(2.1346e-06 1.6399e-06 0)
(2.29879e-06 1.81816e-06 0)
(2.46224e-06 1.99782e-06 0)
(2.62503e-06 2.17822e-06 0)
(2.7868e-06 2.35888e-06 0)
(2.94751e-06 2.53936e-06 0)
(3.10705e-06 2.71933e-06 0)
(3.26543e-06 2.89852e-06 0)
(3.42265e-06 3.07668e-06 0)
(3.5788e-06 3.25362e-06 0)
(3.73397e-06 3.42913e-06 0)
(3.88827e-06 3.60301e-06 0)
(4.04186e-06 3.77504e-06 0)
(4.19489e-06 3.94492e-06 0)
(4.3476e-06 4.11234e-06 0)
(4.5001e-06 4.27671e-06 0)
(4.65284e-06 4.4377e-06 0)
(1.55609e-06 1.05314e-06 0)
(1.7111e-06 1.21947e-06 0)
(1.86849e-06 1.39026e-06 0)
(2.02585e-06 1.56485e-06 0)
(2.18387e-06 1.74205e-06 0)
(2.34168e-06 1.92112e-06 0)
(2.49933e-06 2.1013e-06 0)
(2.65647e-06 2.28202e-06 0)
(2.81306e-06 2.46278e-06 0)
(2.96896e-06 2.64317e-06 0)
(3.12416e-06 2.82285e-06 0)
(3.27865e-06 3.00153e-06 0)
(3.43247e-06 3.17895e-06 0)
(3.58568e-06 3.35486e-06 0)
(3.73835e-06 3.52902e-06 0)
(3.89062e-06 3.70119e-06 0)
(4.04257e-06 3.87103e-06 0)
(4.19438e-06 4.0382e-06 0)
(4.34611e-06 4.20209e-06 0)
(4.49804e-06 4.36234e-06 0)
(1.47082e-06 9.88509e-07 0)
(1.61847e-06 1.152e-06 0)
(1.76873e-06 1.32065e-06 0)
(1.91942e-06 1.49361e-06 0)
(2.07119e-06 1.66967e-06 0)
(2.22325e-06 1.84799e-06 0)
(2.37564e-06 2.02776e-06 0)
(2.52803e-06 2.20832e-06 0)
(2.68037e-06 2.38913e-06 0)
(2.83251e-06 2.5697e-06 0)
(2.98441e-06 2.74963e-06 0)
(3.13605e-06 2.9286e-06 0)
(3.28743e-06 3.10628e-06 0)
(3.43858e-06 3.2824e-06 0)
(3.58955e-06 3.4567e-06 0)
(3.74042e-06 3.62889e-06 0)
(3.89123e-06 3.79865e-06 0)
(4.04208e-06 3.96561e-06 0)
(4.19299e-06 4.12918e-06 0)
(4.34408e-06 4.28899e-06 0)
(1.38649e-06 9.27278e-07 0)
(1.52678e-06 1.08814e-06 0)
(1.66989e-06 1.25474e-06 0)
(1.81388e-06 1.42609e-06 0)
(1.95936e-06 1.60094e-06 0)
(2.10561e-06 1.77839e-06 0)
(2.25269e-06 1.95757e-06 0)
(2.40028e-06 2.13779e-06 0)
(2.54831e-06 2.31842e-06 0)
(2.69663e-06 2.49895e-06 0)
(2.8452e-06 2.67891e-06 0)
(2.99394e-06 2.85794e-06 0)
(3.14284e-06 3.03568e-06 0)
(3.2919e-06 3.21184e-06 0)
(3.44113e-06 3.38612e-06 0)
(3.59056e-06 3.55823e-06 0)
(3.7402e-06 3.72785e-06 0)
(3.89008e-06 3.89463e-06 0)
(4.04015e-06 4.05803e-06 0)
(4.19039e-06 4.21771e-06 0)
(1.30166e-06 8.69365e-07 0)
(1.43455e-06 1.02781e-06 0)
(1.57048e-06 1.19246e-06 0)
(1.70775e-06 1.36221e-06 0)
(1.84693e-06 1.5358e-06 0)
(1.98739e-06 1.71227e-06 0)
(2.12916e-06 1.89072e-06 0)
(2.27196e-06 2.07041e-06 0)
(2.41571e-06 2.25066e-06 0)
(2.56025e-06 2.43092e-06 0)
(2.7055e-06 2.61069e-06 0)
(2.85137e-06 2.78957e-06 0)
(2.99783e-06 2.96718e-06 0)
(3.14482e-06 3.14319e-06 0)
(3.29232e-06 3.31729e-06 0)
(3.44033e-06 3.48921e-06 0)
(3.58881e-06 3.65863e-06 0)
(3.73772e-06 3.82526e-06 0)
(3.88699e-06 3.98862e-06 0)
(4.0364e-06 4.14845e-06 0)
(1.21482e-06 8.14606e-07 0)
(1.34024e-06 9.7085e-07 0)
(1.46895e-06 1.13365e-06 0)
(1.59951e-06 1.30183e-06 0)
(1.73241e-06 1.4741e-06 0)
(1.86713e-06 1.6495e-06 0)
(2.00368e-06 1.82707e-06 0)
(2.14178e-06 2.00605e-06 0)
(2.28135e-06 2.18573e-06 0)
(2.42221e-06 2.36552e-06 0)
(2.56427e-06 2.5449e-06 0)
(2.70739e-06 2.72343e-06 0)
(2.8515e-06 2.90071e-06 0)
(2.99653e-06 3.07641e-06 0)
(3.1424e-06 3.2502e-06 0)
(3.28905e-06 3.42182e-06 0)
(3.43643e-06 3.59098e-06 0)
(3.58443e-06 3.75745e-06 0)
(3.73292e-06 3.92086e-06 0)
(3.8816e-06 4.08106e-06 0)
(1.12445e-06 7.63184e-07 0)
(1.24228e-06 9.17375e-07 0)
(1.36372e-06 1.07837e-06 0)
(1.48758e-06 1.24496e-06 0)
(1.61428e-06 1.41583e-06 0)
(1.74337e-06 1.59003e-06 0)
(1.87483e-06 1.76656e-06 0)
(2.00842e-06 1.94463e-06 0)
(2.144e-06 2.12353e-06 0)
(2.2814e-06 2.30265e-06 0)
(2.42046e-06 2.48143e-06 0)
(2.56104e-06 2.65941e-06 0)
(2.70301e-06 2.83619e-06 0)
(2.84625e-06 3.01141e-06 0)
(2.99065e-06 3.18476e-06 0)
(3.1361e-06 3.35596e-06 0)
(3.28248e-06 3.5248e-06 0)
(3.42966e-06 3.69108e-06 0)
(3.57747e-06 3.85459e-06 0)
(3.72551e-06 4.01531e-06 0)
(1.02876e-06 7.14826e-07 0)
(1.13886e-06 8.6709e-07 0)
(1.25298e-06 1.02631e-06 0)
(1.3702e-06 1.19127e-06 0)
(1.49083e-06 1.36068e-06 0)
(1.61448e-06 1.53353e-06 0)
(1.7411e-06 1.70886e-06 0)
(1.87044e-06 1.88586e-06 0)
(2.00234e-06 2.0638e-06 0)
(2.13658e-06 2.24204e-06 0)
(2.27297e-06 2.42003e-06 0)
(2.41133e-06 2.5973e-06 0)
(2.55148e-06 2.77342e-06 0)
(2.69323e-06 2.94803e-06 0)
(2.83642e-06 3.12081e-06 0)
(2.9809e-06 3.29152e-06 0)
(3.12649e-06 3.45995e-06 0)
(3.27301e-06 3.626e-06 0)
(3.42025e-06 3.7896e-06 0)
(3.5678e-06 3.9509e-06 0)
(9.25959e-07 6.70298e-07 0)
(1.02818e-06 8.20589e-07 0)
(1.13498e-06 9.77912e-07 0)
(1.24566e-06 1.14108e-06 0)
(1.36041e-06 1.3088e-06 0)
(1.4789e-06 1.48009e-06 0)
(1.60102e-06 1.65398e-06 0)
(1.7265e-06 1.82965e-06 0)
(1.85512e-06 2.00638e-06 0)
(1.98663e-06 2.18351e-06 0)
(2.1208e-06 2.3605e-06 0)
(2.25737e-06 2.53685e-06 0)
(2.39612e-06 2.71214e-06 0)
(2.5368e-06 2.886e-06 0)
(2.67917e-06 3.05811e-06 0)
(2.82302e-06 3.22824e-06 0)
(2.96812e-06 3.39621e-06 0)
(3.11422e-06 3.56196e-06 0)
(3.26108e-06 3.72559e-06 0)
(3.40831e-06 3.8874e-06 0)
(8.13462e-07 6.28531e-07 0)
(9.07703e-07 7.76819e-07 0)
(1.00724e-06 9.32153e-07 0)
(1.1116e-06 1.0934e-06 0)
(1.22082e-06 1.25929e-06 0)
(1.33458e-06 1.42886e-06 0)
(1.45268e-06 1.60112e-06 0)
(1.57483e-06 1.77529e-06 0)
(1.70074e-06 1.95062e-06 0)
(1.83012e-06 2.12648e-06 0)
(1.96267e-06 2.30231e-06 0)
(2.09807e-06 2.47762e-06 0)
(2.23602e-06 2.65196e-06 0)
(2.37621e-06 2.82498e-06 0)
(2.51835e-06 2.99636e-06 0)
(2.66211e-06 3.16585e-06 0)
(2.8072e-06 3.33332e-06 0)
(2.95328e-06 3.49873e-06 0)
(3.10006e-06 3.66229e-06 0)
(3.24715e-06 3.82445e-06 0)
(6.89794e-07 5.91979e-07 0)
(7.75997e-07 7.37785e-07 0)
(8.68457e-07 8.9064e-07 0)
(9.66796e-07 1.04949e-06 0)
(1.07091e-06 1.21308e-06 0)
(1.18044e-06 1.38046e-06 0)
(1.29512e-06 1.55068e-06 0)
(1.41457e-06 1.72295e-06 0)
(1.53844e-06 1.89653e-06 0)
(1.66637e-06 2.07079e-06 0)
(1.79798e-06 2.24517e-06 0)
(1.9329e-06 2.41918e-06 0)
(2.07076e-06 2.59239e-06 0)
(2.21118e-06 2.76442e-06 0)
(2.35377e-06 2.93496e-06 0)
(2.49812e-06 3.10379e-06 0)
(2.64383e-06 3.27076e-06 0)
(2.79046e-06 3.43586e-06 0)
(2.93761e-06 3.59927e-06 0)
(3.08479e-06 3.76152e-06 0)
(9.88897e-08 1.08056e-08 0)
(2.98703e-07 6.61255e-08 0)
(5.11065e-07 1.68949e-07 0)
(7.38662e-07 3.12443e-07 0)
(9.85879e-07 4.92742e-07 0)
(1.25409e-06 7.03459e-07 0)
(1.5444e-06 9.37763e-07 0)
(1.85632e-06 1.18849e-06 0)
(2.18894e-06 1.44839e-06 0)
(2.5405e-06 1.71153e-06 0)
(9.31546e-08 9.66885e-09 0)
(2.81586e-07 5.94084e-08 0)
(4.81342e-07 1.52805e-07 0)
(6.94502e-07 2.8432e-07 0)
(9.25058e-07 4.51038e-07 0)
(1.17429e-06 6.47591e-07 0)
(1.4433e-06 8.68044e-07 0)
(1.73165e-06 1.10608e-06 0)
(2.0383e-06 1.35475e-06 0)
(2.36141e-06 1.60933e-06 0)
(8.79991e-08 8.32964e-09 0)
(2.66227e-07 5.26122e-08 0)
(4.54825e-07 1.37193e-07 0)
(6.55181e-07 2.57524e-07 0)
(8.70852e-07 4.11416e-07 0)
(1.10291e-06 5.94318e-07 0)
(1.35255e-06 8.01062e-07 0)
(1.6196e-06 1.02621e-06 0)
(1.90367e-06 1.26346e-06 0)
(2.20279e-06 1.50943e-06 0)
(8.32813e-08 6.7768e-09 0)
(2.52234e-07 4.57886e-08 0)
(4.30957e-07 1.22407e-07 0)
(6.20205e-07 2.32792e-07 0)
(8.23152e-07 3.75289e-07 0)
(1.04059e-06 5.45975e-07 0)
(1.27361e-06 7.40234e-07 0)
(1.52192e-06 9.5321e-07 0)
(1.78557e-06 1.17892e-06 0)
(2.06218e-06 1.41445e-06 0)
(7.88704e-08 4.99492e-09 0)
(2.39173e-07 3.87006e-08 0)
(4.08832e-07 1.07767e-07 0)
(5.88015e-07 2.08883e-07 0)
(7.79567e-07 3.4079e-07 0)
(9.84005e-07 5.00068e-07 0)
(1.20243e-06 6.82589e-07 0)
(1.43438e-06 8.84045e-07 0)
(1.6804e-06 1.09896e-06 0)
(1.93733e-06 1.32439e-06 0)
(7.47305e-08 3.01353e-09 0)
(2.26934e-07 3.13945e-08 0)
(3.88246e-07 9.33514e-08 0)
(5.58308e-07 1.8596e-07 0)
(7.39676e-07 3.08245e-07 0)
(9.32577e-07 4.57151e-07 0)
(1.13806e-06 6.28909e-07 0)
(1.35547e-06 8.19553e-07 0)
(1.58578e-06 1.0241e-06 0)
(1.8253e-06 1.23941e-06 0)
(7.0778e-08 8.22837e-10 0)
(2.15257e-07 2.37639e-08 0)
(3.68706e-07 7.88533e-08 0)
(5.30294e-07 1.63454e-07 0)
(7.0234e-07 2.76802e-07 0)
(8.84814e-07 4.16121e-07 0)
(1.07874e-06 5.77961e-07 0)
(1.28327e-06 7.58615e-07 0)
(1.49965e-06 9.53583e-07 0)
(1.72386e-06 1.15937e-06 0)
(6.6982e-08 -1.54889e-09 0)
(2.04046e-07 1.58414e-08 0)
(3.50023e-07 6.4283e-08 0)
(5.03656e-07 1.4135e-07 0)
(6.67064e-07 2.46425e-07 0)
(8.3998e-07 3.76927e-07 0)
(1.0234e-06 5.2965e-07 0)
(1.21631e-06 7.01053e-07 0)
(1.42017e-06 8.87084e-07 0)
(1.63082e-06 1.08396e-06 0)
(6.32935e-08 -4.10306e-09 0)
(1.93154e-07 7.5841e-09 0)
(3.31927e-07 4.95036e-08 0)
(4.77971e-07 1.19389e-07 0)
(6.33233e-07 2.16722e-07 0)
(7.97252e-07 3.39062e-07 0)
(9.70984e-07 4.83404e-07 0)
(1.15333e-06 6.46319e-07 0)
(1.34581e-06 8.2413e-07 0)
(1.54434e-06 1.01283e-06 0)
(5.96856e-08 -6.82227e-09 0)
(1.82498e-07 -9.93008e-10 0)
(3.14262e-07 3.45015e-08 0)
(4.52976e-07 9.75156e-08 0)
(6.00439e-07 1.87589e-07 0)
(7.56028e-07 3.02366e-07 0)
(9.20663e-07 4.38991e-07 0)
(1.09321e-06 5.94113e-07 0)
(1.2752e-06 7.6436e-07 0)
(1.46274e-06 9.4561e-07 0)
(5.61287e-08 -9.70519e-09 0)
(1.71995e-07 -9.90986e-09 0)
(2.96869e-07 1.92098e-08 0)
(4.28412e-07 7.56064e-08 0)
(5.68286e-07 1.58836e-07 0)
(7.1575e-07 2.66589e-07 0)
(8.71687e-07 3.96113e-07 0)
(1.03499e-06 5.44108e-07 0)
(1.20714e-06 7.07439e-07 0)
(1.38453e-06 8.81939e-07 0)
(5.26039e-08 -1.27467e-08 0)
(1.6159e-07 -1.91678e-08 0)
(2.79641e-07 3.60925e-09 0)
(4.04085e-07 5.36243e-08 0)
(5.36458e-07 1.304e-07 0)
(6.75939e-07 2.31631e-07 0)
(8.23389e-07 3.54621e-07 0)
(9.7778e-07 4.96106e-07 0)
(1.14051e-06 6.53131e-07 0)
(1.30834e-06 8.21547e-07 0)
(4.90997e-08 -1.59545e-08 0)
(1.51261e-07 -2.87959e-08 0)
(2.62509e-07 -1.23513e-08 0)
(3.79841e-07 3.15027e-08 0)
(5.04671e-07 1.02194e-07 0)
(6.36155e-07 1.9738e-07 0)
(7.75145e-07 3.14372e-07 0)
(9.20741e-07 4.49931e-07 0)
(1.07426e-06 6.01231e-07 0)
(1.23284e-06 7.64189e-07 0)
(4.56155e-08 -1.93556e-08 0)
(1.41022e-07 -3.88274e-08 0)
(2.45448e-07 -2.8688e-08 0)
(3.55569e-07 9.26123e-09 0)
(4.72683e-07 7.42599e-08 0)
(5.95986e-07 1.63879e-07 0)
(7.26354e-07 2.75395e-07 0)
(8.63063e-07 4.05581e-07 0)
(1.00735e-06 5.51702e-07 0)
(1.15676e-06 7.09781e-07 0)
(4.21825e-08 -2.3e-08 0)
(1.30999e-07 -4.93499e-08 0)
(2.28552e-07 -4.54807e-08 0)
(3.31247e-07 -1.31538e-08 0)
(4.40294e-07 4.65674e-08 0)
(5.55029e-07 1.31103e-07 0)
(6.76395e-07 2.3765e-07 0)
(8.03892e-07 3.62986e-07 0)
(9.38693e-07 5.04447e-07 0)
(1.07878e-06 6.58176e-07 0)
(3.88671e-08 -2.70573e-08 0)
(1.21397e-07 -6.04898e-08 0)
(2.11972e-07 -6.27004e-08 0)
(3.06879e-07 -3.55426e-08 0)
(4.07311e-07 1.9427e-08 0)
(5.12866e-07 9.94137e-08 0)
(6.24621e-07 2.01507e-07 0)
(7.42343e-07 3.22492e-07 0)
(8.67171e-07 4.59765e-07 0)
(9.97521e-07 6.09618e-07 0)
(3.59154e-08 -3.17287e-08 0)
(1.12854e-07 -7.24986e-08 0)
(1.96237e-07 -8.05133e-08 0)
(2.82692e-07 -5.80201e-08 0)
(3.73604e-07 -7.23135e-09 0)
(4.69025e-07 6.87439e-08 0)
(5.70245e-07 1.66879e-07 0)
(6.77337e-07 2.83972e-07 0)
(7.91422e-07 4.17486e-07 0)
(9.11351e-07 5.63876e-07 0)
(3.38514e-08 -3.78806e-08 0)
(1.06108e-07 -8.57667e-08 0)
(1.81857e-07 -9.8565e-08 0)
(2.58799e-07 -7.96944e-08 0)
(3.38939e-07 -3.22673e-08 0)
(4.22941e-07 4.03249e-08 0)
(5.12414e-07 1.34984e-07 0)
(6.07751e-07 2.4858e-07 0)
(7.10072e-07 3.78662e-07 0)
(8.18649e-07 5.2188e-07 0)
(3.52241e-08 -4.61511e-08 0)
(1.03906e-07 -1.00771e-07 0)
(1.70583e-07 -1.17194e-07 0)
(2.35812e-07 -1.01073e-07 0)
(3.03043e-07 -5.62941e-08 0)
(3.73703e-07 1.34199e-08 0)
(4.49736e-07 1.04988e-07 0)
(5.31793e-07 2.1539e-07 0)
(6.20997e-07 3.42299e-07 0)
(7.16963e-07 4.82569e-07 0)
(4.54368e-08 -6.11221e-08 0)
(1.07979e-07 -1.1787e-07 0)
(1.63242e-07 -1.34049e-07 0)
(2.13647e-07 -1.18499e-07 0)
(2.65501e-07 -7.54225e-08 0)
(3.20614e-07 -8.11548e-09 0)
(3.81325e-07 8.05569e-08 0)
(4.48397e-07 1.8784e-07 0)
(5.2298e-07 3.11558e-07 0)
(6.04885e-07 4.48809e-07 0)
)
;

boundaryField
{
    left
    {
        type            fixedDisplacement;
        value           uniform (0 0 0);
    }
    right
    {
        type            solidTraction;
        tractionSeries  
{
        file            "$FOAM_CASE/constant/timeVsTraction";
        outOfBounds     clamp;
}
        pressure        uniform 0;
        secondOrder     false;
        setEffectiveTraction false;
        relaxationFactor 1;
        value           nonuniform List<vector> 
30
(
(8.18337e-06 6.00484e-06 1.64559e-21)
(7.9927e-06 5.93612e-06 1.65065e-21)
(7.80034e-06 5.86789e-06 1.69392e-21)
(7.60575e-06 5.79888e-06 1.78389e-21)
(7.40895e-06 5.7283e-06 1.91754e-21)
(7.21038e-06 5.65543e-06 2.09067e-21)
(7.01075e-06 5.57984e-06 2.2963e-21)
(6.81091e-06 5.5013e-06 2.52682e-21)
(6.6117e-06 5.41981e-06 2.77379e-21)
(6.41401e-06 5.33558e-06 3.0276e-21)
(6.22704e-06 5.2527e-06 3.2123e-21)
(6.04976e-06 5.17123e-06 3.29938e-21)
(5.87501e-06 5.08854e-06 3.35871e-21)
(5.70313e-06 5.00504e-06 3.3914e-21)
(5.53429e-06 4.92132e-06 3.3924e-21)
(5.36811e-06 4.83791e-06 3.36371e-21)
(5.20487e-06 4.75513e-06 3.31004e-21)
(5.04422e-06 4.67358e-06 3.23138e-21)
(4.88583e-06 4.59362e-06 3.13223e-21)
(4.72926e-06 4.51555e-06 3.01662e-21)
(4.57404e-06 4.43964e-06 2.88966e-21)
(4.41964e-06 4.36601e-06 2.75673e-21)
(4.26551e-06 4.29474e-06 2.62389e-21)
(4.11111e-06 4.22576e-06 2.49709e-21)
(3.95593e-06 4.1589e-06 2.3826e-21)
(3.79952e-06 4.09388e-06 2.2856e-21)
(3.64157e-06 4.03031e-06 2.21266e-21)