/*--------------------------------*- C++ -*----------------------------------*\
  =========                 |
  \\      /  F ield         | OpenFOAM: The Open Source CFD Toolbox
   \\    /   O peration     | Website:  https://openfoam.org
    \\  /    A nd           | Version:  9
     \\/     M anipulation  |
\*---------------------------------------------------------------------------*/
FoamFile
{
    format      ascii;
    class       volVectorField;
    location    "5";
    object      D_0;
}
// * * * * * * * * * * * * * * * * * * * * * * * * * * * * * * * * * * * * * //

dimensions      [0 1 0 0 0 0 0];

internalField   nonuniform List<vector> 
1000
(
(2.70541e-06 9.09351e-07 0)
(2.52452e-06 1.00438e-06 0)
(2.39291e-06 1.08436e-06 0)
(2.2978e-06 1.14687e-06 0)
(2.22992e-06 1.20084e-06 0)
(2.18203e-06 1.24727e-06 0)
(2.1496e-06 1.28911e-06 0)
(2.12902e-06 1.32722e-06 0)
(2.11742e-06 1.36277e-06 0)
(2.11334e-06 1.39648e-06 0)
(2.43802e-06 8.19903e-07 0)
(2.25016e-06 8.8894e-07 0)
(2.11439e-06 9.4951e-07 0)
(2.0167e-06 9.96271e-07 0)
(1.94708e-06 1.03735e-06 0)
(1.89779e-06 1.07268e-06 0)
(1.86401e-06 1.10472e-06 0)
(1.84191e-06 1.13403e-06 0)
(1.82855e-06 1.16121e-06 0)
(1.82195e-06 1.18774e-06 0)
(2.16492e-06 7.30278e-07 0)
(1.97532e-06 7.71622e-07 0)
(1.83911e-06 8.11961e-07 0)
(1.74162e-06 8.4278e-07 0)
(1.67237e-06 8.71192e-07 0)
(1.62334e-06 8.95872e-07 0)
(1.58952e-06 9.18753e-07 0)
(1.56699e-06 9.39943e-07 0)
(1.55278e-06 9.59565e-07 0)
(1.54482e-06 9.79226e-07 0)
(1.8875e-06 6.41919e-07 0)
(1.70162e-06 6.54958e-07 0)
(1.56894e-06 6.74997e-07 0)
(1.47464e-06 6.90202e-07 0)
(1.40807e-06 7.06556e-07 0)
(1.36109e-06 7.21347e-07 0)
(1.32867e-06 7.35926e-07 0)
(1.30686e-06 7.49854e-07 0)
(1.29287e-06 7.62855e-07 0)
(1.28441e-06 7.76384e-07 0)
(1.60644e-06 5.56134e-07 0)
(1.42994e-06 5.41409e-07 0)
(1.30494e-06 5.41955e-07 0)
(1.21706e-06 5.42558e-07 0)
(1.1556e-06 5.48023e-07 0)
(1.11257e-06 5.5414e-07 0)
(1.083e-06 5.61644e-07 0)
(1.06303e-06 5.6947e-07 0)
(1.05012e-06 5.77013e-07 0)
(1.04194e-06 5.85364e-07 0)
(1.32297e-06 4.73508e-07 0)
(1.16104e-06 4.32701e-07 0)
(1.04799e-06 4.15646e-07 0)
(9.69875e-07 4.035e-07 0)
(9.16068e-07 3.99921e-07 0)
(8.78847e-07 3.99091e-07 0)
(8.53506e-07 4.01132e-07 0)
(8.36416e-07 4.0432e-07 0)
(8.25358e-07 4.07804e-07 0)
(8.1805e-07 4.12206e-07 0)
(1.03601e-06 3.93999e-07 0)
(8.94295e-07 3.30006e-07 0)
(7.97809e-07 2.98589e-07 0)
(7.33038e-07 2.76717e-07 0)
(6.89483e-07 2.66776e-07 0)
(6.59878e-07 2.61299e-07 0)
(6.40001e-07 2.59832e-07 0)
(6.26635e-07 2.60063e-07 0)
(6.17995e-07 2.60999e-07 0)
(6.12041e-07 2.62794e-07 0)
(7.47576e-07 3.15346e-07 0)
(6.30795e-07 2.32937e-07 0)
(5.55833e-07 1.92747e-07 0)
(5.07863e-07 1.65819e-07 0)
(4.76726e-07 1.53206e-07 0)
(4.56007e-07 1.45976e-07 0)
(4.42326e-07 1.43227e-07 0)
(4.33135e-07 1.423e-07 0)
(4.27184e-07 1.42215e-07 0)
(4.22872e-07 1.42775e-07 0)
(4.51206e-07 2.29793e-07 0)
(3.68724e-07 1.38701e-07 0)
(3.21308e-07 9.92248e-08 0)
(2.93153e-07 7.46773e-08 0)
(2.76085e-07 6.41593e-08 0)
(2.64916e-07 5.83629e-08 0)
(2.57703e-07 5.63617e-08 0)
(2.52765e-07 5.57074e-08 0)
(2.49515e-07 5.56832e-08 0)
(2.46953e-07 5.5986e-08 0)
(1.55477e-07 1.20235e-07 0)
(1.17242e-07 5.10189e-08 0)
(1.02655e-07 2.67211e-08 0)
(9.49368e-08 1.45144e-08 0)
(9.04575e-08 1.03177e-08 0)
(8.73287e-08 8.42641e-09 0)
(8.52829e-08 8.16985e-09 0)
(8.37818e-08 8.33738e-09 0)
(8.27545e-08 8.65619e-09 0)
(8.18471e-08 9.00731e-09 0)
(4.77117e-06 1.47367e-06 0)
(4.76331e-06 1.65706e-06 0)
(4.7579e-06 1.82793e-06 0)
(4.75812e-06 1.98435e-06 0)
(4.76533e-06 2.12793e-06 0)
(4.78005e-06 2.26046e-06 0)
(4.80237e-06 2.384e-06 0)
(4.83183e-06 2.50035e-06 0)
(4.86817e-06 2.61093e-06 0)
(4.91046e-06 2.7173e-06 0)
(4.62154e-06 1.46154e-06 0)
(4.60036e-06 1.6444e-06 0)
(4.58596e-06 1.81318e-06 0)
(4.5796e-06 1.96645e-06 0)
(4.58201e-06 2.10618e-06 0)
(4.59275e-06 2.23427e-06 0)
(4.61146e-06 2.35299e-06 0)
(4.63727e-06 2.46423e-06 0)
(4.66982e-06 2.56948e-06 0)
(4.70785e-06 2.67052e-06 0)
(4.46283e-06 1.43695e-06 0)
(4.42588e-06 1.61934e-06 0)
(4.39922e-06 1.78468e-06 0)
(4.38319e-06 1.933e-06 0)
(4.37796e-06 2.06729e-06 0)
(4.38227e-06 2.18973e-06 0)
(4.39534e-06 2.30273e-06 0)
(4.41585e-06 2.40823e-06 0)
(4.44333e-06 2.50776e-06 0)
(4.47606e-06 2.60315e-06 0)
(4.29131e-06 1.40122e-06 0)
(4.23664e-06 1.58272e-06 0)
(4.19574e-06 1.74385e-06 0)
(4.16825e-06 1.88611e-06 0)
(4.15364e-06 2.01386e-06 0)
(4.14998e-06 2.1296e-06 0)
(4.15609e-06 2.23597e-06 0)
(4.1702e-06 2.33491e-06 0)
(4.19174e-06 2.42802e-06 0)
(4.21847e-06 2.51711e-06 0)
(4.10501e-06 1.35467e-06 0)
(4.03092e-06 1.53385e-06 0)
(3.97477e-06 1.68942e-06 0)
(3.93519e-06 1.82424e-06 0)
(3.91067e-06 1.94418e-06 0)
(3.89858e-06 2.05206e-06 0)
(3.89733e-06 2.15081e-06 0)
(3.90473e-06 2.24234e-06 0)
(3.92007e-06 2.32833e-06 0)
(3.94066e-06 2.41049e-06 0)
(3.90367e-06 1.29839e-06 0)
(3.80904e-06 1.47276e-06 0)
(3.73734e-06 1.62118e-06 0)
(3.68569e-06 1.74728e-06 0)
(3.65135e-06 1.85835e-06 0)
(3.63094e-06 1.95745e-06 0)
(3.62243e-06 2.04775e-06 0)
(3.62324e-06 2.13113e-06 0)
(3.63252e-06 2.20938e-06 0)
(3.64716e-06 2.28398e-06 0)
(3.6878e-06 1.23323e-06 0)
(3.57234e-06 1.39948e-06 0)
(3.48542e-06 1.5387e-06 0)
(3.42225e-06 1.65468e-06 0)
(3.37869e-06 1.75586e-06 0)
(3.35057e-06 1.84536e-06 0)
(3.33533e-06 1.92654e-06 0)
(3.33008e-06 2.0012e-06 0)
(3.33373e-06 2.07119e-06 0)
(3.34293e-06 2.13776e-06 0)
(3.45853e-06 1.1604e-06 0)
(3.32296e-06 1.31468e-06 0)
(3.22179e-06 1.44244e-06 0)
(3.14809e-06 1.54693e-06 0)
(3.09628e-06 1.63732e-06 0)
(3.06132e-06 1.71657e-06 0)
(3.04017e-06 1.78816e-06 0)
(3.02959e-06 1.85366e-06 0)
(3.02825e-06 1.91506e-06 0)
(3.03273e-06 1.97318e-06 0)
(3.21729e-06 1.08117e-06 0)
(3.06342e-06 1.21942e-06 0)
(2.94964e-06 1.33338e-06 0)
(2.86685e-06 1.42502e-06 0)
(2.80806e-06 1.50383e-06 0)
(2.76741e-06 1.57234e-06 0)
(2.74132e-06 1.63402e-06 0)
(2.72633e-06 1.69022e-06 0)
(2.72073e-06 1.74277e-06 0)
(2.72136e-06 1.79233e-06 0)
(2.96571e-06 9.96966e-07 0)
(2.7964e-06 1.11531e-06 0)
(2.67227e-06 1.21325e-06 0)
(2.5822e-06 1.29081e-06 0)
(2.51797e-06 1.35742e-06 0)
(2.47292e-06 1.41492e-06 0)
(2.44301e-06 1.46662e-06 0)
(2.42462e-06 1.5135e-06 0)
(2.41561e-06 1.55736e-06 0)
(2.41351e-06 1.59781e-06 0)
(4.96099e-06 2.81962e-06 0)
(5.01899e-06 2.92117e-06 0)
(5.08145e-06 3.0211e-06 0)
(5.14785e-06 3.11987e-06 0)
(5.21785e-06 3.21799e-06 0)
(5.29106e-06 3.31575e-06 0)
(5.36717e-06 3.41348e-06 0)
(5.44584e-06 3.5114e-06 0)
(5.52682e-06 3.60973e-06 0)
(5.60983e-06 3.70864e-06 0)
(5.69465e-06 3.80829e-06 0)
(5.78103e-06 3.90878e-06 0)
(5.86877e-06 4.01024e-06 0)
(5.95766e-06 4.11273e-06 0)
(6.04749e-06 4.21633e-06 0)
(6.13808e-06 4.32105e-06 0)
(6.22923e-06 4.42688e-06 0)
(6.32072e-06 4.53374e-06 0)
(6.41241e-06 4.64144e-06 0)
(6.50408e-06 4.74965e-06 0)
(4.76052e-06 2.76897e-06 0)
(4.82567e-06 2.86884e-06 0)
(4.8943e-06 2.96717e-06 0)
(4.96587e-06 3.06454e-06 0)
(5.04027e-06 3.16146e-06 0)
(5.11716e-06 3.2582e-06 0)
(5.19636e-06 3.35511e-06 0)
(5.27763e-06 3.45237e-06 0)
(5.36078e-06 3.55021e-06 0)
(5.44561e-06 3.64879e-06 0)
(5.53195e-06 3.74824e-06 0)
(5.61963e-06 3.84869e-06 0)
(5.7085e-06 3.95024e-06 0)
(5.7984e-06 4.05296e-06 0)
(5.88918e-06 4.15692e-06 0)
(5.98069e-06 4.26213e-06 0)
(6.07281e-06 4.36858e-06 0)
(6.16538e-06 4.47619e-06 0)
(6.25826e-06 4.58479e-06 0)
(6.35125e-06 4.69409e-06 0)
(4.53164e-06 2.69869e-06 0)
(4.60599e-06 2.79873e-06 0)
(4.68286e-06 2.89729e-06 0)
(4.76154e-06 2.99485e-06 0)
(4.8422e-06 3.09204e-06 0)
(4.92453e-06 3.18907e-06 0)
(5.00851e-06 3.28634e-06 0)
(5.09395e-06 3.38401e-06 0)
(5.18078e-06 3.48234e-06 0)
(5.26886e-06 3.58148e-06 0)
(5.3581e-06 3.68157e-06 0)
(5.44839e-06 3.78273e-06 0)
(5.53964e-06 3.88507e-06 0)
(5.63174e-06 3.98868e-06 0)
(5.7246e-06 4.09361e-06 0)
(5.81814e-06 4.1999e-06 0)
(5.91225e-06 4.30757e-06 0)
(6.00681e-06 4.41658e-06 0)
(6.10172e-06 4.52685e-06 0)
(6.19673e-06 4.63819e-06 0)
(4.2777e-06 2.61031e-06 0)
(4.36299e-06 2.71197e-06 0)
(4.44985e-06 2.81222e-06 0)
(4.5373e-06 2.91127e-06 0)
(4.62586e-06 3.00995e-06 0)
(4.71517e-06 3.10838e-06 0)
(4.80541e-06 3.20704e-06 0)
(4.89643e-06 3.30608e-06 0)
(4.98828e-06 3.40578e-06 0)
(5.08088e-06 3.50629e-06 0)
(5.17422e-06 3.60778e-06 0)
(5.26825e-06 3.71038e-06 0)
(5.36295e-06 3.8142e-06 0)
(5.45827e-06 3.91934e-06 0)
(5.55417e-06 4.02589e-06 0)
(5.6506e-06 4.13389e-06 0)
(5.74752e-06 4.24342e-06 0)
(5.84481e-06 4.35448e-06 0)
(5.94241e-06 4.4671e-06 0)
(6.04005e-06 4.58123e-06 0)
(4.00422e-06 2.50214e-06 0)
(4.10175e-06 2.60707e-06 0)
(4.19995e-06 2.71066e-06 0)
(4.2974e-06 2.81268e-06 0)
(4.39509e-06 2.91423e-06 0)
(4.49255e-06 3.01533e-06 0)
(4.59018e-06 3.11653e-06 0)
(4.68786e-06 3.218e-06 0)
(4.78574e-06 3.32005e-06 0)
(4.88383e-06 3.42284e-06 0)
(4.98219e-06 3.52658e-06 0)
(5.08083e-06 3.63139e-06 0)
(5.1798e-06 3.73742e-06 0)
(5.27909e-06 3.84478e-06 0)
(5.37874e-06 3.95358e-06 0)
(5.47872e-06 4.06393e-06 0)
(5.57904e-06 4.17591e-06 0)
(5.67963e-06 4.28962e-06 0)
(5.78045e-06 4.40522e-06 0)
(5.88125e-06 4.52273e-06 0)
(3.71567e-06 2.37482e-06 0)
(3.82637e-06 2.48453e-06 0)
(3.9369e-06 2.59303e-06 0)
(4.04529e-06 2.6994e-06 0)
(4.15302e-06 2.80512e-06 0)
(4.25953e-06 2.91008e-06 0)
(4.36542e-06 3.01494e-06 0)
(4.47059e-06 3.11988e-06 0)
(4.57532e-06 3.22523e-06 0)
(4.67967e-06 3.3312e-06 0)
(4.78376e-06 3.438e-06 0)
(4.88769e-06 3.54579e-06 0)
(4.99155e-06 3.65475e-06 0)
(5.09541e-06 3.76501e-06 0)
(5.19934e-06 3.8767e-06 0)
(5.30337e-06 3.98998e-06 0)
(5.40755e-06 4.10498e-06 0)
(5.51186e-06 4.22187e-06 0)
(5.6163e-06 4.34091e-06 0)
(5.72071e-06 4.46223e-06 0)
(3.41683e-06 2.22858e-06 0)
(3.54116e-06 2.34462e-06 0)
(3.66463e-06 2.45952e-06 0)
(3.78455e-06 2.57167e-06 0)
(3.90296e-06 2.68282e-06 0)
(4.01914e-06 2.79285e-06 0)
(4.13389e-06 2.90244e-06 0)
(4.24716e-06 3.01186e-06 0)
(4.35931e-06 3.12146e-06 0)
(4.47045e-06 3.23148e-06 0)
(4.58081e-06 3.34216e-06 0)
(4.69051e-06 3.45371e-06 0)
(4.79972e-06 3.56632e-06 0)
(4.90857e-06 3.68014e-06 0)
(5.01716e-06 3.79535e-06 0)
(5.12559e-06 3.91212e-06 0)
(5.23396e-06 4.03066e-06 0)
(5.3423e-06 4.15118e-06 0)
(5.45066e-06 4.27404e-06 0)
(5.55899e-06 4.39944e-06 0)
(3.1122e-06 2.06473e-06 0)
(3.2502e-06 2.18855e-06 0)
(3.38676e-06 2.31106e-06 0)
(3.5185e-06 2.43029e-06 0)
(3.64783e-06 2.54801e-06 0)
(3.77408e-06 2.66424e-06 0)
(3.89806e-06 2.77964e-06 0)
(4.01984e-06 2.89453e-06 0)
(4.1398e-06 3.00929e-06 0)
(4.25815e-06 3.12421e-06 0)
(4.37514e-06 3.23958e-06 0)
(4.49097e-06 3.35561e-06 0)
(4.60585e-06 3.47254e-06 0)
(4.71997e-06 3.59055e-06 0)
(4.83348e-06 3.70985e-06 0)
(4.94655e-06 3.83064e-06 0)
(5.05931e-06 3.95316e-06 0)
(5.17188e-06 4.07768e-06 0)
(5.28435e-06 4.20463e-06 0)
(5.39682e-06 4.33426e-06 0)
(2.80635e-06 1.88481e-06 0)
(2.95767e-06 2.01793e-06 0)
(3.10696e-06 2.14899e-06 0)
(3.25059e-06 2.27651e-06 0)
(3.39082e-06 2.40174e-06 0)
(3.52724e-06 2.5251e-06 0)
(3.66057e-06 2.64714e-06 0)
(3.791e-06 2.76833e-06 0)
(3.91894e-06 2.88906e-06 0)
(4.04467e-06 3.00968e-06 0)
(4.16847e-06 3.13048e-06 0)
(4.29062e-06 3.25173e-06 0)
(4.41135e-06 3.37366e-06 0)
(4.53091e-06 3.4965e-06 0)
(4.6495e-06 3.62046e-06 0)
(4.76734e-06 3.74578e-06 0)
(4.88461e-06 3.87272e-06 0)
(5.00151e-06 4.00157e-06 0)
(5.11818e-06 4.13282e-06 0)
(5.23489e-06 4.26674e-06 0)
(2.50287e-06 1.6916e-06 0)
(2.66681e-06 1.83495e-06 0)
(2.82751e-06 1.97483e-06 0)
(2.98273e-06 2.11153e-06 0)
(3.13366e-06 2.24528e-06 0)
(3.2803e-06 2.37672e-06 0)
(3.42311e-06 2.50635e-06 0)
(3.56237e-06 2.63467e-06 0)
(3.69848e-06 2.76213e-06 0)
(3.83174e-06 2.88912e-06 0)
(3.9625e-06 3.01598e-06 0)
(4.09107e-06 3.14303e-06 0)
(4.21775e-06 3.27051e-06 0)
(4.3428e-06 3.39869e-06 0)
(4.46652e-06 3.52779e-06 0)
(4.58915e-06 3.65805e-06 0)
(4.71093e-06 3.78975e-06 0)
(4.83216e-06 3.92319e-06 0)
(4.95301e-06 4.05886e-06 0)
(5.07397e-06 4.19705e-06 0)
(2.26881e-06 1.54674e-06 0)
(2.43975e-06 1.69753e-06 0)
(2.60643e-06 1.8424e-06 0)
(2.76794e-06 1.98432e-06 0)
(2.92494e-06 2.12328e-06 0)
(3.07745e-06 2.25988e-06 0)
(3.22589e-06 2.39457e-06 0)
(3.37048e-06 2.52781e-06 0)
(3.51158e-06 2.65999e-06 0)
(3.64951e-06 2.7915e-06 0)
(3.78459e-06 2.92265e-06 0)
(3.91714e-06 3.05374e-06 0)
(4.04747e-06 3.18503e-06 0)
(4.17588e-06 3.31675e-06 0)
(4.30266e-06 3.44913e-06 0)
(4.4281e-06 3.58238e-06 0)
(4.55249e-06 3.71678e-06 0)
(4.67617e-06 3.85259e-06 0)
(4.79936e-06 3.99024e-06 0)
(4.92269e-06 4.12998e-06 0)
(2.11266e-06 1.4601e-06 0)
(2.28361e-06 1.61087e-06 0)
(2.45033e-06 1.75692e-06 0)
(2.61237e-06 1.90044e-06 0)
(2.77016e-06 2.04137e-06 0)
(2.92368e-06 2.18013e-06 0)
(3.07325e-06 2.31709e-06 0)
(3.21904e-06 2.4526e-06 0)
(3.36137e-06 2.587e-06 0)
(3.50048e-06 2.7206e-06 0)
(3.63669e-06 2.85369e-06 0)
(3.77027e-06 2.98652e-06 0)
(3.90153e-06 3.11932e-06 0)
(4.03075e-06 3.2523e-06 0)
(4.15823e-06 3.38567e-06 0)
(4.28427e-06 3.5196e-06 0)
(4.40915e-06 3.65433e-06 0)
(4.53326e-06 3.79007e-06 0)
(4.65684e-06 3.92717e-06 0)
(4.78059e-06 4.0658e-06 0)
(1.97484e-06 1.37693e-06 0)
(2.14271e-06 1.52724e-06 0)
(2.30772e-06 1.6737e-06 0)
(2.4685e-06 1.81818e-06 0)
(2.62565e-06 1.96053e-06 0)
(2.77887e-06 2.10101e-06 0)
(2.92845e-06 2.23988e-06 0)
(3.07446e-06 2.37739e-06 0)
(3.21714e-06 2.5138e-06 0)
(3.35669e-06 2.64937e-06 0)
(3.49338e-06 2.78431e-06 0)
(3.62746e-06 2.91883e-06 0)
(3.75919e-06 3.05313e-06 0)
(3.88885e-06 3.18737e-06 0)
(4.01673e-06 3.32171e-06 0)
(4.14312e-06 3.45632e-06 0)
(4.2683e-06 3.59135e-06 0)
(4.39269e-06 3.72697e-06 0)
(4.51653e-06 3.86338e-06 0)
(4.64058e-06 4.00074e-06 0)
(1.85133e-06 1.29683e-06 0)
(2.01517e-06 1.44592e-06 0)
(2.17721e-06 1.59224e-06 0)
(2.33559e-06 1.73728e-06 0)
(2.49096e-06 1.88071e-06 0)
(2.64284e-06 2.02262e-06 0)
(2.79147e-06 2.16317e-06 0)
(2.93681e-06 2.3025e-06 0)
(3.07906e-06 2.44078e-06 0)
(3.21837e-06 2.57818e-06 0)
(3.35494e-06 2.71488e-06 0)
(3.48899e-06 2.85102e-06 0)
(3.62076e-06 2.98675e-06 0)
(3.75049e-06 3.12221e-06 0)
(3.87846e-06 3.2575e-06 0)
(4.00496e-06 3.39274e-06 0)
(4.13025e-06 3.52802e-06 0)
(4.25475e-06 3.66347e-06 0)
(4.37872e-06 3.79916e-06 0)
(4.50293e-06 3.93513e-06 0)
(1.74071e-06 1.22065e-06 0)
(1.89962e-06 1.36806e-06 0)
(2.05768e-06 1.51376e-06 0)
(2.21268e-06 1.65888e-06 0)
(2.36533e-06 1.80293e-06 0)
(2.51499e-06 1.9459e-06 0)
(2.66184e-06 2.08778e-06 0)
(2.80577e-06 2.22863e-06 0)
(2.94692e-06 2.36853e-06 0)
(3.08536e-06 2.50757e-06 0)
(3.22128e-06 2.64587e-06 0)
(3.35483e-06 2.7835e-06 0)
(3.48623e-06 2.92057e-06 0)
(3.6157e-06 3.05716e-06 0)
(3.74348e-06 3.19334e-06 0)
(3.86983e-06 3.32916e-06 0)
(3.99505e-06 3.46466e-06 0)
(4.11943e-06 3.5999e-06 0)
(4.2435e-06 3.73475e-06 0)
(4.3678e-06 3.8693e-06 0)
(1.64085e-06 1.14835e-06 0)
(1.79434e-06 1.29366e-06 0)
(1.94775e-06 1.43833e-06 0)
(2.0987e-06 1.58313e-06 0)
(2.24793e-06 1.72744e-06 0)
(2.39466e-06 1.87112e-06 0)
(2.53906e-06 2.01403e-06 0)
(2.68095e-06 2.15614e-06 0)
(2.8204e-06 2.29743e-06 0)
(2.95745e-06 2.43791e-06 0)
(3.09222e-06 2.57762e-06 0)
(3.22486e-06 2.71659e-06 0)
(3.35552e-06 2.85488e-06 0)
(3.48442e-06 2.9925e-06 0)
(3.61175e-06 3.12948e-06 0)
(3.73777e-06 3.26582e-06 0)
(3.86272e-06 3.40149e-06 0)
(3.98699e-06 3.53642e-06 0)
(4.11079e-06 3.6705e-06 0)
(4.23486e-06 3.8037e-06 0)
(1.55002e-06 1.07996e-06 0)
(1.69777e-06 1.22294e-06 0)
(1.84607e-06 1.36628e-06 0)
(1.99249e-06 1.51042e-06 0)
(2.13774e-06 1.65465e-06 0)
(2.28101e-06 1.79871e-06 0)
(2.42242e-06 1.94236e-06 0)
(2.56174e-06 2.08543e-06 0)
(2.699e-06 2.22785e-06 0)
(2.8342e-06 2.36954e-06 0)
(2.96743e-06 2.51047e-06 0)
(3.09879e-06 2.65061e-06 0)
(3.2284e-06 2.78996e-06 0)
(3.35644e-06 2.92849e-06 0)
(3.48309e-06 3.06617e-06 0)
(3.60858e-06 3.20295e-06 0)
(3.73311e-06 3.33874e-06 0)
(3.85705e-06 3.47342e-06 0)
(3.98055e-06 3.60674e-06 0)
(4.10433e-06 3.73859e-06 0)
(1.46652e-06 1.01533e-06 0)
(1.60839e-06 1.15582e-06 0)
(1.75128e-06 1.2976e-06 0)
(1.89284e-06 1.44083e-06 0)
(2.03373e-06 1.58471e-06 0)
(2.17313e-06 1.72888e-06 0)
(2.31113e-06 1.87298e-06 0)
(2.44747e-06 2.01677e-06 0)
(2.58215e-06 2.16007e-06 0)
(2.71513e-06 2.30274e-06 0)
(2.84647e-06 2.44468e-06 0)
(2.97623e-06 2.58581e-06 0)
(3.10452e-06 2.72605e-06 0)
(3.23147e-06 2.86535e-06 0)
(3.35723e-06 3.00363e-06 0)
(3.48201e-06 3.14077e-06 0)
(3.60598e-06 3.27663e-06 0)
(3.72945e-06 3.41104e-06 0)
(3.85257e-06 3.54366e-06 0)
(3.97594e-06 3.67431e-06 0)
(1.38882e-06 9.54258e-07 0)
(1.52476e-06 1.09221e-06 0)
(1.66209e-06 1.2323e-06 0)
(1.79857e-06 1.37444e-06 0)
(1.93482e-06 1.51776e-06 0)
(2.07005e-06 1.66179e-06 0)
(2.20432e-06 1.8061e-06 0)
(2.33736e-06 1.95035e-06 0)
(2.46915e-06 2.0943e-06 0)
(2.59961e-06 2.23773e-06 0)
(2.72878e-06 2.38047e-06 0)
(2.85669e-06 2.52239e-06 0)
(2.98342e-06 2.66337e-06 0)
(3.10908e-06 2.80329e-06 0)
(3.2338e-06 2.94204e-06 0)
(3.35772e-06 3.07946e-06 0)
(3.48101e-06 3.21536e-06 0)
(3.60391e-06 3.34952e-06 0)
(3.72654e-06 3.48152e-06 0)
(3.8494e-06 3.61114e-06 0)
(1.31554e-06 8.96511e-07 0)
(1.44554e-06 1.03195e-06 0)
(1.57722e-06 1.1703e-06 0)
(1.70848e-06 1.31123e-06 0)
(1.83992e-06 1.45381e-06 0)
(1.97077e-06 1.59752e-06 0)
(2.10109e-06 1.74183e-06 0)
(2.23059e-06 1.88633e-06 0)
(2.35924e-06 2.03071e-06 0)
(2.48695e-06 2.17467e-06 0)
(2.61374e-06 2.31801e-06 0)
(2.7396e-06 2.46053e-06 0)
(2.8646e-06 2.60207e-06 0)
(2.98881e-06 2.74247e-06 0)
(3.11233e-06 2.88157e-06 0)
(3.23528e-06 3.01918e-06 0)
(3.35778e-06 3.15508e-06 0)
(3.48003e-06 3.28902e-06 0)
(3.6021e-06 3.42051e-06 0)
(3.72437e-06 3.54931e-06 0)
(1.24538e-06 8.4186e-07 0)
(1.36946e-06 9.74892e-07 0)
(1.49546e-06 1.11149e-06 0)
(1.62142e-06 1.25114e-06 0)
(1.74792e-06 1.39288e-06 0)
(1.87425e-06 1.53611e-06 0)
(2.00046e-06 1.68024e-06 0)
(2.12625e-06 1.8248e-06 0)
(2.25161e-06 1.9694e-06 0)
(2.37641e-06 2.1137e-06 0)
(2.50065e-06 2.25743e-06 0)
(2.62432e-06 2.40037e-06 0)
(2.74746e-06 2.54229e-06 0)
(2.8701e-06 2.68301e-06 0)
(2.99232e-06 2.82234e-06 0)
(3.11421e-06 2.96006e-06 0)
(3.23585e-06 3.09593e-06 0)
(3.35737e-06 3.22967e-06 0)
(3.47882e-06 3.36078e-06 0)
(3.60044e-06 3.48898e-06 0)
(1.17713e-06 7.90116e-07 0)
(1.29532e-06 9.20876e-07 0)
(1.4156e-06 1.05576e-06 0)
(1.53623e-06 1.19411e-06 0)
(1.65773e-06 1.33493e-06 0)
(1.77945e-06 1.47757e-06 0)
(1.90144e-06 1.62136e-06 0)
(2.02344e-06 1.7658e-06 0)
(2.14538e-06 1.91043e-06 0)
(2.26717e-06 2.05488e-06 0)
(2.38878e-06 2.19882e-06 0)
(2.51017e-06 2.34198e-06 0)
(2.63135e-06 2.48411e-06 0)
(2.75235e-06 2.62501e-06 0)
(2.8732e-06 2.76444e-06 0)
(2.99396e-06 2.90219e-06 0)
(3.11469e-06 3.03799e-06 0)
(3.23545e-06 3.17155e-06 0)
(3.35625e-06 3.30241e-06 0)
(3.47719e-06 3.43027e-06 0)
(1.10963e-06 7.41097e-07 0)
(1.22193e-06 8.69753e-07 0)
(1.33649e-06 1.003e-06 0)
(1.45175e-06 1.14005e-06 0)
(1.5682e-06 1.27991e-06 0)
(1.68529e-06 1.42185e-06 0)
(1.80302e-06 1.56518e-06 0)
(1.92117e-06 1.70934e-06 0)
(2.03967e-06 1.85383e-06 0)
(2.1584e-06 1.99823e-06 0)
(2.27733e-06 2.1422e-06 0)
(2.3964e-06 2.28541e-06 0)
(2.5156e-06 2.4276e-06 0)
(2.63492e-06 2.56851e-06 0)
(2.75438e-06 2.70793e-06 0)
(2.874e-06 2.84561e-06 0)
(2.99378e-06 2.9813e-06 0)
(3.11376e-06 3.11473e-06 0)
(3.2339e-06 3.24545e-06 0)
(3.35416e-06 3.3732e-06 0)
(1.04173e-06 6.94735e-07 0)
(1.14811e-06 8.21456e-07 0)
(1.25691e-06 9.53143e-07 0)
(1.3668e-06 1.08892e-06 0)
(1.47821e-06 1.22776e-06 0)
(1.59065e-06 1.36891e-06 0)
(1.70414e-06 1.51166e-06 0)
(1.81845e-06 1.65539e-06 0)
(1.93352e-06 1.79957e-06 0)
(2.04923e-06 1.94377e-06 0)
(2.1655e-06 2.08758e-06 0)
(2.28228e-06 2.23067e-06 0)
(2.39951e-06 2.37275e-06 0)
(2.51718e-06 2.51355e-06 0)
(2.63526e-06 2.65283e-06 0)
(2.75374e-06 2.79036e-06 0)
(2.87259e-06 2.9259e-06 0)
(2.9918e-06 3.0592e-06 0)
(3.11128e-06 3.18988e-06 0)
(3.23089e-06 3.31775e-06 0)
(9.72236e-07 6.50897e-07 0)
(1.07263e-06 7.75854e-07 0)
(1.17565e-06 9.06058e-07 0)
(1.28016e-06 1.04057e-06 0)
(1.38655e-06 1.17836e-06 0)
(1.49439e-06 1.31866e-06 0)
(1.60369e-06 1.4607e-06 0)
(1.71425e-06 1.60386e-06 0)
(1.82597e-06 1.74759e-06 0)
(1.93873e-06 1.89141e-06 0)
(2.05245e-06 2.03491e-06 0)
(2.16702e-06 2.17772e-06 0)
(2.28238e-06 2.31954e-06 0)
(2.39847e-06 2.46009e-06 0)
(2.51524e-06 2.59912e-06 0)
(2.63264e-06 2.7364e-06 0)
(2.75061e-06 2.87173e-06 0)
(2.86908e-06 3.00491e-06 0)
(2.98795e-06 3.13564e-06 0)
(3.10696e-06 3.2638e-06 0)
(8.99914e-07 6.09732e-07 0)
(9.9423e-07 7.33045e-07 0)
(1.09143e-06 8.61804e-07 0)
(1.19058e-06 9.95042e-07 0)
(1.292e-06 1.13172e-06 0)
(1.39533e-06 1.27105e-06 0)
(1.50057e-06 1.41225e-06 0)
(1.6075e-06 1.55469e-06 0)
(1.71603e-06 1.6978e-06 0)
(1.82602e-06 1.84108e-06 0)
(1.93734e-06 1.98409e-06 0)
(2.04987e-06 2.12647e-06 0)
(2.16352e-06 2.26788e-06 0)
(2.27818e-06 2.40805e-06 0)
(2.39377e-06 2.54672e-06 0)
(2.5102e-06 2.68368e-06 0)
(2.62738e-06 2.81875e-06 0)
(2.74519e-06 2.95177e-06 0)
(2.86351e-06 3.08258e-06 0)
(2.98201e-06 3.21116e-06 0)
(8.23332e-07 5.7102e-07 0)
(9.1146e-07 6.9279e-07 0)
(1.00281e-06 8.20129e-07 0)
(1.09663e-06 9.52066e-07 0)
(1.19319e-06 1.08756e-06 0)
(1.29217e-06 1.22582e-06 0)
(1.39353e-06 1.36606e-06 0)
(1.49706e-06 1.50764e-06 0)
(1.60264e-06 1.64997e-06 0)
(1.7101e-06 1.79255e-06 0)
(1.81928e-06 1.93494e-06 0)
(1.93004e-06 2.07674e-06 0)
(2.04222e-06 2.21762e-06 0)
(2.15569e-06 2.3573e-06 0)
(2.27032e-06 2.49552e-06 0)
(2.38597e-06 2.63208e-06 0)
(2.50251e-06 2.76683e-06 0)
(2.6198e-06 2.89966e-06 0)
(2.73766e-06 3.03055e-06 0)
(2.85577e-06 3.15958e-06 0)
(7.41072e-07 5.35373e-07 0)
(8.22893e-07 6.55563e-07 0)
(9.08373e-07 7.81383e-07 0)
(9.96965e-07 9.11884e-07 0)
(1.08882e-06 1.04603e-06 0)
(1.18367e-06 1.18304e-06 0)
(1.28142e-06 1.32212e-06 0)
(1.38185e-06 1.46264e-06 0)
(1.48481e-06 1.604e-06 0)
(1.59008e-06 1.74569e-06 0)
(1.69748e-06 1.88727e-06 0)
(1.80681e-06 2.02834e-06 0)
(1.91787e-06 2.16857e-06 0)
(2.03048e-06 2.30764e-06 0)
(2.14445e-06 2.44533e-06 0)
(2.2596e-06 2.58142e-06 0)
(2.37575e-06 2.71579e-06 0)
(2.4927e-06 2.8484e-06 0)
(2.61026e-06 2.9793e-06 0)
(2.72811e-06 3.10874e-06 0)
(6.51056e-07 5.01937e-07 0)
(7.26485e-07 6.20523e-07 0)
(8.06158e-07 7.44749e-07 0)
(8.89688e-07 8.73715e-07 0)
(9.7711e-07 1.00639e-06 0)
(1.06816e-06 1.14202e-06 0)
(1.1627e-06 1.2798e-06 0)
(1.26047e-06 1.41911e-06 0)
(1.36126e-06 1.55936e-06 0)
(1.46482e-06 1.70004e-06 0)
(1.57092e-06 1.84069e-06 0)
(1.6793e-06 1.98092e-06 0)
(1.78973e-06 2.12038e-06 0)
(1.90195e-06 2.25879e-06 0)
(2.01573e-06 2.39588e-06 0)
(2.13081e-06 2.53147e-06 0)
(2.24694e-06 2.66544e-06 0)
(2.36388e-06 2.79777e-06 0)
(2.48137e-06 2.92862e-06 0)
(2.59911e-06 3.05834e-06 0)
(5.52108e-07 4.72675e-07 0)
(6.21102e-07 5.89274e-07 0)
(6.95105e-07 7.11515e-07 0)
(7.73813e-07 8.38554e-07 0)
(8.57149e-07 9.69393e-07 0)
(9.44819e-07 1.10327e-06 0)
(1.03661e-06 1.23942e-06 0)
(1.13221e-06 1.37721e-06 0)
(1.23137e-06 1.51606e-06 0)
(1.33377e-06 1.65545e-06 0)
(1.43911e-06 1.79494e-06 0)
(1.54711e-06 1.93413e-06 0)
(1.65746e-06 2.07268e-06 0)
(1.76986e-06 2.2103e-06 0)
(1.88399e-06 2.34673e-06 0)
(1.99954e-06 2.48179e-06 0)
(2.11618e-06 2.61536e-06 0)
(2.23355e-06 2.74743e-06 0)
(2.35134e-06 2.87816e-06 0)
(2.46916e-06 3.00796e-06 0)
(7.9126e-08 8.60615e-09 0)
(2.39009e-07 5.2797e-08 0)
(4.08947e-07 1.35005e-07 0)
(5.91091e-07 2.49762e-07 0)
(7.88952e-07 3.9398e-07 0)
(1.00363e-06 5.62547e-07 0)
(1.23601e-06 7.49998e-07 0)
(1.48569e-06 9.50596e-07 0)
(1.75194e-06 1.15854e-06 0)
(2.03336e-06 1.36907e-06 0)
(7.45363e-08 7.69576e-09 0)
(2.2531e-07 4.74192e-08 0)
(3.85158e-07 1.22081e-07 0)
(5.55746e-07 2.27248e-07 0)
(7.4027e-07 3.60593e-07 0)
(9.39751e-07 5.1782e-07 0)
(1.15508e-06 6.94182e-07 0)
(1.38589e-06 8.84624e-07 0)
(1.63136e-06 1.08358e-06 0)
(1.89e-06 1.28726e-06 0)
(7.04106e-08 6.6235e-09 0)
(2.13019e-07 4.19783e-08 0)
(3.63937e-07 1.09583e-07 0)
(5.24276e-07 2.05797e-07 0)
(6.96884e-07 3.28874e-07 0)
(8.82622e-07 4.75172e-07 0)
(1.08244e-06 6.40558e-07 0)
(1.2962e-06 8.20681e-07 0)
(1.52359e-06 1.01049e-06 0)
(1.76303e-06 1.20729e-06 0)
(6.6635e-08 5.38037e-09 0)
(2.01821e-07 3.65159e-08 0)
(3.44836e-07 9.77461e-08 0)
(4.96283e-07 1.85999e-07 0)
(6.58706e-07 2.99953e-07 0)
(8.32735e-07 4.36471e-07 0)
(1.01925e-06 5.9186e-07 0)
(1.21801e-06 7.62235e-07 0)
(1.42906e-06 9.42807e-07 0)
(1.65048e-06 1.13125e-06 0)
(6.31052e-08 3.95403e-09 0)
(1.91369e-07 3.08421e-08 0)
(3.27129e-07 8.60271e-08 0)
(4.70521e-07 1.6686e-07 0)
(6.23822e-07 2.72336e-07 0)
(7.87447e-07 3.9972e-07 0)
(9.62275e-07 5.45712e-07 0)
(1.14794e-06 7.06863e-07 0)
(1.34488e-06 8.78793e-07 0)
(1.55055e-06 1.05914e-06 0)
(5.97921e-08 2.36811e-09 0)
(1.81574e-07 2.49938e-08 0)
(3.10655e-07 7.44877e-08 0)
(4.46747e-07 1.4851e-07 0)
(5.91896e-07 2.46284e-07 0)
(7.46286e-07 3.65364e-07 0)
(9.10757e-07 5.02738e-07 0)
(1.08478e-06 6.55233e-07 0)
(1.26913e-06 8.18863e-07 0)
(1.46087e-06 9.91105e-07 0)
(5.66291e-08 6.14744e-10 0)
(1.7223e-07 1.88862e-08 0)
(2.95018e-07 6.28828e-08 0)
(4.24327e-07 1.30495e-07 0)
(5.62015e-07 2.21114e-07 0)
(7.08058e-07 3.32519e-07 0)
(8.63277e-07 4.61953e-07 0)
(1.02699e-06 6.06449e-07 0)
(1.20019e-06 7.62406e-07 0)
(1.37967e-06 9.27027e-07 0)
(5.35913e-08 -1.28348e-09 0)
(1.63258e-07 1.25451e-08 0)
(2.80066e-07 5.12203e-08 0)
(4.03009e-07 1.12802e-07 0)
(5.33783e-07 1.96798e-07 0)
(6.72176e-07 3.01145e-07 0)
(8.1898e-07 4.23279e-07 0)
(9.73393e-07 5.60368e-07 0)
(1.13657e-06 7.0917e-07 0)
(1.3052e-06 8.6666e-07 0)
(5.06396e-08 -3.32755e-09 0)
(1.54541e-07 5.93617e-09 0)
(2.65585e-07 3.93906e-08 0)
(3.82454e-07 9.52231e-08 0)
(5.06709e-07 1.73021e-07 0)
(6.3798e-07 2.70834e-07 0)
(7.77031e-07 3.86258e-07 0)
(9.22982e-07 5.16552e-07 0)
(1.07705e-06 6.58771e-07 0)
(1.23597e-06 8.09716e-07 0)
(4.77524e-08 -5.50363e-09 0)
(1.46015e-07 -9.28468e-10 0)
(2.51449e-07 2.73829e-08 0)
(3.62452e-07 7.77151e-08 0)
(4.80465e-07 1.49701e-07 0)
(6.04988e-07 2.4146e-07 0)
(7.36757e-07 3.50706e-07 0)
(8.74866e-07 4.74759e-07 0)
(1.02054e-06 6.10923e-07 0)
(1.17066e-06 7.55898e-07 0)
(4.49062e-08 -7.81069e-09 0)
(1.37609e-07 -8.06487e-09 0)
(2.37531e-07 1.51435e-08 0)
(3.42796e-07 6.01782e-08 0)
(4.54735e-07 1.26686e-07 0)
(5.72755e-07 2.12821e-07 0)
(6.97561e-07 3.16382e-07 0)
(8.2827e-07 4.3473e-07 0)
(9.66061e-07 5.65356e-07 0)
(1.10806e-06 7.04926e-07 0)
(4.20858e-08 -1.02445e-08 0)
(1.29284e-07 -1.54742e-08 0)
(2.23746e-07 2.65699e-09 0)
(3.2333e-07 4.25832e-08 0)
(4.29266e-07 1.03924e-07 0)
(5.40897e-07 1.84839e-07 0)
(6.58909e-07 2.83168e-07 0)
(7.82482e-07 3.96304e-07 0)
(9.12734e-07 5.21881e-07 0)
(1.04707e-06 6.56579e-07 0)
(3.9282e-08 -1.28114e-08 0)
(1.21019e-07 -2.31798e-08 0)
(2.10039e-07 -1.01178e-08 0)
(3.03932e-07 2.48763e-08 0)
(4.03832e-07 8.1347e-08 0)
(5.09062e-07 1.57422e-07 0)
(6.20302e-07 2.5095e-07 0)
(7.36834e-07 3.59342e-07 0)
(8.59709e-07 4.80334e-07 0)
(9.8664e-07 6.10661e-07 0)
(3.64945e-08 -1.5533e-08 0)
(1.12828e-07 -3.12084e-08 0)
(1.9639e-07 -2.31939e-08 0)
(2.84514e-07 7.07326e-09 0)
(3.78239e-07 5.89871e-08 0)
(4.76921e-07 1.30606e-07 0)
(5.8126e-07 2.1975e-07 0)
(6.90677e-07 3.23839e-07 0)
(8.06162e-07 4.40686e-07 0)
(9.25757e-07 5.67106e-07 0)
(3.37483e-08 -1.84494e-08 0)
(1.04811e-07 -3.96303e-08 0)
(1.82875e-07 -3.66355e-08 0)
(2.65057e-07 -1.08691e-08 0)
(3.52327e-07 3.68203e-08 0)
(4.44151e-07 1.04369e-07 0)
(5.41285e-07 1.89536e-07 0)
(6.43328e-07 2.89743e-07 0)
(7.5122e-07 4.02858e-07 0)
(8.63346e-07 5.25795e-07 0)
(3.10968e-08 -2.16966e-08 0)
(9.71329e-08 -4.85471e-08 0)
(1.69616e-07 -5.04197e-08 0)
(2.45567e-07 -2.87908e-08 0)
(3.25942e-07 1.50952e-08 0)
(4.10419e-07 7.90034e-08 0)
(4.9986e-07 1.60605e-07 0)
(5.94079e-07 2.57328e-07 0)
(6.93987e-07 3.6709e-07 0)
(7.98317e-07 4.86923e-07 0)
(2.87374e-08 -2.54359e-08 0)
(9.03047e-08 -5.81605e-08 0)
(1.57036e-07 -6.46794e-08 0)
(2.26225e-07 -4.67842e-08 0)
(2.98982e-07 -6.24419e-09 0)
(3.75348e-07 5.44533e-08 0)
(4.56356e-07 1.32887e-07 0)
(5.42066e-07 2.26494e-07 0)
(6.33374e-07 3.33246e-07 0)
(7.29362e-07 4.50306e-07 0)
(2.709e-08 -3.03621e-08 0)
(8.49181e-08 -6.87838e-08 0)
(1.45545e-07 -7.91315e-08 0)
(2.07123e-07 -6.41351e-08 0)
(2.71259e-07 -2.6285e-08 0)
(3.38486e-07 3.17052e-08 0)
(4.10093e-07 1.07357e-07 0)
(4.86393e-07 1.98165e-07 0)
(5.68283e-07 3.02168e-07 0)
(6.55184e-07 4.16687e-07 0)
(2.8197e-08 -3.69861e-08 0)
(8.31751e-08 -8.07988e-08 0)
(1.36545e-07 -9.40467e-08 0)
(1.88751e-07 -8.12492e-08 0)
(2.42557e-07 -4.55179e-08 0)
(2.99105e-07 1.01691e-08 0)
(3.59954e-07 8.3346e-08 0)
(4.25625e-07 1.71598e-07 0)
(4.97016e-07 2.7306e-07 0)
(5.73821e-07 3.85218e-07 0)
(3.63859e-08 -4.89806e-08 0)
(8.64591e-08 -9.44935e-08 0)
(1.30699e-07 -1.07542e-07 0)
(1.71042e-07 -9.52e-08 0)
(2.12542e-07 -6.08298e-08 0)
(2.56649e-07 -7.06871e-09 0)
(3.05235e-07 6.37907e-08 0)
(3.58912e-07 1.49545e-07 0)
(4.18602e-07 2.48452e-07 0)
(4.84152e-07 3.58192e-07 0)
)
;

boundaryField
{
    left
    {
        type            fixedDisplacement;
        value           uniform (0 0 0);
    }
    right
    {
        type            solidTraction;
        tractionSeries  
{
        file            "$FOAM_CASE/constant/timeVsTraction";
        outOfBounds     clamp;
}
        pressure        uniform 0;
        secondOrder     false;
        setEffectiveTraction false;
        relaxationFactor 1;
        value           nonuniform List<vector> 
30
(
(6.54973e-06 4.80364e-06 2.10355e-21)
(6.39717e-06 4.74862e-06 2.11153e-21)
(6.24326e-06 4.69399e-06 2.15519e-21)
(6.08757e-06 4.63874e-06 2.24078e-21)
(5.93011e-06 4.58223e-06 2.36572e-21)
(5.77123e-06 4.5239e-06 2.52662e-21)
(5.61151e-06 4.46339e-06 2.7177e-21)
(5.4516e-06 4.40053e-06 2.93278e-21)
(5.29221e-06 4.3353e-06 3.16501e-21)
(5.13402e-06 4.26789e-06 3.40648e-21)
(4.9844e-06 4.20157e-06 3.57581e-21)
(4.84252e-06 4.13637e-06 3.64516e-21)
(4.70266e-06 4.07019e-06 3.69257e-21)
(4.5651e-06 4.00337e-06 3.71892e-21)
(4.42997e-06 3.93636e-06 3.72015e-21)
(4.29695e-06 3.86961e-06 3.69785e-21)
(4.16627e-06 3.80336e-06 3.65578e-21)
(4.03768e-06 3.73809e-06 3.59383e-21)
(3.91088e-06 3.67408e-06 3.51559e-21)
(3.78554e-06 3.61159e-06 3.42435e-21)
(3.66128e-06 3.55082e-06 3.32405e-21)
(3.53768e-06 3.49189e-06 3.21896e-21)
(3.41429e-06 3.43483e-06 3.11388e-21)
(3.29069e-06 3.3796e-06 3.01357e-21)
(3.16646e-06 3.32607e-06 2.92289e-21)
(3.04126e-06 3.27401e-06 2.84606e-21)
(2.91482e-06 3.22312e-06 2.78808e-21)