/*--------------------------------*- C++ -*----------------------------------*\
  =========                 |
  \\      /  F ield         | OpenFOAM: The Open Source CFD Toolbox
   \\    /   O peration     | Website:  https://openfoam.org
    \\  /    A nd           | Version:  9
     \\/     M anipulation  |
\*---------------------------------------------------------------------------*/
FoamFile
{
    format      ascii;
    class       volSymmTensorField;
    location    "5";
    object      epsilon;
}
// * * * * * * * * * * * * * * * * * * * * * * * * * * * * * * * * * * * * * //

dimensions      [0 0 0 0 0 0 0];

internalField   nonuniform List<symmTensor> 
1000
(
(2.10726e-06 -2.73146e-06 2.54865e-19 4.23718e-07 2.80273e-19 7.63796e-34)
(2.90594e-06 -2.10676e-06 -4.34058e-21 -5.19952e-07 2.43528e-21 0)
(3.2974e-06 -1.61368e-06 5.06495e-21 -9.71206e-07 -9.74183e-22 0)
(3.51686e-06 -1.24159e-06 1.30066e-21 -1.28795e-06 -9.31349e-22 0)
(3.62255e-06 -9.42184e-07 -5.49986e-21 -1.46351e-06 4.07866e-22 0)
(3.65796e-06 -7.08106e-07 -5.95051e-22 -1.57583e-06 6.54647e-22 0)
(3.65371e-06 -5.17909e-07 -4.99621e-21 -1.63656e-06 -2.68214e-21 0)
(3.62042e-06 -3.66694e-07 3.42897e-21 -1.66752e-06 1.60229e-21 0)
(3.57727e-06 -2.41018e-07 -1.7686e-21 -1.67874e-06 -2.01485e-21 0)
(3.51454e-06 -1.36471e-07 0 -1.68035e-06 0 0)
(2.85097e-06 -3.03759e-06 2.63532e-19 1.16987e-07 3.39712e-19 4.59772e-35)
(3.47032e-06 -2.1748e-06 0 -7.22423e-07 0 0)
(3.73547e-06 -1.55162e-06 4.05427e-21 -1.09431e-06 1.93265e-21 0)
(3.85823e-06 -1.1036e-06 -6.95664e-21 -1.35825e-06 -3.71205e-21 0)
(3.88864e-06 -7.62016e-07 -2.95679e-21 -1.49148e-06 -1.7839e-21 0)
(3.86457e-06 -5.06553e-07 2.05804e-21 -1.57425e-06 2.1009e-21 0)
(3.81208e-06 -3.07104e-07 2.30439e-21 -1.61149e-06 1.54518e-21 0)
(3.74116e-06 -1.55501e-07 5.41782e-21 -1.62826e-06 3.16262e-21 0)
(3.66143e-06 -3.26508e-08 0 -1.62278e-06 0 0)
(3.57722e-06 6.56678e-08 0 -1.62554e-06 0 0)
(3.68442e-06 -3.23117e-06 2.61648e-19 -2.89344e-07 3.91583e-19 0)
(4.05487e-06 -2.17209e-06 0 -9.51399e-07 0 0)
(4.15584e-06 -1.44389e-06 3.86417e-21 -1.20408e-06 1.99759e-21 0)
(4.15894e-06 -9.36523e-07 -1.1595e-21 -1.39133e-06 4.11513e-22 0)
(4.10047e-06 -5.65158e-07 -5.67826e-23 -1.46803e-06 2.54299e-23 0)
(4.00879e-06 -2.97572e-07 -1.91871e-21 -1.51279e-06 -1.98779e-21 0)
(3.90377e-06 -9.65877e-08 2.61959e-21 -1.52145e-06 1.21072e-21 0)
(3.79213e-06 5.01947e-08 -1.94506e-21 -1.52027e-06 -1.43732e-21 0)
(3.67889e-06 1.6427e-07 -1.56708e-22 -1.49923e-06 2.72326e-22 0)
(3.56976e-06 2.56995e-07 -4.10727e-22 -1.49751e-06 -1.7636e-22 0)
(4.57645e-06 -3.28435e-06 2.32829e-19 -7.72348e-07 4.19793e-19 -2.68235e-35)
(4.64501e-06 -2.08996e-06 2.21311e-21 -1.19822e-06 -2.29532e-22 0)
(4.55191e-06 -1.29235e-06 -1.76609e-21 -1.29839e-06 -9.97208e-22 0)
(4.41638e-06 -7.4853e-07 -1.11904e-21 -1.38876e-06 2.18346e-22 0)
(4.25793e-06 -3.63674e-07 2.00331e-21 -1.39752e-06 1.93881e-21 0)
(4.09305e-06 -9.53821e-08 -2.41135e-21 -1.39852e-06 -1.59547e-21 0)
(3.93328e-06 9.85851e-08 -2.08323e-21 -1.37676e-06 -1.48342e-21 0)
(3.78155e-06 2.35135e-07 -4.64295e-21 -1.35733e-06 -3.39878e-21 0)
(3.637e-06 3.35787e-07 -6.65799e-22 -1.32362e-06 -8.14724e-22 0)
(3.50633e-06 4.17754e-07 1.13724e-21 -1.31603e-06 1.0071e-21 0)
(5.48316e-06 -3.17203e-06 1.81207e-19 -1.30105e-06 3.95378e-19 -4.61971e-34)
(5.22149e-06 -1.91741e-06 1.1573e-25 -1.45129e-06 5.47954e-27 0)
(4.91367e-06 -1.09471e-06 -5.71726e-21 -1.37318e-06 -2.80292e-21 0)
(4.62596e-06 -5.43686e-07 5.1955e-22 -1.3508e-06 -2.02127e-23 0)
(4.35997e-06 -1.66529e-07 -7.28099e-22 -1.28286e-06 7.83672e-23 0)
(4.119e-06 8.75219e-08 1.73641e-21 -1.23635e-06 1.60605e-21 0)
(3.90493e-06 2.63652e-07 -1.9453e-22 -1.18392e-06 5.83002e-23 0)
(3.71504e-06 3.82573e-07 1.8322e-21 -1.14729e-06 1.22486e-21 0)
(3.54351e-06 4.64504e-07 -3.96918e-22 -1.10467e-06 -8.52171e-22 0)
(3.39434e-06 5.31297e-07 -7.24715e-22 -1.09252e-06 -5.85933e-22 0)
(6.37373e-06 -2.88858e-06 1.21889e-19 -1.84007e-06 3.40672e-19 -4.44862e-34)
(5.77045e-06 -1.64732e-06 1.05533e-25 -1.69389e-06 2.22638e-26 0)
(5.23506e-06 -8.48271e-07 -5.70957e-26 -1.41942e-06 -8.79896e-27 0)
(4.78619e-06 -3.26003e-07 4.59077e-22 -1.27497e-06 5.59327e-23 0)
(4.409e-06 1.76424e-08 -2.47386e-21 -1.12685e-06 -1.50538e-21 0)
(4.09269e-06 2.3967e-07 2.81976e-23 -1.03372e-06 -3.23106e-25 0)
(3.82752e-06 3.86242e-07 1.84115e-21 -9.53838e-07 1.24778e-21 0)
(3.60373e-06 4.80073e-07 3.915e-21 -9.03483e-07 2.86613e-21 0)
(3.41019e-06 5.38867e-07 7.09154e-22 -8.56417e-07 5.20839e-22 0)
(3.24644e-06 5.86872e-07 -1.23832e-21 -8.41747e-07 -9.76641e-22 0)
(7.18831e-06 -2.416e-06 8.05686e-20 -2.34647e-06 2.65275e-19 -8.39603e-34)
(6.25966e-06 -1.25963e-06 1.65519e-21 -1.90041e-06 6.63823e-22 0)
(5.48808e-06 -5.45798e-07 1.75003e-21 -1.41657e-06 7.95607e-22 0)
(4.87816e-06 -9.79007e-08 -3.77281e-22 -1.15043e-06 -1.12263e-22 0)
(4.39603e-06 1.80252e-07 1.78869e-21 -9.2879e-07 1.1988e-21 0)
(4.01359e-06 3.49533e-07 -1.6461e-21 -7.97942e-07 -1.13562e-21 0)
(3.70699e-06 4.54264e-07 4.67858e-22 -6.99494e-07 2.68004e-23 0)
(3.45771e-06 5.1608e-07 -1.46954e-21 -6.42336e-07 -9.64229e-22 0)
(3.24966e-06 5.49052e-07 -1.01476e-22 -5.96923e-07 1.36607e-23 0)
(3.07627e-06 5.76485e-07 -7.44563e-22 -5.82953e-07 -4.86253e-22 0)
(7.95099e-06 -1.75286e-06 4.2424e-20 -2.78308e-06 1.70119e-19 -2.70884e-35)
(6.67154e-06 -7.34692e-07 -4.41403e-21 -2.01995e-06 -1.59115e-21 0)
(5.65495e-06 -1.82893e-07 3.41724e-23 -1.3236e-06 1.87456e-23 0)
(4.89719e-06 1.2762e-07 5.51532e-22 -9.58129e-07 2.79272e-22 0)
(4.32741e-06 3.03898e-07 4.08962e-21 -6.87287e-07 2.03749e-21 0)
(3.89698e-06 4.01085e-07 -2.41576e-22 -5.39782e-07 -7.51552e-23 0)
(3.56407e-06 4.55991e-07 6.01141e-27 -4.39102e-07 1.17254e-27 0)
(3.30097e-06 4.83707e-07 -1.43788e-21 -3.86085e-07 -7.5952e-22 0)
(3.08703e-06 4.9279e-07 3.48226e-23 -3.49675e-07 1.19046e-24 0)
(2.90957e-06 5.0157e-07 1.07561e-22 -3.40098e-07 5.2797e-23 0)
(8.53912e-06 -8.1714e-07 1.16711e-20 -3.03891e-06 6.3824e-20 1.48743e-34)
(6.87173e-06 -7.11341e-08 -4.86149e-21 -1.91912e-06 -2.04192e-21 0)
(5.62302e-06 1.91511e-07 5.0765e-22 -1.05312e-06 4.3223e-22 0)
(4.77179e-06 2.89879e-07 4.7697e-22 -6.58734e-07 3.76763e-22 0)
(4.1727e-06 3.39414e-07 -1.99537e-22 -4.0163e-07 -1.2143e-22 0)
(3.73603e-06 3.56535e-07 1.59321e-21 -2.77748e-07 5.80744e-22 0)
(3.40581e-06 3.65071e-07 8.68689e-23 -2.00573e-07 2.6387e-23 0)
(3.14665e-06 3.65197e-07 2.5696e-21 -1.65539e-07 9.86184e-22 0)
(2.93742e-06 3.59025e-07 5.67338e-22 -1.44882e-07 2.20054e-22 0)
(2.76155e-06 3.55948e-07 3.18121e-22 -1.42287e-07 1.28477e-22 0)
(9.06155e-06 7.3926e-07 9.75566e-22 -2.80297e-06 -3.8997e-20 -1.72715e-34)
(6.699e-06 8.23942e-07 -3.71824e-22 -1.26261e-06 -6.45127e-22 0)
(5.38763e-06 5.44468e-07 1.6887e-21 -5.28112e-07 7.17637e-22 0)
(4.57053e-06 3.5395e-07 8.67678e-23 -2.60292e-07 1.21779e-22 0)
(4.02099e-06 2.79937e-07 2.965e-27 -1.22295e-07 2.75505e-27 0)
(3.61588e-06 2.38743e-07 1.61572e-21 -6.69865e-08 2.9195e-22 0)
(3.30821e-06 2.24129e-07 2.50018e-23 -3.75492e-08 7.25247e-24 0)
(3.06113e-06 2.15651e-07 1.23828e-21 -2.77142e-08 2.36063e-22 0)
(2.85918e-06 2.08995e-07 -1.36514e-23 -2.33735e-08 -8.7224e-25 0)
(2.68448e-06 2.04487e-07 -2.07867e-23 -2.50805e-08 -4.32965e-24 0)
(-7.32087e-09 9.12363e-09 3.1299e-20 -2.34886e-09 2.29711e-20 1.62371e-34)
(1.20063e-08 -2.01903e-08 -9.32296e-23 -3.55302e-09 2.05172e-20 1.57127e-36)
(1.07528e-07 -6.9332e-08 -1.18374e-21 -4.98012e-08 1.68035e-20 1.95707e-35)
(2.58203e-07 -1.08701e-07 -2.17168e-24 -1.1875e-07 1.80058e-20 0)
(4.31775e-07 -1.33019e-07 -1.60507e-22 -1.95391e-07 1.60223e-20 -1.56114e-36)
(6.13252e-07 -1.46894e-07 -1.62182e-21 -2.74239e-07 1.76265e-20 3.25101e-35)
(7.90563e-07 -1.52381e-07 3.64329e-22 -3.50376e-07 1.94535e-20 1.5473e-36)
(9.59631e-07 -1.52876e-07 -1.07598e-21 -4.22283e-07 1.82301e-20 2.93011e-35)
(1.11474e-06 -1.48829e-07 8.69303e-22 -4.88467e-07 1.851e-20 -1.26671e-35)
(1.25844e-06 -1.45706e-07 1.82473e-21 -5.48055e-07 1.79676e-20 -3.80653e-35)
(1.98302e-08 -2.19091e-08 3.22685e-20 -8.97076e-09 5.24552e-21 4.3621e-35)
(1.14462e-07 -1.30508e-07 1.30868e-21 -1.65392e-09 1.43689e-21 0)
(2.87169e-07 -2.50548e-07 -1.22477e-21 -7.35478e-08 -1.23129e-21 0)
(4.79272e-07 -3.42346e-07 1.14172e-23 -1.70596e-07 -1.01947e-21 0)
(6.72e-07 -3.98868e-07 0 -2.67351e-07 0 0)
(8.54798e-07 -4.30606e-07 -1.85784e-21 -3.58508e-07 -2.76058e-22 0)
(1.02321e-06 -4.42129e-07 3.14008e-22 -4.4053e-07 1.60098e-21 0)
(1.17797e-06 -4.41476e-07 2.34289e-23 -5.13892e-07 8.61331e-23 0)
(1.31432e-06 -4.29316e-07 -1.00282e-21 -5.78372e-07 -2.91138e-21 0)
(1.44095e-06 -4.19627e-07 7.33839e-22 -6.3318e-07 1.14026e-22 0)
(3.02687e-08 -1.18338e-07 3.44712e-20 3.44121e-08 6.81842e-21 -1.94824e-36)
(2.11505e-07 -3.29948e-07 1.33847e-21 1.09903e-08 1.41935e-21 0)
(4.5536e-07 -4.78665e-07 1.39973e-21 -1.00793e-07 2.93433e-22 0)
(6.94782e-07 -5.78385e-07 7.1491e-23 -2.3958e-07 -9.83173e-22 0)
(9.15139e-07 -6.33423e-07 0 -3.67542e-07 0 0)
(1.10899e-06 -6.59402e-07 -2.07951e-21 -4.79806e-07 -5.43291e-22 0)
(1.27735e-06 -6.6271e-07 -2.83658e-21 -5.74116e-07 -7.94973e-22 0)
(1.4254e-06 -6.52249e-07 1.87695e-21 -6.5355e-07 1.14832e-21 0)
(1.54847e-06 -6.29234e-07 1.14074e-23 -7.18356e-07 3.66758e-23 0)
(1.66333e-06 -6.09882e-07 -1.68827e-21 -7.71071e-07 -1.06788e-21 0)
(4.59778e-08 -2.69454e-07 4.41361e-20 1.37623e-07 1.10533e-20 -3.75611e-35)
(3.44387e-07 -5.69007e-07 3.2939e-22 2.41984e-08 -1.19198e-21 0)
(6.54227e-07 -7.25423e-07 1.53827e-21 -1.37484e-07 3.00948e-22 0)
(9.36643e-07 -8.13239e-07 0 -3.17334e-07 0 0)
(1.18127e-06 -8.49744e-07 -2.62112e-21 -4.73911e-07 9.77378e-22 0)
(1.38582e-06 -8.56695e-07 3.25724e-23 -6.06416e-07 2.41943e-21 0)
(1.55503e-06 -8.42269e-07 -1.30927e-22 -7.13409e-07 -1.29982e-21 0)
(1.69801e-06 -8.15358e-07 -3.76338e-22 -8.00189e-07 -2.00642e-21 0)
(1.8095e-06 -7.77844e-07 8.56537e-22 -8.67248e-07 2.78035e-22 0)
(1.91457e-06 -7.46121e-07 1.59892e-21 -9.19999e-07 5.9991e-22 0)
(8.66984e-08 -4.82923e-07 4.69999e-20 2.81119e-07 2.03673e-20 9.97532e-35)
(5.31465e-07 -8.29266e-07 -2.69955e-21 2.12207e-08 1.81084e-21 0)
(9.07466e-07 -9.69938e-07 -1.63799e-21 -2.08146e-07 -4.82206e-22 0)
(1.22648e-06 -1.02859e-06 -4.41142e-22 -4.32544e-07 1.77337e-21 0)
(1.48718e-06 -1.03271e-06 -1.72918e-23 -6.15075e-07 1.09399e-22 0)
(1.69571e-06 -1.01009e-06 2.52539e-21 -7.63838e-07 -6.78644e-22 0)
(1.86074e-06 -9.70315e-07 1.10039e-21 -8.79581e-07 2.88881e-22 0)
(1.99493e-06 -9.21491e-07 0 -9.70302e-07 0 0)
(2.0926e-06 -8.66583e-07 -1.1755e-21 -1.03695e-06 -1.54698e-21 0)
(2.18614e-06 -8.19869e-07 4.68673e-22 -1.08769e-06 1.13714e-22 0)
(1.75449e-07 -7.63479e-07 6.90106e-20 4.42565e-07 2.99757e-20 -1.51316e-34)
(7.79055e-07 -1.09315e-06 1.10096e-21 1.45778e-09 -2.14877e-21 0)
(1.21757e-06 -1.18992e-06 -1.35333e-21 -3.05006e-07 -1.46013e-21 0)
(1.56399e-06 -1.20447e-06 2.9698e-22 -5.72971e-07 -8.25781e-22 0)
(1.83071e-06 -1.16749e-06 2.86213e-21 -7.76209e-07 9.57936e-22 0)
(2.03439e-06 -1.11002e-06 -2.7608e-21 -9.35443e-07 3.08208e-22 0)
(2.1883e-06 -1.04168e-06 -3.11584e-24 -1.05485e-06 7.33482e-23 0)
(2.30812e-06 -9.69036e-07 -2.15135e-21 -1.14527e-06 -1.48211e-21 0)
(2.38845e-06 -8.96219e-07 4.52927e-24 -1.20878e-06 2.87901e-23 0)
(2.46711e-06 -8.3375e-07 -2.34902e-21 -1.25507e-06 -1.07374e-21 0)
(3.37962e-07 -1.10809e-06 1.08164e-19 5.87633e-07 5.83166e-20 -1.62015e-34)
(1.08928e-06 -1.35018e-06 6.09578e-23 -4.20137e-08 -9.24239e-23 0)
(1.57888e-06 -1.37232e-06 -4.46633e-26 -4.25502e-07 7.63376e-26 0)
(1.94035e-06 -1.32781e-06 -2.92433e-21 -7.33064e-07 -2.04981e-21 0)
(2.20186e-06 -1.24284e-06 -4.95855e-22 -9.50955e-07 1.32834e-21 0)
(2.391e-06 -1.14768e-06 -2.67963e-21 -1.1146e-06 -1.09057e-21 0)
(2.52618e-06 -1.04999e-06 4.81721e-21 -1.23218e-06 2.1475e-21 0)
(2.62532e-06 -9.53913e-07 -5.82169e-25 -1.31775e-06 5.76146e-23 0)
(2.68449e-06 -8.64405e-07 9.48086e-22 -1.37484e-06 -4.55533e-24 0)
(2.744e-06 -7.86702e-07 -1.28492e-21 -1.41406e-06 -6.11734e-22 0)
(5.98069e-07 -1.50397e-06 1.56799e-19 6.84087e-07 9.88613e-20 -3.29316e-34)
(1.46109e-06 -1.59029e-06 1.57035e-21 -1.12145e-07 -1.8776e-21 0)
(1.97996e-06 -1.50843e-06 -6.0622e-22 -5.59248e-07 8.08534e-22 0)
(2.33985e-06 -1.39158e-06 3.70639e-22 -8.96516e-07 -5.78249e-22 0)
(2.5837e-06 -1.25392e-06 3.3052e-26 -1.12096e-06 -6.496e-26 0)
(2.74856e-06 -1.1206e-06 3.10972e-21 -1.28248e-06 2.62262e-22 0)
(2.85797e-06 -9.95042e-07 2.33245e-22 -1.39336e-06 -1.01369e-21 0)
(2.93062e-06 -8.78148e-07 -7.78331e-23 -1.4699e-06 8.3425e-22 0)
(2.96593e-06 -7.74852e-07 1.08968e-23 -1.51907e-06 4.1663e-22 0)
(3.00198e-06 -6.83944e-07 9.82115e-22 -1.54842e-06 9.18037e-22 0)
(9.74618e-07 -1.92796e-06 1.96281e-19 7.01649e-07 1.54972e-19 4.5057e-34)
(1.89187e-06 -1.80358e-06 -5.0496e-22 -2.13936e-07 3.44293e-21 0)
(2.40854e-06 -1.59425e-06 -5.86113e-26 -6.99357e-07 6.15064e-26 0)
(2.7461e-06 -1.39509e-06 4.02343e-21 -1.05099e-06 9.44456e-22 0)
(2.9586e-06 -1.20222e-06 3.07327e-21 -1.27169e-06 1.53438e-21 0)
(3.0894e-06 -1.03211e-06 2.77273e-21 -1.42424e-06 1.38462e-21 0)
(3.16636e-06 -8.81451e-07 -3.02873e-22 -1.52316e-06 8.71484e-22 0)
(3.20728e-06 -7.48069e-07 -3.3389e-21 -1.58788e-06 -1.86572e-21 0)
(3.2168e-06 -6.34496e-07 2.05009e-21 -1.62669e-06 4.84552e-22 0)
(3.22662e-06 -5.32927e-07 9.19498e-22 -1.64879e-06 5.46438e-22 0)
(1.47784e-06 -2.34931e-06 2.29531e-19 6.18811e-07 2.12626e-19 6.61796e-35)
(2.37606e-06 -1.97957e-06 -1.01851e-21 -3.49548e-07 7.52444e-22 0)
(2.85137e-06 -1.62907e-06 -1.97577e-21 -8.3823e-07 -9.21345e-22 0)
(3.14238e-06 -1.34268e-06 8.55882e-21 -1.1839e-06 2.00437e-21 0)
(3.30854e-06 -1.09484e-06 5.23784e-23 -1.38862e-06 -5.96412e-23 0)
(3.3955e-06 -8.90512e-07 -2.72669e-21 -1.52445e-06 -1.54827e-21 0)
(3.43368e-06 -7.18678e-07 -2.92134e-21 -1.60684e-06 -4.58679e-22 0)
(3.4382e-06 -5.73739e-07 -1.10086e-21 -1.65495e-06 -6.58461e-22 0)
(3.42306e-06 -4.56233e-07 1.21962e-22 -1.68604e-06 -9.13199e-22 0)
(3.39812e-06 -3.54332e-07 5.51112e-22 -1.68866e-06 1.15401e-21 0)
(1.38783e-06 -1.35072e-07 1.83877e-21 -6.03474e-07 1.90728e-20 -1.12921e-35)
(1.50058e-06 -1.20333e-07 1.71998e-21 -6.49657e-07 1.77521e-20 -2.47382e-35)
(1.60416e-06 -1.07524e-07 -1.72491e-22 -6.92516e-07 1.54791e-20 -1.43903e-35)
(1.69731e-06 -9.58975e-08 1.62063e-22 -7.31298e-07 1.66421e-20 -6.29912e-37)
(1.78134e-06 -8.51159e-08 -8.73619e-22 -7.66188e-07 1.67668e-20 3.73245e-35)
(1.85664e-06 -7.54646e-08 5.68258e-22 -7.97639e-07 1.72099e-20 0)
(1.92416e-06 -6.66122e-08 5.34705e-22 -8.25786e-07 1.71598e-20 0)
(1.98434e-06 -5.86287e-08 1.05374e-21 -8.5097e-07 1.77928e-20 4.8207e-37)
(2.03789e-06 -5.13087e-08 9.5765e-22 -8.73386e-07 1.72542e-20 -1.25807e-35)
(2.08523e-06 -4.46015e-08 1.59475e-21 -8.93255e-07 1.84072e-20 8.15025e-37)
(2.12683e-06 -3.83609e-08 1.88493e-21 -9.10739e-07 1.75628e-20 -3.79992e-35)
(2.16297e-06 -3.24973e-08 -1.33151e-22 -9.25976e-07 1.67767e-20 1.2713e-35)
(2.19391e-06 -2.68946e-08 1.83789e-21 -9.39062e-07 1.7515e-20 -3.8286e-35)
(2.2198e-06 -2.14702e-08 -1.5575e-21 -9.50071e-07 1.47752e-20 -7.68062e-37)
(2.24073e-06 -1.61548e-08 3.74552e-22 -9.59033e-07 1.74195e-20 1.30851e-35)
(2.25679e-06 -1.09428e-08 2.26502e-22 -9.65984e-07 1.68752e-20 -3.09559e-45)
(2.26794e-06 -5.90691e-09 -4.40201e-22 -9.70903e-07 1.61254e-20 -1.39598e-37)
(2.2746e-06 -1.33493e-09 7.88737e-22 -9.73864e-07 1.75935e-20 1.00135e-37)
(2.27673e-06 2.17042e-09 4.29559e-22 -9.74764e-07 1.59305e-20 -3.94571e-35)
(2.27598e-06 2.99343e-09 1.35112e-20 -9.73438e-07 1.42659e-20 -2.81567e-35)
(1.5451e-06 -3.90664e-07 1.79658e-21 -6.82583e-07 2.20931e-21 0)
(1.62865e-06 -3.51474e-07 1.16397e-21 -7.17844e-07 3.1902e-22 0)
(1.70856e-06 -3.16954e-07 8.70118e-23 -7.50318e-07 -5.05017e-22 0)
(1.78023e-06 -2.84749e-07 2.6451e-21 -7.80128e-07 2.38557e-21 0)
(1.84625e-06 -2.54567e-07 -5.0807e-22 -8.06728e-07 -1.19953e-22 0)
(1.90584e-06 -2.27296e-07 -2.15712e-21 -8.31153e-07 -2.18712e-21 0)
(1.96012e-06 -2.0205e-07 1.0995e-21 -8.53072e-07 4.06752e-22 0)
(2.00899e-06 -1.79123e-07 0 -8.73e-07 0 0)
(2.0531e-06 -1.57966e-07 5.23931e-22 -8.90926e-07 1.85477e-22 0)
(2.09258e-06 -1.385e-07 1.07724e-21 -9.07085e-07 4.15005e-22 0)
(2.12781e-06 -1.20349e-07 3.23119e-21 -9.21551e-07 1.66934e-21 0)
(2.15895e-06 -1.03305e-07 1.45881e-23 -9.34439e-07 1.66885e-23 0)
(2.18625e-06 -8.70841e-08 4.19059e-22 -9.45802e-07 -3.26775e-22 0)
(2.20984e-06 -7.14942e-08 6.16975e-22 -9.55675e-07 7.06264e-22 0)
(2.22981e-06 -5.6381e-08 6.32956e-22 -9.64032e-07 7.26446e-22 0)
(2.2463e-06 -4.1739e-08 -6.27023e-22 -9.70785e-07 -7.23303e-22 0)
(2.25918e-06 -2.77436e-08 -6.30576e-22 -9.75702e-07 -7.3151e-22 0)
(2.26862e-06 -1.50048e-08 -1.26636e-21 -9.78383e-07 -1.47768e-21 0)
(2.27386e-06 -4.44541e-09 -9.58157e-24 -9.77891e-07 -1.04951e-23 0)
(2.27516e-06 1.1619e-09 1.60496e-20 -9.72721e-07 1.06446e-21 3.62905e-35)
(1.74351e-06 -5.66453e-07 4.91686e-22 -8.1176e-07 6.72697e-22 0)
(1.79604e-06 -5.13034e-07 6.70259e-22 -8.32707e-07 2.39201e-22 0)
(1.85049e-06 -4.65104e-07 -1.55843e-21 -8.50279e-07 -1.96335e-21 0)
(1.8982e-06 -4.20609e-07 -1.39323e-22 -8.66958e-07 3.58638e-22 0)
(1.94394e-06 -3.78216e-07 2.84215e-21 -8.81184e-07 2.36733e-21 0)
(1.98539e-06 -3.39734e-07 -2.25789e-21 -8.94812e-07 -2.15673e-21 0)
(2.02424e-06 -3.03727e-07 -6.0117e-22 -9.07088e-07 -6.96613e-22 0)
(2.05968e-06 -2.70831e-07 1.14897e-21 -9.1868e-07 1.30757e-21 0)
(2.09244e-06 -2.40288e-07 4.57365e-24 -9.29418e-07 -8.49286e-22 0)
(2.12229e-06 -2.12087e-07 -1.21576e-21 -9.39514e-07 -1.36789e-21 0)
(2.14957e-06 -1.85764e-07 1.16497e-21 -9.48955e-07 1.30606e-21 0)
(2.17427e-06 -1.61092e-07 1.80016e-21 -9.57801e-07 2.01931e-21 0)
(2.19658e-06 -1.37732e-07 1.37738e-23 -9.66034e-07 1.51905e-23 0)
(2.21653e-06 -1.15449e-07 -6.16381e-22 -9.73606e-07 -6.95428e-22 0)
(2.23415e-06 -9.40327e-08 6.1018e-22 -9.80373e-07 6.92602e-22 0)
(2.24945e-06 -7.34058e-08 8.99472e-29 -9.86058e-07 1.00239e-28 0)
(2.26211e-06 -5.36175e-08 -6.28665e-22 -9.90112e-07 -7.22597e-22 0)
(2.27197e-06 -3.498e-08 8.54129e-23 -9.91645e-07 5.22219e-22 0)
(2.27742e-06 -1.80668e-08 -2.06583e-21 -9.88798e-07 -2.64734e-22 0)
(2.27833e-06 -3.64212e-09 1.66021e-20 -9.79487e-07 2.37645e-22 2.7407e-38)
(1.97118e-06 -6.90503e-07 0 -9.52782e-07 0 0)
(1.99157e-06 -6.29302e-07 7.16686e-22 -9.60569e-07 2.61093e-22 0)
(2.0202e-06 -5.72848e-07 5.61286e-22 -9.64023e-07 6.41802e-22 0)
(2.04286e-06 -5.21361e-07 6.16007e-22 -9.68415e-07 7.13598e-22 0)
(2.06728e-06 -4.7124e-07 0 -9.70526e-07 0 0)
(2.08919e-06 -4.25746e-07 8.30016e-23 -9.73393e-07 -3.60409e-22 0)
(2.11125e-06 -3.82647e-07 -1.84296e-21 -9.75813e-07 -1.13206e-21 0)
(2.13179e-06 -3.43084e-07 -1.17648e-21 -9.78685e-07 -1.27926e-21 0)
(2.15178e-06 -3.061e-07 -6.61152e-22 -9.81738e-07 -3.0516e-22 0)
(2.17059e-06 -2.71823e-07 -3.33166e-24 -9.85169e-07 8.18551e-22 0)
(2.18855e-06 -2.3975e-07 -5.81311e-22 -9.88916e-07 1.8022e-22 0)
(2.20545e-06 -2.09675e-07 1.21655e-21 -9.92981e-07 5.21703e-22 0)
(2.22137e-06 -1.81238e-07 1.15466e-21 -9.97282e-07 5.66186e-23 0)
(2.23623e-06 -1.54177e-07 2.83436e-23 -1.00169e-06 4.37678e-22 0)
(2.24994e-06 -1.28227e-07 5.00716e-23 -1.00595e-06 4.6399e-22 0)
(2.26237e-06 -1.0319e-07 -6.21567e-22 -1.00966e-06 -6.99888e-22 0)
(2.27296e-06 -7.89357e-08 -1.32751e-28 -1.01208e-06 -1.49564e-28 0)
(2.28143e-06 -5.5305e-08 1.32569e-21 -1.01217e-06 1.94611e-21 0)
(2.28574e-06 -3.24998e-08 -6.76067e-23 -1.00784e-06 -5.12043e-22 0)
(2.28594e-06 -8.86734e-09 1.42062e-20 -9.96947e-07 -2.29729e-21 -5.48087e-35)
(2.21817e-06 -7.54751e-07 5.52919e-23 -1.11036e-06 8.96524e-22 0)
(2.20521e-06 -6.93301e-07 -7.78851e-22 -1.10467e-06 -3.40345e-22 0)
(2.20789e-06 -6.33344e-07 -1.95907e-21 -1.09283e-06 -1.59718e-21 0)
(2.20484e-06 -5.80563e-07 1.28967e-21 -1.08442e-06 8.78186e-22 0)
(2.20758e-06 -5.27528e-07 3.3561e-21 -1.07367e-06 2.20518e-21 0)
(2.20919e-06 -4.79598e-07 -6.16621e-22 -1.06494e-06 -6.44968e-22 0)
(2.21374e-06 -4.33497e-07 0 -1.05663e-06 0 0)
(2.21848e-06 -3.90949e-07 6.00491e-22 -1.04981e-06 6.25358e-22 0)
(2.22475e-06 -3.50846e-07 -1.93202e-21 -1.04422e-06 -8.25346e-22 0)
(2.23151e-06 -3.13478e-07 -1.2535e-21 -1.04001e-06 -9.24265e-22 0)
(2.23909e-06 -2.78369e-07 6.98275e-23 -1.03714e-06 -7.14129e-22 0)
(2.24709e-06 -2.45361e-07 -6.31949e-22 -1.03553e-06 -1.06929e-21 0)
(2.2555e-06 -2.14113e-07 -6.37638e-23 -1.03508e-06 1.12359e-21 0)
(2.26411e-06 -1.84337e-07 1.23512e-21 -1.0356e-06 1.74235e-21 0)
(2.27271e-06 -1.55713e-07 6.01136e-22 -1.03675e-06 2.56193e-22 0)
(2.28107e-06 -1.27885e-07 -2.28318e-23 -1.03808e-06 -4.34679e-22 0)
(2.28851e-06 -1.00531e-07 1.16524e-21 -1.03879e-06 4.79096e-22 0)
(2.29469e-06 -7.29695e-08 5.73106e-22 -1.03783e-06 2.29929e-22 0)
(2.29751e-06 -4.51738e-08 2.35255e-21 -1.03323e-06 1.85893e-21 0)
(2.29718e-06 -1.34721e-08 1.93616e-20 -1.02305e-06 2.39318e-21 5.6776e-35)
(2.47372e-06 -7.62487e-07 4.59464e-22 -1.26674e-06 6.31494e-22 0)
(2.42711e-06 -7.08736e-07 1.10654e-23 -1.24959e-06 2.42535e-23 0)
(2.40464e-06 -6.50095e-07 -1.41633e-21 -1.22335e-06 -9.8193e-22 0)
(2.37592e-06 -6.01229e-07 -3.40133e-21 -1.20314e-06 -2.54654e-21 0)
(2.35738e-06 -5.49604e-07 1.32875e-21 -1.1805e-06 9.05558e-22 0)
(2.33872e-06 -5.03132e-07 1.2508e-21 -1.16075e-06 1.24257e-21 0)
(2.3257e-06 -4.57607e-07 -6.12823e-22 -1.14225e-06 -6.09722e-22 0)
(2.31442e-06 -4.1524e-07 -9.82502e-23 -1.12599e-06 2.73591e-22 0)
(2.30658e-06 -3.74938e-07 2.68816e-21 -1.11183e-06 1.60148e-21 0)
(2.30078e-06 -3.37085e-07 -1.79706e-21 -1.09988e-06 -1.83476e-21 0)
(2.29733e-06 -3.0131e-07 -6.39225e-22 -1.09011e-06 -6.60806e-22 0)
(2.29569e-06 -2.67498e-07 1.73791e-21 -1.08245e-06 2.57658e-21 0)
(2.29576e-06 -2.35358e-07 -2.53804e-21 -1.0768e-06 -7.55033e-22 0)
(2.29723e-06 -2.04597e-07 -1.80928e-21 -1.07296e-06 -1.9343e-21 0)
(2.29984e-06 -1.74864e-07 4.33442e-24 -1.07063e-06 -3.90943e-22 0)
(2.30327e-06 -1.45666e-07 -2.43774e-21 -1.06935e-06 -1.86594e-21 0)
(2.30686e-06 -1.16535e-07 -1.77464e-23 -1.06844e-06 -1.66939e-23 0)
(2.31024e-06 -8.63391e-08 2.39606e-21 -1.06698e-06 2.29167e-21 0)
(2.31168e-06 -5.49248e-08 3.78531e-23 -1.0634e-06 4.73319e-22 0)
(2.31125e-06 -1.70683e-08 2.02664e-20 -1.05606e-06 9.03054e-22 -4.33508e-37)
(2.72537e-06 -7.1368e-07 -4.81475e-22 -1.4138e-06 -6.17907e-22 0)
(2.64659e-06 -6.76217e-07 6.65185e-22 -1.38836e-06 6.07508e-22 0)
(2.60143e-06 -6.23927e-07 8.21003e-22 -1.35018e-06 4.28851e-22 0)
(2.54826e-06 -5.83927e-07 -6.48983e-22 -1.31961e-06 -6.08862e-22 0)
(2.5097e-06 -5.38344e-07 -1.53719e-21 -1.28675e-06 -7.67689e-22 0)
(2.47161e-06 -4.97051e-07 7.50427e-22 -1.25669e-06 3.7311e-22 0)
(2.44144e-06 -4.55603e-07 2.12398e-21 -1.22854e-06 1.36678e-21 0)
(2.41446e-06 -4.16292e-07 -3.41722e-21 -1.20305e-06 -2.29473e-21 0)
(2.39253e-06 -3.78386e-07 -2.1078e-21 -1.18042e-06 -1.3886e-21 0)
(2.37412e-06 -3.42307e-07 3.30825e-21 -1.16071e-06 2.2406e-21 0)
(2.35942e-06 -3.07911e-07 -1.34915e-21 -1.14398e-06 -6.45011e-22 0)
(2.34783e-06 -2.75144e-07 1.78781e-21 -1.13017e-06 1.83224e-21 0)
(2.33915e-06 -2.43817e-07 1.92486e-21 -1.1192e-06 1.25422e-21 0)
(2.33303e-06 -2.13648e-07 -1.12365e-21 -1.11089e-06 -1.56532e-21 0)
(2.32916e-06 -1.84285e-07 -7.32996e-22 -1.10501e-06 3.81196e-22 0)
(2.32718e-06 -1.55139e-07 3.47416e-23 -1.10119e-06 3.20631e-23 0)
(2.32658e-06 -1.25639e-07 -2.97045e-21 -1.09891e-06 -2.4728e-21 0)
(2.32693e-06 -9.43263e-08 5.89877e-22 -1.09751e-06 6.63063e-22 0)
(2.32715e-06 -6.09897e-08 1.16927e-21 -1.09597e-06 9.15171e-22 0)
(2.32695e-06 -1.93924e-08 2.09395e-20 -1.09303e-06 7.54095e-22 -1.87739e-37)
(2.95992e-06 -6.11929e-07 5.77441e-24 -1.53863e-06 1.96958e-23 0)
(2.85277e-06 -5.99138e-07 -6.87684e-22 -1.509e-06 -6.05166e-22 0)
(2.78873e-06 -5.58641e-07 1.47452e-22 -1.46392e-06 -1.60628e-22 0)
(2.71382e-06 -5.30829e-07 0 -1.42483e-06 0 0)
(2.65727e-06 -4.95415e-07 0 -1.38495e-06 0 0)
(2.60201e-06 -4.62203e-07 -2.05922e-21 -1.34692e-06 -1.61274e-21 0)
(2.55603e-06 -4.28041e-07 1.8322e-21 -1.31125e-06 1.70923e-21 0)
(2.51456e-06 -3.94582e-07 3.86268e-21 -1.27812e-06 3.36981e-21 0)
(2.47921e-06 -3.61699e-07 -2.92186e-21 -1.24806e-06 -2.80737e-21 0)
(2.44859e-06 -3.29718e-07 -2.55938e-21 -1.22121e-06 -2.18008e-21 0)
(2.42278e-06 -2.98751e-07 1.18033e-21 -1.19777e-06 1.17434e-21 0)
(2.40119e-06 -2.68829e-07 -1.15348e-22 -1.17782e-06 2.3297e-22 0)
(2.3836e-06 -2.39896e-07 2.01952e-21 -1.16137e-06 9.97788e-22 0)
(2.36964e-06 -2.11742e-07 3.14587e-21 -1.14839e-06 2.17633e-21 0)
(2.359e-06 -1.84062e-07 4.29418e-23 -1.13875e-06 3.92526e-23 0)
(2.35135e-06 -1.56248e-07 1.43105e-21 -1.13227e-06 -3.92811e-22 0)
(2.34637e-06 -1.27696e-07 0 -1.12869e-06 0 0)
(2.34359e-06 -9.6766e-08 -1.20494e-21 -1.12766e-06 -5.31967e-22 0)
(2.34279e-06 -6.3244e-08 5.79705e-22 -1.12878e-06 2.45225e-22 0)
(2.34312e-06 -2.03796e-08 2.33325e-20 -1.13131e-06 1.25257e-21 -5.25867e-37)
(3.16735e-06 -4.67041e-07 -4.52534e-24 -1.63218e-06 -1.72311e-23 0)
(3.03587e-06 -4.83481e-07 8.53429e-22 -1.6013e-06 5.10015e-22 0)
(2.95867e-06 -4.63192e-07 -8.48871e-22 -1.55976e-06 -5.16976e-22 0)
(2.86699e-06 -4.49974e-07 -8.35497e-22 -1.51545e-06 -5.03504e-22 0)
(2.79423e-06 -4.28979e-07 2.29398e-21 -1.47109e-06 1.56501e-21 0)
(2.72435e-06 -4.05837e-07 1.63419e-21 -1.42654e-06 9.75559e-22 0)
(2.66393e-06 -3.80615e-07 -2.17062e-21 -1.38427e-06 -1.45294e-21 0)
(2.60952e-06 -3.54265e-07 2.88329e-22 -1.34452e-06 -3.06078e-22 0)
(2.56194e-06 -3.27519e-07 4.92837e-22 -1.30802e-06 4.57244e-22 0)
(2.52016e-06 -3.00781e-07 -2.67414e-22 -1.27505e-06 3.608e-22 0)
(2.48403e-06 -2.74395e-07 -2.20376e-21 -1.24586e-06 -1.20822e-21 0)
(2.45306e-06 -2.4851e-07 1.97248e-23 -1.2206e-06 1.90353e-23 0)
(2.42695e-06 -2.23171e-07 -1.00837e-21 -1.1994e-06 -1.37295e-21 0)
(2.40537e-06 -1.98245e-07 -3.40595e-23 -1.1823e-06 -3.11669e-23 0)
(2.3881e-06 -1.73482e-07 1.28719e-21 -1.16936e-06 6.26615e-22 0)
(2.37479e-06 -1.48299e-07 -2.56789e-23 -1.16057e-06 -2.245e-23 0)
(2.36543e-06 -1.22104e-07 1.56995e-21 -1.156e-06 2.10642e-21 0)
(2.35953e-06 -9.32225e-08 -5.92586e-22 -1.15563e-06 -2.6508e-22 0)
(2.3578e-06 -6.14344e-08 -2.77709e-21 -1.15979e-06 -2.74991e-21 0)
(2.35873e-06 -1.99521e-08 2.11939e-20 -1.16826e-06 -9.65874e-22 -4.16789e-35)
(3.33244e-06 -2.81208e-07 -1.08789e-22 -1.69298e-06 -5.48246e-23 0)
(3.19626e-06 -3.17078e-07 -9.14879e-22 -1.65511e-06 -5.39239e-22 0)
(3.10805e-06 -3.25588e-07 7.42931e-22 -1.62647e-06 5.83513e-22 0)
(3.00992e-06 -3.29065e-07 -1.94467e-21 -1.58613e-06 -1.77173e-21 0)
(2.92403e-06 -3.27469e-07 -2.00072e-21 -1.54417e-06 -1.66391e-21 0)
(2.84284e-06 -3.20022e-07 1.18389e-21 -1.49924e-06 1.22331e-21 0)
(2.76944e-06 -3.08505e-07 1.02916e-21 -1.45399e-06 1.22786e-21 0)
(2.70283e-06 -2.9359e-07 1.79353e-21 -1.40982e-06 1.6172e-21 0)
(2.64334e-06 -2.76319e-07 -2.10424e-21 -1.36787e-06 -1.5714e-21 0)
(2.59051e-06 -2.57473e-07 5.18815e-24 -1.32902e-06 4.31715e-23 0)
(2.54411e-06 -2.37679e-07 -2.55534e-23 -1.29386e-06 -1.287e-22 0)
(2.50374e-06 -2.17385e-07 -1.64574e-21 -1.26284e-06 -1.60943e-21 0)
(2.46911e-06 -1.96859e-07 0 -1.23629e-06 0 0)
(2.43987e-06 -1.76167e-07 -1.49085e-21 -1.21446e-06 -4.84001e-22 0)
(2.41588e-06 -1.55205e-07 -6.97746e-24 -1.19761e-06 -2.97257e-23 0)
(2.39682e-06 -1.33523e-07 -1.92482e-21 -1.18598e-06 -9.36959e-22 0)
(2.38295e-06 -1.1062e-07 5.27323e-22 -1.17996e-06 5.56609e-22 0)
(2.37377e-06 -8.49449e-08 1.2139e-21 -1.17994e-06 5.5537e-22 0)
(2.37104e-06 -5.63045e-08 1.50887e-23 -1.18698e-06 -1.24177e-24 0)
(2.37264e-06 -1.83187e-08 2.28502e-20 -1.20149e-06 -8.27121e-23 -1.83873e-37)
(3.41308e-06 -1.28215e-07 9.41347e-22 -1.69806e-06 8.28658e-22 0)
(3.28903e-06 -1.47388e-07 -8.70583e-22 -1.66626e-06 -5.47265e-22 0)
(3.19368e-06 -1.82743e-07 -5.04527e-22 -1.64622e-06 -4.18947e-22 0)
(3.09631e-06 -1.99533e-07 8.36608e-22 -1.6135e-06 5.11357e-22 0)
(3.00613e-06 -2.11361e-07 -1.6535e-21 -1.57515e-06 -7.509e-22 0)
(2.92056e-06 -2.16684e-07 -1.11518e-21 -1.5331e-06 -5.26468e-22 0)
(2.84165e-06 -2.16898e-07 -1.39056e-21 -1.48907e-06 -1.00923e-21 0)
(2.76887e-06 -2.12903e-07 1.67432e-22 -1.44495e-06 -1.16852e-22 0)
(2.70285e-06 -2.055e-07 2.81085e-21 -1.40206e-06 1.79176e-21 0)
(2.6433e-06 -1.95536e-07 -9.66985e-23 -1.36153e-06 -1.0402e-22 0)
(2.59024e-06 -1.83666e-07 1.50234e-21 -1.32419e-06 8.50825e-22 0)
(2.54342e-06 -1.70442e-07 -7.41414e-23 -1.2907e-06 -8.40328e-23 0)
(2.50267e-06 -1.56244e-07 5.49091e-36 -1.26161e-06 5.57867e-36 0)
(2.46775e-06 -1.41268e-07 -6.60464e-22 -1.23738e-06 -3.29023e-22 0)
(2.43865e-06 -1.25546e-07 6.45634e-22 -1.21848e-06 3.14336e-22 0)
(2.41512e-06 -1.08803e-07 -2.89993e-23 -1.20539e-06 -4.19041e-23 0)
(2.39773e-06 -9.06865e-08 1.02572e-22 -1.19884e-06 -2.72695e-22 0)
(2.38594e-06 -6.99918e-08 5.85469e-24 -1.19953e-06 1.94525e-23 0)
(2.38231e-06 -4.65866e-08 -5.96499e-24 -1.20917e-06 7.75457e-24 0)
(2.38425e-06 -1.50506e-08 2.48272e-20 -1.22876e-06 1.27048e-22 2.21254e-37)
(3.34538e-06 2.19098e-08 8.74031e-22 -1.63607e-06 6.91385e-22 0)
(3.26269e-06 -1.11074e-10 0 -1.64526e-06 0 0)
(3.17642e-06 -4.32281e-08 -6.81909e-22 -1.62988e-06 -6.011e-22 0)
(3.09012e-06 -7.15288e-08 8.91343e-36 -1.6051e-06 7.21814e-36 0)
(3.00783e-06 -9.38147e-08 2.04277e-36 -1.57229e-06 1.48191e-36 0)
(2.92838e-06 -1.09602e-07 9.68836e-36 -1.53485e-06 7.20541e-36 0)
(2.8538e-06 -1.19814e-07 1.4862e-35 -1.49452e-06 1.20115e-35 0)
(2.78382e-06 -1.25364e-07 -5.97625e-22 -1.45321e-06 -5.60294e-22 0)
(2.7193e-06 -1.26978e-07 0 -1.41233e-06 0 0)
(2.66019e-06 -1.25454e-07 5.71085e-22 -1.37313e-06 5.53625e-22 0)
(2.60677e-06 -1.21426e-07 -8.17825e-37 -1.33655e-06 -1.37454e-36 0)
(2.55898e-06 -1.15458e-07 -5.49357e-22 -1.30339e-06 -5.51431e-22 0)
(2.51686e-06 -1.07959e-07 5.40315e-22 -1.27434e-06 5.51744e-22 0)
(2.48034e-06 -9.92058e-08 7.7596e-36 -1.25001e-06 5.65294e-36 0)
(2.44958e-06 -8.93026e-08 -5.25872e-22 -1.23102e-06 -5.54884e-22 0)
(2.42449e-06 -7.81644e-08 -4.66193e-36 -1.21804e-06 -4.31178e-36 0)
(2.40586e-06 -6.55438e-08 5.16485e-22 -1.21202e-06 5.6147e-22 0)
(2.39324e-06 -5.06894e-08 5.13777e-22 -1.21389e-06 5.66381e-22 0)
(2.38981e-06 -3.36249e-08 -5.54596e-36 -1.22584e-06 -4.83861e-36 0)
(2.39261e-06 -1.05673e-08 2.55194e-20 -1.24904e-06 -4.9135e-36 -1.50541e-49)