/*--------------------------------*- C++ -*----------------------------------*\
  =========                 |
  \\      /  F ield         | OpenFOAM: The Open Source CFD Toolbox
   \\    /   O peration     | Website:  https://openfoam.org
    \\  /    A nd           | Version:  9
     \\/     M anipulation  |
\*---------------------------------------------------------------------------*/
FoamFile
{
    format      ascii;
    class       volScalarField;
    location    "5";
    object      epsilonEq;
}
// * * * * * * * * * * * * * * * * * * * * * * * * * * * * * * * * * * * * * //

dimensions      [0 0 0 0 0 0 0];

internalField   nonuniform List<scalar> 
1000
(
3.40652e-06
3.23461e-06
3.18541e-06
3.2098e-06
3.21313e-06
3.20641e-06
3.18414e-06
3.15021e-06
3.11231e-06
3.06501e-06
3.97151e-06
3.60625e-06
3.42939e-06
3.37474e-06
3.32585e-06
3.28409e-06
3.23556e-06
3.1841e-06
3.12583e-06
3.07439e-06
4.52382e-06
3.96422e-06
3.65022e-06
3.50557e-06
3.39587e-06
3.31254e-06
3.23327e-06
3.15975e-06
3.08245e-06
3.02064e-06
5.05243e-06
4.30408e-06
3.8486e-06
3.60538e-06
3.42737e-06
3.29716e-06
3.18402e-06
3.08697e-06
2.99125e-06
2.91847e-06
5.54084e-06
4.61772e-06
4.02063e-06
3.67331e-06
3.42095e-06
3.23936e-06
3.08989e-06
2.96791e-06
2.8549e-06
2.77051e-06
5.99148e-06
4.90273e-06
4.16387e-06
3.7091e-06
3.37825e-06
3.14266e-06
2.95583e-06
2.80875e-06
2.67952e-06
2.58318e-06
6.37899e-06
5.14029e-06
4.25799e-06
3.69749e-06
3.29094e-06
3.00479e-06
2.78433e-06
2.6152e-06
2.47304e-06
2.36583e-06
6.74321e-06
5.3202e-06
4.28515e-06
3.6296e-06
3.15877e-06
2.83345e-06
2.58923e-06
2.40572e-06
2.25684e-06
2.14223e-06
6.99537e-06
5.33777e-06
4.15046e-06
3.4383e-06
2.95102e-06
2.62078e-06
2.37793e-06
2.19593e-06
2.05066e-06
1.93442e-06
7.21132e-06
5.0317e-06
3.83203e-06
3.1639e-06
2.74146e-06
2.44879e-06
2.23315e-06
2.06512e-06
1.92911e-06
1.81351e-06
1.13849e-08
2.51429e-08
1.22598e-07
2.55499e-07
4.0114e-07
5.51441e-07
6.97426e-07
8.36544e-07
9.64297e-07
1.08268e-06
3.04895e-08
1.69169e-07
3.63513e-07
5.54645e-07
7.24188e-07
8.74814e-07
1.00625e-06
1.12383e-06
1.22476e-06
1.31958e-06
1.38357e-07
4.05039e-07
6.50049e-07
8.71821e-07
1.05674e-06
1.21044e-06
1.33536e-06
1.44018e-06
1.52227e-06
1.59995e-06
3.21485e-07
6.93514e-07
9.69669e-07
1.20357e-06
1.3898e-06
1.53918e-06
1.65526e-06
1.74823e-06
1.81485e-06
1.87894e-06
5.81881e-07
1.01864e-06
1.31285e-06
1.5486e-06
1.72617e-06
1.86369e-06
1.96607e-06
2.04443e-06
2.09518e-06
2.14545e-06
9.1838e-07
1.36475e-06
1.65927e-06
1.88829e-06
2.05092e-06
2.17187e-06
2.25733e-06
2.31896e-06
2.35349e-06
2.3892e-06
1.32406e-06
1.72601e-06
1.9995e-06
2.21249e-06
2.35516e-06
2.45635e-06
2.52278e-06
2.56629e-06
2.58448e-06
2.60478e-06
1.78915e-06
2.09744e-06
2.32535e-06
2.51094e-06
2.62849e-06
2.70731e-06
2.75374e-06
2.77851e-06
2.78176e-06
2.78577e-06
2.30067e-06
2.47552e-06
2.63308e-06
2.77854e-06
2.86503e-06
2.9188e-06
2.94389e-06
2.94992e-06
2.93897e-06
2.92891e-06
2.84489e-06
2.85614e-06
2.92002e-06
3.01144e-06
3.05978e-06
3.08463e-06
3.08681e-06
3.07229e-06
3.05184e-06
3.01947e-06
1.1893e-06
1.28099e-06
1.36602e-06
1.44291e-06
1.51244e-06
1.575e-06
1.63116e-06
1.68136e-06
1.72609e-06
1.76569e-06
1.80053e-06
1.83083e-06
1.85681e-06
1.8786e-06
1.89623e-06
1.90981e-06
1.91929e-06
1.92497e-06
1.92676e-06
1.92564e-06
1.39296e-06
1.44645e-06
1.50044e-06
1.55061e-06
1.59768e-06
1.64142e-06
1.68185e-06
1.71895e-06
1.75284e-06
1.78355e-06
1.81122e-06
1.8359e-06
1.85768e-06
1.87663e-06
1.89274e-06
1.90603e-06
1.9163e-06
1.92344e-06
1.92647e-06
1.92477e-06
1.6434e-06
1.66057e-06
1.68255e-06
1.70374e-06
1.7253e-06
1.74678e-06
1.76802e-06
1.78867e-06
1.80863e-06
1.82765e-06
1.84566e-06
1.86252e-06
1.87818e-06
1.89255e-06
1.90547e-06
1.91678e-06
1.92594e-06
1.9324e-06
1.93417e-06
1.93009e-06
1.89758e-06
1.88445e-06
1.87883e-06
1.87438e-06
1.87239e-06
1.87256e-06
1.87487e-06
1.87875e-06
1.88415e-06
1.89057e-06
1.89789e-06
1.90576e-06
1.91403e-06
1.92243e-06
1.93067e-06
1.93837e-06
1.94477e-06
1.94911e-06
1.94903e-06
1.94349e-06
2.14218e-06
2.1041e-06
2.07475e-06
2.04824e-06
2.02553e-06
2.00636e-06
1.99109e-06
1.97892e-06
1.97003e-06
1.96377e-06
1.96003e-06
1.95837e-06
1.95855e-06
1.96019e-06
1.96288e-06
1.96615e-06
1.96909e-06
1.97092e-06
1.96933e-06
1.96348e-06
2.36659e-06
2.30864e-06
2.25964e-06
2.21465e-06
2.17459e-06
2.13865e-06
2.10801e-06
2.08142e-06
2.05942e-06
2.04122e-06
2.0268e-06
2.01566e-06
2.00757e-06
2.0021e-06
1.99883e-06
1.99725e-06
1.99651e-06
1.99588e-06
1.99354e-06
1.98873e-06
2.56538e-06
2.4925e-06
2.4286e-06
2.36837e-06
2.31451e-06
2.26425e-06
2.22032e-06
2.18088e-06
2.14697e-06
2.11774e-06
2.09328e-06
2.07312e-06
2.05703e-06
2.04459e-06
2.03542e-06
2.02904e-06
2.02481e-06
2.02206e-06
2.01973e-06
2.01703e-06
2.73301e-06
2.6497e-06
2.57672e-06
2.50395e-06
2.44001e-06
2.37863e-06
2.32416e-06
2.27427e-06
2.23018e-06
2.19123e-06
2.15759e-06
2.12895e-06
2.10515e-06
2.0859e-06
2.07092e-06
2.05983e-06
2.05227e-06
2.04775e-06
2.04606e-06
2.04636e-06
2.86901e-06
2.77635e-06
2.7035e-06
2.62199e-06
2.55033e-06
2.47993e-06
2.41614e-06
2.35725e-06
2.30433e-06
2.25701e-06
2.21542e-06
2.17938e-06
2.14879e-06
2.12346e-06
2.10325e-06
2.08792e-06
2.07748e-06
2.07157e-06
2.07098e-06
2.07474e-06
2.97024e-06
2.8711e-06
2.80306e-06
2.72228e-06
2.64754e-06
2.57327e-06
2.50299e-06
2.43693e-06
2.3761e-06
2.3208e-06
2.27134e-06
2.22781e-06
2.19025e-06
2.15861e-06
2.13295e-06
2.11317e-06
2.09966e-06
2.09227e-06
2.0928e-06
2.10023e-06
3.00942e-06
2.91659e-06
2.84935e-06
2.77336e-06
2.69873e-06
2.62454e-06
2.55298e-06
2.48475e-06
2.42096e-06
2.36215e-06
2.30882e-06
2.26125e-06
2.21968e-06
2.18422e-06
2.15514e-06
2.13255e-06
2.11718e-06
2.10906e-06
2.11078e-06
2.12131e-06
2.93204e-06
2.88444e-06
2.82284e-06
2.75685e-06
2.68946e-06
2.62143e-06
2.55481e-06
2.49035e-06
2.42928e-06
2.37226e-06
2.31996e-06
2.27279e-06
2.23118e-06
2.19541e-06
2.16593e-06
2.14302e-06
2.1277e-06
2.12016e-06
2.1236e-06
2.13682e-06
2.86978e-06
2.83369e-06
2.78654e-06
2.73004e-06
2.6714e-06
2.60994e-06
2.54873e-06
2.48839e-06
2.43047e-06
2.37569e-06
2.3249e-06
2.27865e-06
2.23752e-06
2.20193e-06
2.17249e-06
2.14965e-06
2.13464e-06
2.1277e-06
2.13238e-06
2.14743e-06
2.79564e-06
2.77401e-06
2.73871e-06
2.69145e-06
2.64114e-06
2.58637e-06
2.53092e-06
2.47529e-06
2.42125e-06
2.36956e-06
2.32121e-06
2.27683e-06
2.23711e-06
2.20258e-06
2.17392e-06
2.15179e-06
2.13733e-06
2.13119e-06
2.13714e-06
2.15318e-06
2.71127e-06
2.70104e-06
2.67688e-06
2.63931e-06
2.59789e-06
2.55063e-06
2.50177e-06
2.45171e-06
2.40241e-06
2.35467e-06
2.30961e-06
2.26794e-06
2.2304e-06
2.19764e-06
2.17033e-06
2.1494e-06
2.13545e-06
2.13093e-06
2.13394e-06
2.1537e-06
2.62151e-06
2.62144e-06
2.60729e-06
2.57881e-06
2.54576e-06
2.50594e-06
2.46376e-06
2.41957e-06
2.37544e-06
2.33222e-06
2.29108e-06
2.25276e-06
2.2181e-06
2.18774e-06
2.16249e-06
2.14301e-06
2.13067e-06
2.12614e-06
2.13233e-06
2.14781e-06
2.52794e-06
2.53623e-06
2.53082e-06
2.51084e-06
2.48574e-06
2.4533e-06
2.41788e-06
2.37984e-06
2.34126e-06
2.30301e-06
2.26629e-06
2.23188e-06
2.20063e-06
2.17319e-06
2.15038e-06
2.13278e-06
2.12173e-06
2.11748e-06
2.12321e-06
2.13775e-06
2.43245e-06
2.44768e-06
2.44988e-06
2.43758e-06
2.41978e-06
2.3944e-06
2.36559e-06
2.33373e-06
2.30088e-06
2.26789e-06
2.23598e-06
2.2059e-06
2.17851e-06
2.15443e-06
2.13442e-06
2.119e-06
2.10932e-06
2.10566e-06
2.11069e-06
2.12326e-06
2.3359e-06
2.35662e-06
2.36528e-06
2.35983e-06
2.34874e-06
2.33005e-06
2.30769e-06
2.28202e-06
2.25503e-06
2.22754e-06
2.20072e-06
2.17533e-06
2.15217e-06
2.13182e-06
2.11496e-06
2.10201e-06
2.0939e-06
2.09077e-06
2.09484e-06
2.10506e-06
2.23869e-06
2.26372e-06
2.27784e-06
2.27845e-06
2.27349e-06
2.26114e-06
2.24501e-06
2.22549e-06
2.20441e-06
2.18259e-06
2.16111e-06
2.1407e-06
2.12208e-06
2.10579e-06
2.09239e-06
2.08219e-06
2.07586e-06
2.07342e-06
2.07642e-06
2.0839e-06
2.14068e-06
2.169e-06
2.18771e-06
2.19374e-06
2.19443e-06
2.18813e-06
2.1781e-06
2.1647e-06
2.14964e-06
2.13363e-06
2.11771e-06
2.10253e-06
2.08874e-06
2.07679e-06
2.06714e-06
2.05997e-06
2.05568e-06
2.05409e-06
2.05606e-06
2.06071e-06
2.04139e-06
2.07226e-06
2.0949e-06
2.10588e-06
2.11192e-06
2.11148e-06
2.1075e-06
2.10028e-06
2.09134e-06
2.08134e-06
2.07118e-06
2.06145e-06
2.05273e-06
2.04539e-06
2.03974e-06
2.03588e-06
2.03389e-06
2.03343e-06
2.03458e-06
2.03649e-06
1.93986e-06
1.97284e-06
1.99903e-06
2.01474e-06
2.02603e-06
2.03149e-06
2.03366e-06
2.03279e-06
2.03019e-06
2.02643e-06
2.02228e-06
2.01824e-06
2.01481e-06
2.01227e-06
2.01085e-06
2.01052e-06
2.01112e-06
2.01212e-06
2.01281e-06
2.01232e-06
1.83513e-06
1.87013e-06
1.89982e-06
1.92033e-06
1.93706e-06
1.94865e-06
1.95726e-06
1.96306e-06
1.96712e-06
1.96989e-06
1.97201e-06
1.97389e-06
1.97593e-06
1.97837e-06
1.98132e-06
1.98469e-06
1.98811e-06
1.9909e-06
1.99162e-06
1.98927e-06
1.72556e-06
1.76298e-06
1.79655e-06
1.82239e-06
1.84509e-06
1.86338e-06
1.879e-06
1.89199e-06
1.90318e-06
1.9129e-06
1.92163e-06
1.92969e-06
1.93737e-06
1.94487e-06
1.95224e-06
1.95937e-06
1.96575e-06
1.97061e-06
1.97193e-06
1.96847e-06
1.61053e-06
1.65128e-06
1.68957e-06
1.72163e-06
1.75118e-06
1.777e-06
1.80037e-06
1.82121e-06
1.8401e-06
1.85721e-06
1.87288e-06
1.88732e-06
1.90075e-06
1.9133e-06
1.92501e-06
1.93578e-06
1.94508e-06
1.95212e-06
1.95458e-06
1.9509e-06
1.48775e-06
1.53361e-06
1.57824e-06
1.61812e-06
1.65595e-06
1.69058e-06
1.72281e-06
1.75242e-06
1.77975e-06
1.80483e-06
1.82785e-06
1.84892e-06
1.86817e-06
1.88569e-06
1.90153e-06
1.9156e-06
1.9275e-06
1.93653e-06
1.9405e-06
1.93755e-06
1.35964e-06
1.41299e-06
1.46598e-06
1.51552e-06
1.56318e-06
1.60787e-06
1.64996e-06
1.68911e-06
1.72542e-06
1.75881e-06
1.78936e-06
1.81709e-06
1.84205e-06
1.86429e-06
1.88385e-06
1.90069e-06
1.91458e-06
1.92504e-06
1.93041e-06
1.92885e-06
1.22363e-06
1.28846e-06
1.35316e-06
1.41511e-06
1.47484e-06
1.53134e-06
1.58461e-06
1.63425e-06
1.68022e-06
1.72238e-06
1.76072e-06
1.79521e-06
1.82585e-06
1.85262e-06
1.87549e-06
1.89441e-06
1.90924e-06
1.91984e-06
1.92548e-06
1.92536e-06
1.0955e-06
1.17512e-06
1.25378e-06
1.32944e-06
1.40204e-06
1.47057e-06
1.53493e-06
1.59467e-06
1.64975e-06
1.70002e-06
1.74549e-06
1.7861e-06
1.82183e-06
1.85258e-06
1.87823e-06
1.89862e-06
1.91348e-06
1.92291e-06
1.92665e-06
1.92606e-06
1.71585e-06
1.83199e-06
2.02965e-06
2.2471e-06
2.46341e-06
2.65383e-06
2.80808e-06
2.91883e-06
2.98763e-06
3.00208e-06
1.62529e-06
1.73362e-06
1.91607e-06
2.12161e-06
2.33319e-06
2.52737e-06
2.69369e-06
2.82147e-06
2.91029e-06
2.94531e-06
1.54418e-06
1.64751e-06
1.8173e-06
2.00984e-06
2.21141e-06
2.40044e-06
2.56814e-06
2.7056e-06
2.81298e-06
2.87929e-06
1.46997e-06
1.56996e-06
1.72928e-06
1.9103e-06
2.10254e-06
2.28604e-06
2.45218e-06
2.5925e-06
2.70495e-06
2.79026e-06
1.40033e-06
1.49804e-06
1.64848e-06
1.81864e-06
2.00095e-06
2.17756e-06
2.34061e-06
2.4834e-06
2.59937e-06
2.69554e-06
1.33494e-06
1.43123e-06
1.57434e-06
1.73489e-06
1.90762e-06
2.07645e-06
2.23386e-06
2.3754e-06
2.49138e-06
2.59459e-06
1.27259e-06
1.36791e-06
1.50484e-06
1.65682e-06
1.82055e-06
1.98176e-06
2.13318e-06
2.27231e-06
2.38657e-06
2.49203e-06
1.21308e-06
1.30763e-06
1.43922e-06
1.5835e-06
1.73867e-06
1.89206e-06
2.03676e-06
2.17199e-06
2.28369e-06
2.38921e-06
1.15599e-06
1.24977e-06
1.37658e-06
1.51384e-06
1.66103e-06
1.80681e-06
1.94472e-06
2.07515e-06
2.18353e-06
2.28719e-06
1.10133e-06
1.19407e-06
1.31633e-06
1.44694e-06
1.58643e-06
1.7246e-06
1.85559e-06
1.98058e-06
2.08529e-06
2.18612e-06
1.04923e-06
1.14043e-06
1.25804e-06
1.38205e-06
1.51397e-06
1.6445e-06
1.76852e-06
1.88758e-06
1.98828e-06
2.08559e-06
1.0001e-06
1.08897e-06
1.2014e-06
1.31848e-06
1.44258e-06
1.56523e-06
1.68212e-06
1.79491e-06
1.89137e-06
1.98484e-06
9.54782e-07
1.04008e-06
1.14616e-06
1.25537e-06
1.37103e-06
1.48533e-06
1.59481e-06
1.70104e-06
1.79308e-06
1.88257e-06
9.14507e-07
9.94339e-07
1.09221e-06
1.19206e-06
1.29816e-06
1.4034e-06
1.50506e-06
1.60446e-06
1.69197e-06
1.77751e-06
8.81664e-07
9.52719e-07
1.03883e-06
1.12666e-06
1.22144e-06
1.31665e-06
1.41006e-06
1.50254e-06
1.58564e-06
1.66753e-06
8.59075e-07
9.15678e-07
9.85282e-07
1.05802e-06
1.13941e-06
1.2235e-06
1.30824e-06
1.39381e-06
1.4728e-06
1.55156e-06
8.53018e-07
8.84147e-07
9.27517e-07
9.79801e-07
1.0453e-06
1.11757e-06
1.19392e-06
1.27338e-06
1.34943e-06
1.42638e-06
8.6468e-07
8.52201e-07
8.61084e-07
8.89986e-07
9.38335e-07
9.98781e-07
1.06761e-06
1.14232e-06
1.21705e-06
1.2939e-06
9.0977e-07
8.12018e-07
7.65716e-07
7.65961e-07
7.99122e-07
8.51438e-07
9.17021e-07
9.91286e-07
1.0689e-06
1.14954e-06
9.29336e-07
7.12411e-07
6.34878e-07
6.12659e-07
6.38283e-07
6.88212e-07
7.56218e-07
8.35455e-07
9.20771e-07
1.00956e-06
)
;

boundaryField
{
    left
    {
        type            calculated;
        value           nonuniform List<scalar> 
30
(
1.69606e-06
1.60656e-06
1.52644e-06
1.4531e-06
1.38442e-06
1.32007e-06
1.25897e-06
1.20095e-06
1.1457e-06
1.09331e-06
1.04398e-06
9.98252e-07
9.57026e-07
9.21679e-07
8.94715e-07
8.79832e-07
8.84521e-07
9.1786e-07
1.01111e-06
1.15644e-06
7.6772e-06
4.92591e-06
3.70853e-06
3.08269e-06
2.69291e-06
2.41627e-06
2.20889e-06
2.0442e-06
1.90974e-06
1.79368e-06
)
;
    }
    right
    {
        type            calculated;
        value           nonuniform List<scalar> 
30
(
1.92532e-06
1.92477e-06
1.92992e-06
1.94322e-06
1.96314e-06
1.98841e-06
2.01679e-06
2.04626e-06
2.07479e-06
2.10052e-06
2.12168e-06
2.13744e-06
2.14812e-06
2.15392e-06
2.15389e-06
2.14844e-06
2.13842e-06
2.12382e-06
2.10549e-06
2.08418e-06
2.06084e-06
2.03649e-06
2.0122e-06
1.98908e-06
1.96826e-06
1.9507e-06
1.93744e-06
1.92883e-06
1.92544e-06
1.92569e-06
)
;
    }
    down
    {
        type            calculated;
        value           nonuniform List<scalar> 
30
(
7.12506e-09
1.04167e-08
9.08438e-08
2.1834e-07
3.65238e-07
5.18831e-07
6.68899e-07
8.11992e-07
9.4327e-07
1.0649e-06
1.17441e-06
1.26984e-06
1.3575e-06
1.43634e-06
1.50746e-06
1.5712e-06
1.62834e-06
1.67927e-06
1.7246e-06
1.76467e-06
1.79987e-06
1.83046e-06
1.85665e-06
1.87856e-06
1.89627e-06
1.90987e-06
1.91931e-06
1.92494e-06
1.92674e-06
1.92611e-06
)
;
    }
    up
    {
        type            calculated;
        value           nonuniform List<scalar> 
30
(
9.16536e-07
7.04552e-07
6.30764e-07
6.07936e-07
6.32751e-07
6.81871e-07
7.49381e-07
8.28471e-07
9.13719e-07
1.00288e-06
1.08911e-06
1.16938e-06
1.24882e-06
1.32513e-06
1.3984e-06
1.46752e-06
1.53242e-06
1.59265e-06
1.64816e-06
1.69882e-06
1.74462e-06
1.78551e-06
1.82147e-06
1.85241e-06
1.87819e-06
1.89866e-06
1.91353e-06
1.92293e-06
1.92661e-06
1.92635e-06
)
;
    }
    hole
    {
        type            calculated;
        value           nonuniform List<scalar> 
20
(
3.42977e-06
4.02434e-06
4.60555e-06
5.1617e-06
5.67505e-06
6.14898e-06
6.55758e-06
6.95154e-06
7.25376e-06
7.60563e-06
4.8557e-09
5.02692e-09
6.60497e-08
2.28497e-07
4.82082e-07
8.24546e-07
1.24462e-06
1.73047e-06
2.26697e-06
2.83893e-06
)
;
    }
    frontAndBack
    {
        type            empty;
    }
}


// ************************************************************************* //
