/*--------------------------------*- C++ -*----------------------------------*\
  =========                 |
  \\      /  F ield         | OpenFOAM: The Open Source CFD Toolbox
   \\    /   O peration     | Website:  https://openfoam.org
    \\  /    A nd           | Version:  9
     \\/     M anipulation  |
\*---------------------------------------------------------------------------*/
FoamFile
{
    format      ascii;
    class       pointVectorField;
    location    "5";
    object      pointD;
}
// * * * * * * * * * * * * * * * * * * * * * * * * * * * * * * * * * * * * * //

dimensions      [0 1 0 0 0 0 0];

internalField   nonuniform List<vector> 
2142
(
(3.7045e-06 1.08644e-06 -3.5203e-20)
(3.43364e-06 1.25785e-06 0)
(3.24429e-06 1.38016e-06 0)
(3.1065e-06 1.47957e-06 0)
(3.00735e-06 1.56107e-06 0)
(2.93702e-06 1.63127e-06 0)
(2.8885e-06 1.69303e-06 0)
(2.85685e-06 1.74886e-06 0)
(2.83823e-06 1.80029e-06 0)
(2.82986e-06 1.84833e-06 0)
(2.8316e-06 1.90049e-06 0)
(3.38487e-06 9.96721e-07 -4.13987e-20)
(3.09814e-06 1.13182e-06 0)
(2.89936e-06 1.22705e-06 0)
(2.75557e-06 1.30516e-06 0)
(2.65237e-06 1.36905e-06 0)
(2.57905e-06 1.42434e-06 0)
(2.52802e-06 1.47302e-06 0)
(2.49401e-06 1.51722e-06 0)
(2.47288e-06 1.55795e-06 0)
(2.46175e-06 1.59642e-06 0)
(2.41265e-06 1.59841e-06 0)
(3.05227e-06 9.08497e-07 -4.60435e-20)
(2.75772e-06 1.00316e-06 0)
(2.5548e-06 1.06923e-06 0)
(2.40884e-06 1.12505e-06 0)
(2.30449e-06 1.17105e-06 0)
(2.23041e-06 1.21156e-06 0)
(2.17859e-06 1.24751e-06 0)
(2.14355e-06 1.2805e-06 0)
(2.121e-06 1.31095e-06 0)
(2.10785e-06 1.34006e-06 0)
(2.06386e-06 1.33717e-06 0)
(2.70803e-06 8.2255e-07 -4.84499e-20)
(2.41439e-06 8.74449e-07 0)
(2.21306e-06 9.10366e-07 0)
(2.06915e-06 9.43659e-07 0)
(1.96683e-06 9.72067e-07 0)
(1.89443e-06 9.98428e-07 0)
(1.84377e-06 1.02251e-06 0)
(1.80924e-06 1.04523e-06 0)
(1.78659e-06 1.06644e-06 0)
(1.77266e-06 1.08706e-06 0)
(1.73467e-06 1.08087e-06 0)
(2.35335e-06 7.39353e-07 -4.66855e-20)
(2.06956e-06 7.48092e-07 0)
(1.87585e-06 7.54063e-07 0)
(1.73846e-06 7.65485e-07 0)
(1.64159e-06 7.77284e-07 0)
(1.5735e-06 7.90674e-07 0)
(1.52604e-06 8.04149e-07 0)
(1.49364e-06 8.17888e-07 0)
(1.4722e-06 8.3115e-07 0)
(1.4586e-06 8.44453e-07 0)
(1.42689e-06 8.36418e-07 0)
(1.9899e-06 6.58878e-07 -4.07059e-20)
(1.72436e-06 6.2601e-07 0)
(1.54428e-06 6.03569e-07 0)
(1.41809e-06 5.94857e-07 0)
(1.33026e-06 5.91884e-07 0)
(1.26921e-06 5.94166e-07 0)
(1.22701e-06 5.98842e-07 0)
(1.19829e-06 6.05307e-07 0)
(1.17924e-06 6.12235e-07 0)
(1.16692e-06 6.19707e-07 0)
(1.14147e-06 6.11244e-07 0)
(1.61877e-06 5.80232e-07 -3.24271e-20)
(1.37885e-06 5.09291e-07 0)
(1.21856e-06 4.61466e-07 0)
(1.10851e-06 4.35742e-07 0)
(1.0335e-06 4.20931e-07 0)
(9.82231e-07 4.14776e-07 0)
(9.47244e-07 4.13025e-07 0)
(9.23616e-07 4.14309e-07 0)
(9.07958e-07 4.16793e-07 0)
(8.97671e-07 4.20144e-07 0)
(8.78215e-07 4.12574e-07 0)
(1.24316e-06 5.01079e-07 -2.25786e-20)
(1.03349e-06 3.97458e-07 0)
(8.99213e-07 3.29401e-07 0)
(8.10476e-07 2.91823e-07 0)
(7.51959e-07 2.69564e-07 0)
(7.12923e-07 2.58584e-07 0)
(6.86728e-07 2.53331e-07 0)
(6.69208e-07 2.51825e-07 0)
(6.57611e-07 2.519e-07 0)
(6.49852e-07 2.52927e-07 0)
(6.35971e-07 2.47321e-07 0)
(8.65073e-07 4.14354e-07 -1.19278e-20)
(6.86654e-07 2.8639e-07 0)
(5.86212e-07 2.07338e-07 0)
(5.24238e-07 1.66393e-07 0)
(4.85424e-07 1.43111e-07 0)
(4.60412e-07 1.31842e-07 0)
(4.43928e-07 1.26312e-07 0)
(4.32992e-07 1.24354e-07 0)
(4.25708e-07 1.23844e-07 0)
(4.2069e-07 1.24096e-07 0)
(4.11847e-07 1.2102e-07 0)
(5.08295e-07 3.0498e-07 -1.22369e-21)
(3.41294e-07 1.68609e-07 0)
(2.84241e-07 9.86255e-08 0)
(2.53688e-07 6.7232e-08 0)
(2.35762e-07 5.11681e-08 0)
(2.24567e-07 4.41835e-08 0)
(2.17209e-07 4.10881e-08 0)
(2.12306e-07 4.02412e-08 0)
(2.0896e-07 4.01903e-08 0)
(2.06541e-07 4.04952e-08 0)
(2.0219e-07 3.96017e-08 0)
(1.70912e-07 1.21222e-07 2.0241e-21)
(0 0 0)
(0 0 0)
(0 0 0)
(0 0 0)
(0 0 0)
(0 0 0)
(0 0 0)
(0 0 0)
(0 0 0)
(0 0 0)
(3.7045e-06 1.08644e-06 -3.5203e-20)
(3.43364e-06 1.25785e-06 0)
(3.24429e-06 1.38016e-06 0)
(3.1065e-06 1.47957e-06 0)
(3.00735e-06 1.56107e-06 0)
(2.93702e-06 1.63127e-06 0)
(2.8885e-06 1.69303e-06 0)
(2.85685e-06 1.74886e-06 0)
(2.83823e-06 1.80029e-06 0)
(2.82986e-06 1.84833e-06 0)
(2.8316e-06 1.90049e-06 0)
(3.38487e-06 9.96721e-07 -4.13987e-20)
(3.09814e-06 1.13182e-06 0)
(2.89936e-06 1.22705e-06 0)
(2.75557e-06 1.30516e-06 0)
(2.65237e-06 1.36905e-06 0)
(2.57905e-06 1.42434e-06 0)
(2.52802e-06 1.47302e-06 0)
(2.49401e-06 1.51722e-06 0)
(2.47288e-06 1.55795e-06 0)
(2.46175e-06 1.59642e-06 0)
(2.41265e-06 1.59841e-06 0)
(3.05227e-06 9.08497e-07 -4.60435e-20)
(2.75772e-06 1.00316e-06 0)
(2.5548e-06 1.06923e-06 0)
(2.40884e-06 1.12505e-06 0)
(2.30449e-06 1.17105e-06 0)
(2.23041e-06 1.21156e-06 0)
(2.17859e-06 1.24751e-06 0)
(2.14355e-06 1.2805e-06 0)
(2.121e-06 1.31095e-06 0)
(2.10785e-06 1.34006e-06 0)
(2.06386e-06 1.33717e-06 0)
(2.70803e-06 8.2255e-07 -4.84499e-20)
(2.41439e-06 8.74449e-07 0)
(2.21306e-06 9.10366e-07 0)
(2.06915e-06 9.43659e-07 0)
(1.96683e-06 9.72067e-07 0)
(1.89443e-06 9.98428e-07 0)
(1.84377e-06 1.02251e-06 0)
(1.80924e-06 1.04523e-06 0)
(1.78659e-06 1.06644e-06 0)
(1.77266e-06 1.08706e-06 0)
(1.73467e-06 1.08087e-06 0)
(2.35335e-06 7.39353e-07 -4.66855e-20)
(2.06956e-06 7.48092e-07 0)
(1.87585e-06 7.54063e-07 0)
(1.73846e-06 7.65485e-07 0)
(1.64159e-06 7.77284e-07 0)
(1.5735e-06 7.90674e-07 0)
(1.52604e-06 8.04149e-07 0)
(1.49364e-06 8.17888e-07 0)
(1.4722e-06 8.3115e-07 0)
(1.4586e-06 8.44453e-07 0)
(1.42689e-06 8.36418e-07 0)
(1.9899e-06 6.58878e-07 -4.07059e-20)
(1.72436e-06 6.2601e-07 0)
(1.54428e-06 6.03569e-07 0)
(1.41809e-06 5.94857e-07 0)
(1.33026e-06 5.91884e-07 0)
(1.26921e-06 5.94166e-07 0)
(1.22701e-06 5.98842e-07 0)
(1.19829e-06 6.05307e-07 0)
(1.17924e-06 6.12235e-07 0)
(1.16692e-06 6.19707e-07 0)
(1.14147e-06 6.11244e-07 0)
(1.61877e-06 5.80232e-07 -3.24271e-20)
(1.37885e-06 5.09291e-07 0)
(1.21856e-06 4.61466e-07 0)
(1.10851e-06 4.35742e-07 0)
(1.0335e-06 4.20931e-07 0)
(9.82231e-07 4.14776e-07 0)
(9.47244e-07 4.13025e-07 0)
(9.23616e-07 4.14309e-07 0)
(9.07958e-07 4.16793e-07 0)
(8.97671e-07 4.20144e-07 0)
(8.78215e-07 4.12574e-07 0)
(1.24316e-06 5.01079e-07 -2.25786e-20)
(1.03349e-06 3.97458e-07 0)
(8.99213e-07 3.29401e-07 0)
(8.10476e-07 2.91823e-07 0)
(7.51959e-07 2.69564e-07 0)
(7.12923e-07 2.58584e-07 0)
(6.86728e-07 2.53331e-07 0)
(6.69208e-07 2.51825e-07 0)
(6.57611e-07 2.519e-07 0)
(6.49852e-07 2.52927e-07 0)
(6.35971e-07 2.47321e-07 0)
(8.65073e-07 4.14354e-07 -1.19278e-20)
(6.86654e-07 2.8639e-07 0)
(5.86212e-07 2.07338e-07 0)
(5.24238e-07 1.66393e-07 0)
(4.85424e-07 1.43111e-07 0)
(4.60412e-07 1.31842e-07 0)
(4.43928e-07 1.26312e-07 0)
(4.32992e-07 1.24354e-07 0)
(4.25708e-07 1.23844e-07 0)
(4.2069e-07 1.24096e-07 0)
(4.11847e-07 1.2102e-07 0)
(5.08295e-07 3.0498e-07 -1.22369e-21)
(3.41294e-07 1.68609e-07 0)
(2.84241e-07 9.86255e-08 0)
(2.53688e-07 6.7232e-08 0)
(2.35762e-07 5.11681e-08 0)
(2.24567e-07 4.41835e-08 0)
(2.17209e-07 4.10881e-08 0)
(2.12306e-07 4.02412e-08 0)
(2.0896e-07 4.01903e-08 0)
(2.06541e-07 4.04952e-08 0)
(2.0219e-07 3.96017e-08 0)
(1.70912e-07 1.21222e-07 2.0241e-21)
(0 0 0)
(0 0 0)
(0 0 0)
(0 0 0)
(0 0 0)
(0 0 0)
(0 0 0)
(0 0 0)
(0 0 0)
(0 0 0)
(6.01103e-06 1.78365e-06 -2.49957e-21)
(6.05396e-06 1.95627e-06 -1.55622e-21)
(6.04878e-06 2.17823e-06 -1.69775e-21)
(6.0453e-06 2.38417e-06 -1.83663e-21)
(6.04895e-06 2.57373e-06 -1.97203e-21)
(6.06174e-06 2.74883e-06 -2.10458e-21)
(6.08442e-06 2.91173e-06 -2.23487e-21)
(6.1169e-06 3.06474e-06 -2.36349e-21)
(6.15877e-06 3.20978e-06 -2.49092e-21)
(6.20916e-06 3.34865e-06 -2.6176e-21)
(6.26751e-06 3.48209e-06 -2.70651e-21)
(5.87741e-06 1.71675e-06 -3.57719e-21)
(5.85915e-06 1.94849e-06 0)
(5.84391e-06 2.16904e-06 0)
(5.83581e-06 2.37194e-06 0)
(5.8369e-06 2.55725e-06 0)
(5.84785e-06 2.72723e-06 0)
(5.8686e-06 2.8844e-06 0)
(5.89866e-06 3.03125e-06 0)
(5.93742e-06 3.16985e-06 0)
(5.98399e-06 3.30214e-06 0)
(6.04122e-06 3.42973e-06 0)
(5.69554e-06 1.6884e-06 -3.69438e-21)
(5.65742e-06 1.92523e-06 0)
(5.62645e-06 2.14375e-06 0)
(5.60663e-06 2.34239e-06 0)
(5.59875e-06 2.52226e-06 0)
(5.60255e-06 2.6862e-06 0)
(5.61715e-06 2.83692e-06 0)
(5.64152e-06 2.9771e-06 0)
(5.67471e-06 3.10886e-06 0)
(5.71553e-06 3.23427e-06 0)
(5.77124e-06 3.35628e-06 0)
(5.50281e-06 1.64253e-06 -3.99386e-21)
(5.44064e-06 1.88711e-06 0)
(5.39092e-06 2.10282e-06 0)
(5.35622e-06 2.29563e-06 0)
(5.33641e-06 2.46834e-06 0)
(5.33038e-06 2.62468e-06 0)
(5.33654e-06 2.76769e-06 0)
(5.35332e-06 2.90016e-06 0)
(5.3794e-06 3.02429e-06 0)
(5.41325e-06 3.14218e-06 0)
(5.46735e-06 3.25876e-06 0)
(5.29574e-06 1.58338e-06 -4.9322e-21)
(5.20549e-06 1.83469e-06 0)
(5.13495e-06 2.04635e-06 0)
(5.08367e-06 2.2319e-06 0)
(5.05046e-06 2.39591e-06 0)
(5.03328e-06 2.54322e-06 0)
(5.02983e-06 2.67724e-06 0)
(5.03802e-06 2.8009e-06 0)
(5.05622e-06 2.91643e-06 0)
(5.08248e-06 3.02596e-06 0)
(5.13515e-06 3.13712e-06 0)
(5.07241e-06 1.51379e-06 -6.96124e-21)
(4.95082e-06 1.76821e-06 0)
(4.85817e-06 1.97368e-06 0)
(4.7897e-06 2.15022e-06 0)
(4.74278e-06 2.30397e-06 0)
(4.71419e-06 2.44087e-06 0)
(4.70094e-06 2.56467e-06 0)
(4.7004e-06 2.67845e-06 0)
(4.71061e-06 2.78449e-06 0)
(4.72926e-06 2.88484e-06 0)
(4.78091e-06 2.99065e-06 0)
(4.83206e-06 1.43632e-06 -1.03862e-20)
(4.67724e-06 1.6883e-06 0)
(4.56204e-06 1.88462e-06 0)
(4.47658e-06 2.05017e-06 0)
(4.41632e-06 2.19218e-06 0)
(4.37678e-06 2.31748e-06 0)
(4.35415e-06 2.43005e-06 0)
(4.34529e-06 2.53307e-06 0)
(4.3479e-06 2.62883e-06 0)
(4.35934e-06 2.71932e-06 0)
(4.41051e-06 2.81988e-06 0)
(4.57459e-06 1.35309e-06 -1.52676e-20)
(4.38633e-06 1.5958e-06 0)
(4.24913e-06 1.7794e-06 0)
(4.14756e-06 1.93175e-06 0)
(4.07496e-06 2.06055e-06 0)
(4.02541e-06 2.17319e-06 0)
(3.99428e-06 2.27371e-06 0)
(3.97793e-06 2.3653e-06 0)
(3.97366e-06 2.45021e-06 0)
(3.97862e-06 2.53028e-06 0)
(4.02989e-06 2.62579e-06 0)
(4.30035e-06 1.26597e-06 -2.13873e-20)
(4.08036e-06 1.49204e-06 0)
(3.92275e-06 1.65901e-06 0)
(3.80666e-06 1.79587e-06 0)
(3.72317e-06 1.91007e-06 0)
(3.66496e-06 2.00917e-06 0)
(3.62653e-06 2.09704e-06 0)
(3.60375e-06 2.17676e-06 0)
(3.59357e-06 2.25046e-06 0)
(3.59297e-06 2.31977e-06 0)
(3.64488e-06 2.41035e-06 0)
(4.01002e-06 1.17661e-06 -2.82643e-20)
(3.76191e-06 1.37871e-06 0)
(3.58658e-06 1.52513e-06 0)
(3.4582e-06 1.64426e-06 0)
(3.36572e-06 1.74262e-06 0)
(3.30048e-06 1.82749e-06 0)
(3.25618e-06 1.90235e-06 0)
(3.22824e-06 1.97004e-06 0)
(3.21323e-06 2.03243e-06 0)
(3.20819e-06 2.09074e-06 0)
(3.26101e-06 2.17636e-06 0)
(6.01103e-06 1.78365e-06 -2.49957e-21)
(6.05396e-06 1.95627e-06 -1.55622e-21)
(6.04878e-06 2.17823e-06 -1.69775e-21)
(6.0453e-06 2.38417e-06 -1.83663e-21)
(6.04895e-06 2.57373e-06 -1.97203e-21)
(6.06174e-06 2.74883e-06 -2.10458e-21)
(6.08442e-06 2.91173e-06 -2.23487e-21)
(6.1169e-06 3.06474e-06 -2.36349e-21)
(6.15877e-06 3.20978e-06 -2.49092e-21)
(6.20916e-06 3.34865e-06 -2.6176e-21)
(6.26751e-06 3.48209e-06 -2.70651e-21)
(5.87741e-06 1.71675e-06 -3.57719e-21)
(5.85915e-06 1.94849e-06 0)
(5.84391e-06 2.16904e-06 0)
(5.83581e-06 2.37194e-06 0)
(5.8369e-06 2.55725e-06 0)
(5.84785e-06 2.72723e-06 0)
(5.8686e-06 2.8844e-06 0)
(5.89866e-06 3.03125e-06 0)
(5.93742e-06 3.16985e-06 0)
(5.98399e-06 3.30214e-06 0)
(6.04122e-06 3.42973e-06 0)
(5.69554e-06 1.6884e-06 -3.69438e-21)
(5.65742e-06 1.92523e-06 0)
(5.62645e-06 2.14375e-06 0)
(5.60663e-06 2.34239e-06 0)
(5.59875e-06 2.52226e-06 0)
(5.60255e-06 2.6862e-06 0)
(5.61715e-06 2.83692e-06 0)
(5.64152e-06 2.9771e-06 0)
(5.67471e-06 3.10886e-06 0)
(5.71553e-06 3.23427e-06 0)
(5.77124e-06 3.35628e-06 0)
(5.50281e-06 1.64253e-06 -3.99386e-21)
(5.44064e-06 1.88711e-06 0)
(5.39092e-06 2.10282e-06 0)
(5.35622e-06 2.29563e-06 0)
(5.33641e-06 2.46834e-06 0)
(5.33038e-06 2.62468e-06 0)
(5.33654e-06 2.76769e-06 0)
(5.35332e-06 2.90016e-06 0)
(5.3794e-06 3.02429e-06 0)
(5.41325e-06 3.14218e-06 0)
(5.46735e-06 3.25876e-06 0)
(5.29574e-06 1.58338e-06 -4.9322e-21)
(5.20549e-06 1.83469e-06 0)
(5.13495e-06 2.04635e-06 0)
(5.08367e-06 2.2319e-06 0)
(5.05046e-06 2.39591e-06 0)
(5.03328e-06 2.54322e-06 0)
(5.02983e-06 2.67724e-06 0)
(5.03802e-06 2.8009e-06 0)
(5.05622e-06 2.91643e-06 0)
(5.08248e-06 3.02596e-06 0)
(5.13515e-06 3.13712e-06 0)
(5.07241e-06 1.51379e-06 -6.96124e-21)
(4.95082e-06 1.76821e-06 0)
(4.85817e-06 1.97368e-06 0)
(4.7897e-06 2.15022e-06 0)
(4.74278e-06 2.30397e-06 0)
(4.71419e-06 2.44087e-06 0)
(4.70094e-06 2.56467e-06 0)
(4.7004e-06 2.67845e-06 0)
(4.71061e-06 2.78449e-06 0)
(4.72926e-06 2.88484e-06 0)
(4.78091e-06 2.99065e-06 0)
(4.83206e-06 1.43632e-06 -1.03862e-20)
(4.67724e-06 1.6883e-06 0)
(4.56204e-06 1.88462e-06 0)
(4.47658e-06 2.05017e-06 0)
(4.41632e-06 2.19218e-06 0)
(4.37678e-06 2.31748e-06 0)
(4.35415e-06 2.43005e-06 0)
(4.34529e-06 2.53307e-06 0)
(4.3479e-06 2.62883e-06 0)
(4.35934e-06 2.71932e-06 0)
(4.41051e-06 2.81988e-06 0)
(4.57459e-06 1.35309e-06 -1.52676e-20)
(4.38633e-06 1.5958e-06 0)
(4.24913e-06 1.7794e-06 0)
(4.14756e-06 1.93175e-06 0)
(4.07496e-06 2.06055e-06 0)
(4.02541e-06 2.17319e-06 0)
(3.99428e-06 2.27371e-06 0)
(3.97793e-06 2.3653e-06 0)
(3.97366e-06 2.45021e-06 0)
(3.97862e-06 2.53028e-06 0)
(4.02989e-06 2.62579e-06 0)
(4.30035e-06 1.26597e-06 -2.13873e-20)
(4.08036e-06 1.49204e-06 0)
(3.92275e-06 1.65901e-06 0)
(3.80666e-06 1.79587e-06 0)
(3.72317e-06 1.91007e-06 0)
(3.66496e-06 2.00917e-06 0)
(3.62653e-06 2.09704e-06 0)
(3.60375e-06 2.17676e-06 0)
(3.59357e-06 2.25046e-06 0)
(3.59297e-06 2.31977e-06 0)
(3.64488e-06 2.41035e-06 0)
(4.01002e-06 1.17661e-06 -2.82643e-20)
(3.76191e-06 1.37871e-06 0)
(3.58658e-06 1.52513e-06 0)
(3.4582e-06 1.64426e-06 0)
(3.36572e-06 1.74262e-06 0)
(3.30048e-06 1.82749e-06 0)
(3.25618e-06 1.90235e-06 0)
(3.22824e-06 1.97004e-06 0)
(3.21323e-06 2.03243e-06 0)
(3.20819e-06 2.09074e-06 0)
(3.26101e-06 2.17636e-06 0)
(6.33386e-06 3.61175e-06 -2.72035e-21)
(6.40705e-06 3.73938e-06 -2.69695e-21)
(6.48593e-06 3.8651e-06 -2.67436e-21)
(6.56995e-06 3.98952e-06 -2.65255e-21)
(6.65858e-06 4.11314e-06 -2.63148e-21)
(6.7513e-06 4.23636e-06 -2.61112e-21)
(6.84767e-06 4.35955e-06 -2.59141e-21)
(6.94728e-06 4.483e-06 -2.57233e-21)
(7.04976e-06 4.60695e-06 -2.55381e-21)
(7.15478e-06 4.73162e-06 -2.53584e-21)
(7.26201e-06 4.85718e-06 -2.51838e-21)
(7.37115e-06 4.98379e-06 -2.50141e-21)
(7.48194e-06 5.11156e-06 -2.48493e-21)
(7.59407e-06 5.24058e-06 -2.46892e-21)
(7.70728e-06 5.37092e-06 -2.45338e-21)
(7.82128e-06 5.50258e-06 -2.43835e-21)
(7.93575e-06 5.6355e-06 -2.42381e-21)
(8.05038e-06 5.76952e-06 -2.40982e-21)
(8.16477e-06 5.90433e-06 -2.39642e-21)
(8.20265e-06 5.98832e-06 -3.77117e-22)
(6.112e-06 3.55549e-06 0)
(6.19139e-06 3.68042e-06 0)
(6.2754e-06 3.8037e-06 0)
(6.36358e-06 3.92598e-06 0)
(6.45554e-06 4.04774e-06 0)
(6.55091e-06 4.16938e-06 0)
(6.64935e-06 4.29122e-06 0)
(6.75055e-06 4.41355e-06 0)
(6.85422e-06 4.5366e-06 0)
(6.96008e-06 4.66056e-06 0)
(7.06789e-06 4.78561e-06 0)
(7.1774e-06 4.91187e-06 0)
(7.28839e-06 5.03948e-06 0)
(7.40063e-06 5.1685e-06 0)
(7.51391e-06 5.299e-06 0)
(7.62801e-06 5.43098e-06 0)
(7.74273e-06 5.56438e-06 0)
(7.85786e-06 5.69903e-06 0)
(7.97318e-06 5.83464e-06 0)
(8.08804e-06 5.97048e-06 1.64812e-21)
(5.84882e-06 3.4795e-06 0)
(5.93782e-06 3.60353e-06 0)
(6.03017e-06 3.726e-06 0)
(6.12551e-06 3.84761e-06 0)
(6.22365e-06 3.96886e-06 0)
(6.32433e-06 4.09012e-06 0)
(6.42735e-06 4.21174e-06 0)
(6.53249e-06 4.334e-06 0)
(6.63957e-06 4.45711e-06 0)
(6.7484e-06 4.58129e-06 0)
(6.85881e-06 4.70668e-06 0)
(6.97064e-06 4.83343e-06 0)
(7.08373e-06 4.96165e-06 0)
(7.19792e-06 5.09144e-06 0)
(7.31306e-06 5.22285e-06 0)
(7.42901e-06 5.35589e-06 0)
(7.54562e-06 5.49054e-06 0)
(7.66271e-06 5.62667e-06 0)
(7.78007e-06 5.76406e-06 0)
(7.89652e-06 5.90201e-06 1.67229e-21)
(5.55342e-06 3.38096e-06 0)
(5.6544e-06 3.50615e-06 0)
(5.75741e-06 3.62975e-06 0)
(5.86213e-06 3.75243e-06 0)
(5.96857e-06 3.87475e-06 0)
(6.07658e-06 3.99709e-06 0)
(6.18609e-06 4.11982e-06 0)
(6.297e-06 4.24321e-06 0)
(6.40923e-06 4.36751e-06 0)
(6.52267e-06 4.49292e-06 0)
(6.63726e-06 4.61962e-06 0)
(6.75289e-06 4.74775e-06 0)
(6.86949e-06 4.87744e-06 0)
(6.98698e-06 5.00879e-06 0)
(7.10526e-06 5.14188e-06 0)
(7.22424e-06 5.27676e-06 0)
(7.34382e-06 5.41345e-06 0)
(7.46387e-06 5.55191e-06 0)
(7.58416e-06 5.69207e-06 0)
(7.70305e-06 5.83339e-06 1.7389e-21)
(5.2311e-06 3.25971e-06 0)
(5.34598e-06 3.388e-06 0)
(5.46152e-06 3.51456e-06 0)
(5.57742e-06 3.64e-06 0)
(5.69391e-06 3.76495e-06 0)
(5.81091e-06 3.88979e-06 0)
(5.92851e-06 4.01493e-06 0)
(6.0467e-06 4.14067e-06 0)
(6.1655e-06 4.26728e-06 0)
(6.28492e-06 4.39497e-06 0)
(6.40496e-06 4.52395e-06 0)
(6.52562e-06 4.65438e-06 0)
(6.64688e-06 4.78639e-06 0)
(6.76873e-06 4.92013e-06 0)
(6.89114e-06 5.05569e-06 0)
(7.01408e-06 5.19318e-06 0)
(7.13748e-06 5.33268e-06 0)
(7.26125e-06 5.47428e-06 0)
(7.3852e-06 5.61803e-06 0)
(7.50735e-06 5.76359e-06 1.85071e-21)
(4.88787e-06 3.11511e-06 0)
(5.01808e-06 3.24849e-06 0)
(5.14755e-06 3.37992e-06 0)
(5.27598e-06 3.50984e-06 0)
(5.40384e-06 3.63903e-06 0)
(5.5311e-06 3.76785e-06 0)
(5.658e-06 3.89677e-06 0)
(5.78463e-06 4.02612e-06 0)
(5.91113e-06 4.1562e-06 0)
(6.03758e-06 4.28725e-06 0)
(6.16407e-06 4.41952e-06 0)
(6.29068e-06 4.55317e-06 0)
(6.41747e-06 4.68839e-06 0)
(6.54449e-06 4.82533e-06 0)
(6.67178e-06 4.96415e-06 0)
(6.79937e-06 5.105e-06 0)
(6.92723e-06 5.24803e-06 0)
(7.05533e-06 5.39346e-06 0)
(7.18353e-06 5.54146e-06 0)
(7.30967e-06 5.69187e-06 2.0041e-21)
(4.52924e-06 2.94768e-06 0)
(4.67572e-06 3.08807e-06 0)
(4.8201e-06 3.22619e-06 0)
(4.96202e-06 3.36227e-06 0)
(5.10219e-06 3.49725e-06 0)
(5.24065e-06 3.63148e-06 0)
(5.37777e-06 3.76551e-06 0)
(5.51373e-06 3.8997e-06 0)
(5.64875e-06 4.03439e-06 0)
(5.78302e-06 4.16988e-06 0)
(5.91672e-06 4.30642e-06 0)
(6.04998e-06 4.44423e-06 0)
(6.18296e-06 4.58352e-06 0)
(6.31575e-06 4.72449e-06 0)
(6.44848e-06 4.86732e-06 0)
(6.58122e-06 5.01222e-06 0)
(6.71401e-06 5.15943e-06 0)
(6.84689e-06 5.30925e-06 0)
(6.97979e-06 5.46198e-06 0)
(7.11057e-06 5.61764e-06 2.19349e-21)
(4.16075e-06 2.75836e-06 0)
(4.32388e-06 2.90753e-06 0)
(4.48368e-06 3.05404e-06 0)
(4.63964e-06 3.19789e-06 0)
(4.79272e-06 3.34014e-06 0)
(4.94299e-06 3.48118e-06 0)
(5.09095e-06 3.62162e-06 0)
(5.23685e-06 3.76185e-06 0)
(5.38101e-06 3.90228e-06 0)
(5.52368e-06 4.04325e-06 0)
(5.66511e-06 4.18504e-06 0)
(5.80554e-06 4.32791e-06 0)
(5.94516e-06 4.47212e-06 0)
(6.08415e-06 4.61788e-06 0)
(6.2227e-06 4.76543e-06 0)
(6.36093e-06 4.91503e-06 0)
(6.49899e-06 5.06697e-06 0)
(6.63695e-06 5.22165e-06 0)
(6.77488e-06 5.37945e-06 0)
(6.91083e-06 5.54057e-06 2.41156e-21)
(3.78781e-06 2.54893e-06 0)
(3.96743e-06 2.70847e-06 0)
(4.14269e-06 2.86484e-06 0)
(4.31287e-06 3.01788e-06 0)
(4.47908e-06 3.16869e-06 0)
(4.64147e-06 3.31779e-06 0)
(4.80059e-06 3.46579e-06 0)
(4.95678e-06 3.61318e-06 0)
(5.11043e-06 3.7604e-06 0)
(5.26185e-06 3.90784e-06 0)
(5.41137e-06 4.05582e-06 0)
(5.55928e-06 4.20464e-06 0)
(5.70584e-06 4.35458e-06 0)
(5.8513e-06 4.50589e-06 0)
(5.99591e-06 4.65885e-06 0)
(6.13986e-06 4.81374e-06 0)
(6.28337e-06 4.97091e-06 0)
(6.4266e-06 5.13081e-06 0)
(6.56974e-06 5.29389e-06 0)
(6.7113e-06 5.46055e-06 2.6503e-21)
(3.41529e-06 2.32191e-06 0)
(3.61055e-06 2.49298e-06 0)
(3.80068e-06 2.66023e-06 0)
(3.98492e-06 2.82374e-06 0)
(4.16425e-06 2.98431e-06 0)
(4.33887e-06 3.1426e-06 0)
(4.50933e-06 3.29924e-06 0)
(4.67602e-06 3.45479e-06 0)
(4.83936e-06 3.60975e-06 0)
(4.99975e-06 3.76455e-06 0)
(5.15755e-06 3.91957e-06 0)
(5.31311e-06 4.07513e-06 0)
(5.46677e-06 4.23154e-06 0)
(5.61884e-06 4.38909e-06 0)
(5.76961e-06 4.54806e-06 0)
(5.91937e-06 4.70879e-06 0)
(6.06839e-06 4.87161e-06 0)
(6.21695e-06 5.03702e-06 0)
(6.36536e-06 5.2055e-06 0)
(6.51286e-06 5.37769e-06 2.90069e-21)
(3.08461e-06 2.11537e-06 0)
(3.29151e-06 2.29636e-06 0)
(3.49275e-06 2.47249e-06 0)
(3.6879e-06 2.64485e-06 0)
(3.87755e-06 2.81391e-06 0)
(4.06199e-06 2.98034e-06 0)
(4.24165e-06 3.14474e-06 0)
(4.41692e-06 3.30768e-06 0)
(4.58824e-06 3.46966e-06 0)
(4.756e-06 3.63113e-06 0)
(4.92061e-06 3.79249e-06 0)
(5.08246e-06 3.95408e-06 0)
(5.24192e-06 4.11622e-06 0)
(5.39934e-06 4.27921e-06 0)
(5.55507e-06 4.44332e-06 0)
(5.70945e-06 4.60889e-06 0)
(5.86284e-06 4.77624e-06 0)
(6.01557e-06 4.94585e-06 0)
(6.1681e-06 5.11818e-06 0)
(6.32045e-06 5.29411e-06 3.12003e-21)
(6.33386e-06 3.61175e-06 -2.72035e-21)
(6.40705e-06 3.73938e-06 -2.69695e-21)
(6.48593e-06 3.8651e-06 -2.67436e-21)
(6.56995e-06 3.98952e-06 -2.65255e-21)
(6.65858e-06 4.11314e-06 -2.63148e-21)
(6.7513e-06 4.23636e-06 -2.61112e-21)
(6.84767e-06 4.35955e-06 -2.59141e-21)
(6.94728e-06 4.483e-06 -2.57233e-21)
(7.04976e-06 4.60695e-06 -2.55381e-21)
(7.15478e-06 4.73162e-06 -2.53584e-21)
(7.26201e-06 4.85718e-06 -2.51838e-21)
(7.37115e-06 4.98379e-06 -2.50141e-21)
(7.48194e-06 5.11156e-06 -2.48493e-21)
(7.59407e-06 5.24058e-06 -2.46892e-21)
(7.70728e-06 5.37092e-06 -2.45338e-21)
(7.82128e-06 5.50258e-06 -2.43835e-21)
(7.93575e-06 5.6355e-06 -2.42381e-21)
(8.05038e-06 5.76952e-06 -2.40982e-21)
(8.16477e-06 5.90433e-06 -2.39642e-21)
(8.20265e-06 5.98832e-06 -3.77117e-22)
(6.112e-06 3.55549e-06 0)
(6.19139e-06 3.68042e-06 0)
(6.2754e-06 3.8037e-06 0)
(6.36358e-06 3.92598e-06 0)
(6.45554e-06 4.04774e-06 0)
(6.55091e-06 4.16938e-06 0)
(6.64935e-06 4.29122e-06 0)
(6.75055e-06 4.41355e-06 0)
(6.85422e-06 4.5366e-06 0)
(6.96008e-06 4.66056e-06 0)
(7.06789e-06 4.78561e-06 0)
(7.1774e-06 4.91187e-06 0)
(7.28839e-06 5.03948e-06 0)
(7.40063e-06 5.1685e-06 0)
(7.51391e-06 5.299e-06 0)
(7.62801e-06 5.43098e-06 0)
(7.74273e-06 5.56438e-06 0)
(7.85786e-06 5.69903e-06 0)
(7.97318e-06 5.83464e-06 0)
(8.08804e-06 5.97048e-06 1.64812e-21)
(5.84882e-06 3.4795e-06 0)
(5.93782e-06 3.60353e-06 0)
(6.03017e-06 3.726e-06 0)
(6.12551e-06 3.84761e-06 0)
(6.22365e-06 3.96886e-06 0)
(6.32433e-06 4.09012e-06 0)
(6.42735e-06 4.21174e-06 0)
(6.53249e-06 4.334e-06 0)
(6.63957e-06 4.45711e-06 0)
(6.7484e-06 4.58129e-06 0)
(6.85881e-06 4.70668e-06 0)
(6.97064e-06 4.83343e-06 0)
(7.08373e-06 4.96165e-06 0)
(7.19792e-06 5.09144e-06 0)
(7.31306e-06 5.22285e-06 0)
(7.42901e-06 5.35589e-06 0)
(7.54562e-06 5.49054e-06 0)
(7.66271e-06 5.62667e-06 0)
(7.78007e-06 5.76406e-06 0)
(7.89652e-06 5.90201e-06 1.67229e-21)
(5.55342e-06 3.38096e-06 0)
(5.6544e-06 3.50615e-06 0)
(5.75741e-06 3.62975e-06 0)
(5.86213e-06 3.75243e-06 0)
(5.96857e-06 3.87475e-06 0)
(6.07658e-06 3.99709e-06 0)
(6.18609e-06 4.11982e-06 0)
(6.297e-06 4.24321e-06 0)
(6.40923e-06 4.36751e-06 0)
(6.52267e-06 4.49292e-06 0)
(6.63726e-06 4.61962e-06 0)
(6.75289e-06 4.74775e-06 0)
(6.86949e-06 4.87744e-06 0)
(6.98698e-06 5.00879e-06 0)
(7.10526e-06 5.14188e-06 0)
(7.22424e-06 5.27676e-06 0)
(7.34382e-06 5.41345e-06 0)
(7.46387e-06 5.55191e-06 0)
(7.58416e-06 5.69207e-06 0)
(7.70305e-06 5.83339e-06 1.7389e-21)
(5.2311e-06 3.25971e-06 0)
(5.34598e-06 3.388e-06 0)
(5.46152e-06 3.51456e-06 0)
(5.57742e-06 3.64e-06 0)
(5.69391e-06 3.76495e-06 0)
(5.81091e-06 3.88979e-06 0)
(5.92851e-06 4.01493e-06 0)
(6.0467e-06 4.14067e-06 0)
(6.1655e-06 4.26728e-06 0)
(6.28492e-06 4.39497e-06 0)
(6.40496e-06 4.52395e-06 0)
(6.52562e-06 4.65438e-06 0)
(6.64688e-06 4.78639e-06 0)
(6.76873e-06 4.92013e-06 0)
(6.89114e-06 5.05569e-06 0)
(7.01408e-06 5.19318e-06 0)
(7.13748e-06 5.33268e-06 0)
(7.26125e-06 5.47428e-06 0)
(7.3852e-06 5.61803e-06 0)
(7.50735e-06 5.76359e-06 1.85071e-21)
(4.88787e-06 3.11511e-06 0)
(5.01808e-06 3.24849e-06 0)
(5.14755e-06 3.37992e-06 0)
(5.27598e-06 3.50984e-06 0)
(5.40384e-06 3.63903e-06 0)
(5.5311e-06 3.76785e-06 0)
(5.658e-06 3.89677e-06 0)
(5.78463e-06 4.02612e-06 0)
(5.91113e-06 4.1562e-06 0)
(6.03758e-06 4.28725e-06 0)
(6.16407e-06 4.41952e-06 0)
(6.29068e-06 4.55317e-06 0)
(6.41747e-06 4.68839e-06 0)
(6.54449e-06 4.82533e-06 0)
(6.67178e-06 4.96415e-06 0)
(6.79937e-06 5.105e-06 0)
(6.92723e-06 5.24803e-06 0)
(7.05533e-06 5.39346e-06 0)
(7.18353e-06 5.54146e-06 0)
(7.30967e-06 5.69187e-06 2.0041e-21)
(4.52924e-06 2.94768e-06 0)
(4.67572e-06 3.08807e-06 0)
(4.8201e-06 3.22619e-06 0)
(4.96202e-06 3.36227e-06 0)
(5.10219e-06 3.49725e-06 0)
(5.24065e-06 3.63148e-06 0)
(5.37777e-06 3.76551e-06 0)
(5.51373e-06 3.8997e-06 0)
(5.64875e-06 4.03439e-06 0)
(5.78302e-06 4.16988e-06 0)
(5.91672e-06 4.30642e-06 0)
(6.04998e-06 4.44423e-06 0)
(6.18296e-06 4.58352e-06 0)
(6.31575e-06 4.72449e-06 0)
(6.44848e-06 4.86732e-06 0)
(6.58122e-06 5.01222e-06 0)
(6.71401e-06 5.15943e-06 0)
(6.84689e-06 5.30925e-06 0)
(6.97979e-06 5.46198e-06 0)
(7.11057e-06 5.61764e-06 2.19349e-21)
(4.16075e-06 2.75836e-06 0)
(4.32388e-06 2.90753e-06 0)
(4.48368e-06 3.05404e-06 0)
(4.63964e-06 3.19789e-06 0)
(4.79272e-06 3.34014e-06 0)
(4.94299e-06 3.48118e-06 0)
(5.09095e-06 3.62162e-06 0)
(5.23685e-06 3.76185e-06 0)
(5.38101e-06 3.90228e-06 0)
(5.52368e-06 4.04325e-06 0)
(5.66511e-06 4.18504e-06 0)
(5.80554e-06 4.32791e-06 0)
(5.94516e-06 4.47212e-06 0)
(6.08415e-06 4.61788e-06 0)
(6.2227e-06 4.76543e-06 0)
(6.36093e-06 4.91503e-06 0)
(6.49899e-06 5.06697e-06 0)
(6.63695e-06 5.22165e-06 0)
(6.77488e-06 5.37945e-06 0)
(6.91083e-06 5.54057e-06 2.41156e-21)
(3.78781e-06 2.54893e-06 0)
(3.96743e-06 2.70847e-06 0)
(4.14269e-06 2.86484e-06 0)
(4.31287e-06 3.01788e-06 0)
(4.47908e-06 3.16869e-06 0)
(4.64147e-06 3.31779e-06 0)
(4.80059e-06 3.46579e-06 0)
(4.95678e-06 3.61318e-06 0)
(5.11043e-06 3.7604e-06 0)
(5.26185e-06 3.90784e-06 0)
(5.41137e-06 4.05582e-06 0)
(5.55928e-06 4.20464e-06 0)
(5.70584e-06 4.35458e-06 0)
(5.8513e-06 4.50589e-06 0)
(5.99591e-06 4.65885e-06 0)
(6.13986e-06 4.81374e-06 0)
(6.28337e-06 4.97091e-06 0)
(6.4266e-06 5.13081e-06 0)
(6.56974e-06 5.29389e-06 0)
(6.7113e-06 5.46055e-06 2.6503e-21)
(3.41529e-06 2.32191e-06 0)
(3.61055e-06 2.49298e-06 0)
(3.80068e-06 2.66023e-06 0)
(3.98492e-06 2.82374e-06 0)
(4.16425e-06 2.98431e-06 0)
(4.33887e-06 3.1426e-06 0)
(4.50933e-06 3.29924e-06 0)
(4.67602e-06 3.45479e-06 0)
(4.83936e-06 3.60975e-06 0)
(4.99975e-06 3.76455e-06 0)
(5.15755e-06 3.91957e-06 0)
(5.31311e-06 4.07513e-06 0)
(5.46677e-06 4.23154e-06 0)
(5.61884e-06 4.38909e-06 0)
(5.76961e-06 4.54806e-06 0)
(5.91937e-06 4.70879e-06 0)
(6.06839e-06 4.87161e-06 0)
(6.21695e-06 5.03702e-06 0)
(6.36536e-06 5.2055e-06 0)
(6.51286e-06 5.37769e-06 2.90069e-21)
(3.08461e-06 2.11537e-06 0)
(3.29151e-06 2.29636e-06 0)
(3.49275e-06 2.47249e-06 0)
(3.6879e-06 2.64485e-06 0)
(3.87755e-06 2.81391e-06 0)
(4.06199e-06 2.98034e-06 0)
(4.24165e-06 3.14474e-06 0)
(4.41692e-06 3.30768e-06 0)
(4.58824e-06 3.46966e-06 0)
(4.756e-06 3.63113e-06 0)
(4.92061e-06 3.79249e-06 0)
(5.08246e-06 3.95408e-06 0)
(5.24192e-06 4.11622e-06 0)
(5.39934e-06 4.27921e-06 0)
(5.55507e-06 4.44332e-06 0)
(5.70945e-06 4.60889e-06 0)
(5.86284e-06 4.77624e-06 0)
(6.01557e-06 4.94585e-06 0)
(6.1681e-06 5.11818e-06 0)
(6.32045e-06 5.29411e-06 3.12003e-21)
(2.59478e-06 1.77042e-06 0)
(2.84388e-06 1.97374e-06 0)
(3.05478e-06 2.15892e-06 0)
(3.25994e-06 2.33906e-06 0)
(3.45929e-06 2.51574e-06 0)
(3.65317e-06 2.68928e-06 0)
(3.84181e-06 2.86025e-06 0)
(4.02557e-06 3.02915e-06 0)
(4.20477e-06 3.19646e-06 0)
(4.37981e-06 3.36265e-06 0)
(4.55105e-06 3.5281e-06 0)
(4.71889e-06 3.69318e-06 0)
(4.88371e-06 3.85821e-06 0)
(5.04586e-06 4.02349e-06 0)
(5.20573e-06 4.18928e-06 0)
(5.36368e-06 4.35585e-06 0)
(5.52007e-06 4.52348e-06 0)
(5.67531e-06 4.69247e-06 0)
(5.82977e-06 4.86321e-06 0)
(5.984e-06 5.03609e-06 0)
(6.1384e-06 5.21197e-06 3.25584e-21)
(2.41841e-06 1.66683e-06 0)
(2.65929e-06 1.86753e-06 0)
(2.86871e-06 2.05306e-06 0)
(3.07312e-06 2.23449e-06 0)
(3.27229e-06 2.41304e-06 0)
(3.46643e-06 2.58885e-06 0)
(3.65565e-06 2.76233e-06 0)
(3.8402e-06 2.93387e-06 0)
(4.02033e-06 3.10384e-06 0)
(4.19637e-06 3.27261e-06 0)
(4.36862e-06 3.44051e-06 0)
(4.53744e-06 3.60785e-06 0)
(4.70317e-06 3.77489e-06 0)
(4.86616e-06 3.94189e-06 0)
(5.02676e-06 4.10909e-06 0)
(5.18534e-06 4.27669e-06 0)
(5.34228e-06 4.44493e-06 0)
(5.49798e-06 4.61406e-06 0)
(5.65286e-06 4.78436e-06 0)
(5.80752e-06 4.9561e-06 0)
(5.96238e-06 5.12989e-06 3.32905e-21)
(2.26188e-06 1.56708e-06 0)
(2.49383e-06 1.76504e-06 0)
(2.69956e-06 1.95012e-06 0)
(2.90137e-06 2.13212e-06 0)
(3.09863e-06 2.31192e-06 0)
(3.29151e-06 2.4895e-06 0)
(3.47992e-06 2.66509e-06 0)
(3.66403e-06 2.83894e-06 0)
(3.84401e-06 3.01131e-06 0)
(4.02008e-06 3.18248e-06 0)
(4.1925e-06 3.35269e-06 0)
(4.36158e-06 3.52219e-06 0)
(4.52761e-06 3.69118e-06 0)
(4.69091e-06 3.85987e-06 0)
(4.85183e-06 4.02843e-06 0)
(5.01071e-06 4.19705e-06 0)
(5.16791e-06 4.36587e-06 0)
(5.32387e-06 4.53507e-06 0)
(5.47899e-06 4.70484e-06 0)
(5.63392e-06 4.8753e-06 0)
(5.78907e-06 5.04679e-06 3.37505e-21)
(2.12231e-06 1.47197e-06 0)
(2.34478e-06 1.66653e-06 0)
(2.54554e-06 1.85047e-06 0)
(2.74337e-06 2.03243e-06 0)
(2.93743e-06 2.21297e-06 0)
(3.12779e-06 2.39185e-06 0)
(3.31423e-06 2.56916e-06 0)
(3.49684e-06 2.74499e-06 0)
(3.67569e-06 2.9195e-06 0)
(3.85093e-06 3.09284e-06 0)
(4.02277e-06 3.26519e-06 0)
(4.19144e-06 3.4367e-06 0)
(4.3572e-06 3.60753e-06 0)
(4.52034e-06 3.77781e-06 0)
(4.68116e-06 3.94768e-06 0)
(4.84e-06 4.11724e-06 0)
(4.9972e-06 4.28659e-06 0)
(5.15317e-06 4.45582e-06 0)
(5.30836e-06 4.62497e-06 0)
(5.46344e-06 4.79407e-06 0)
(5.61871e-06 4.96318e-06 3.3919e-21)
(1.99728e-06 1.3818e-06 0)
(2.21007e-06 1.57262e-06 0)
(2.4049e-06 1.75487e-06 0)
(2.59772e-06 1.93623e-06 0)
(2.78754e-06 2.11697e-06 0)
(2.97437e-06 2.29668e-06 0)
(3.15789e-06 2.47528e-06 0)
(3.3381e-06 2.65272e-06 0)
(3.51499e-06 2.82903e-06 0)
(3.68865e-06 3.00428e-06 0)
(3.85922e-06 3.17852e-06 0)
(4.02689e-06 3.35186e-06 0)
(4.19186e-06 3.52437e-06 0)
(4.35439e-06 3.69613e-06 0)
(4.51475e-06 3.8672e-06 0)
(4.67324e-06 4.03763e-06 0)
(4.83019e-06 4.20744e-06 0)
(4.98598e-06 4.37662e-06 0)
(5.14104e-06 4.54511e-06 0)
(5.29602e-06 4.71283e-06 0)
(5.4512e-06 4.87961e-06 3.37805e-21)
(1.88429e-06 1.29657e-06 0)
(2.08747e-06 1.48337e-06 0)
(2.27577e-06 1.66349e-06 0)
(2.46286e-06 1.84382e-06 0)
(2.64769e-06 2.02431e-06 0)
(2.83022e-06 2.20442e-06 0)
(3.01004e-06 2.3839e-06 0)
(3.18711e-06 2.56259e-06 0)
(3.36134e-06 2.74039e-06 0)
(3.53278e-06 2.91724e-06 0)
(3.7015e-06 3.09314e-06 0)
(3.86764e-06 3.26808e-06 0)
(4.03137e-06 3.44209e-06 0)
(4.1929e-06 3.61516e-06 0)