/*--------------------------------*- C++ -*----------------------------------*\
  =========                 |
  \\      /  F ield         | OpenFOAM: The Open Source CFD Toolbox
   \\    /   O peration     | Website:  https://openfoam.org
    \\  /    A nd           | Version:  9
     \\/     M anipulation  |
\*---------------------------------------------------------------------------*/
FoamFile
{
    format      ascii;
    class       volScalarField;
    location    "5";
    object      sigmaEq;
}
// * * * * * * * * * * * * * * * * * * * * * * * * * * * * * * * * * * * * * //

dimensions      [1 -1 -2 0 0 0 0];

internalField   nonuniform List<scalar> 
1000
(
860772
814379
799767
799767
797421
792356
784407
773904
762989
749542
1.00385e+06
912671
869120
850423
834649
820045
804841
789115
772595
756999
1.14353e+06
1.00891e+06
934921
894033
862993
837380
813912
791908
770111
750967
1.27938e+06
1.10248e+06
995796
931067
883245
845488
813031
784418
757394
734731
1.40755e+06
1.18947e+06
1.0505e+06
961075
895429
844695
802804
767439
736176
710352
1.52618e+06
1.26944e+06
1.09865e+06
984105
900020
835925
785231
743934
708076
678674
1.62867e+06
1.3379e+06
1.13553e+06
996538
894941
819439
761194
714094
674426
641796
1.72691e+06
1.39475e+06
1.15916e+06
997820
881449
797683
733302
682067
639930
604964
1.80113e+06
1.41818e+06
1.14908e+06
972872
853485
766979
701497
649453
607068
571196
1.89316e+06
1.38886e+06
1.10868e+06
938242
827235
744672
681997
631293
589737
553642
5019.02
6542.85
28732.5
60912.9
96761.5
133992
170275
204916
236728
266301
7513.22
41310
88074.7
133896
175010
211808
244200
273372
298511
322348
33102.4
97946.4
157072
209829
254153
291182
321584
347360
367736
387333
78311.2
167582
234165
289622
334032
369712
397677
420325
436712
452880
143650
246793
317202
372689
414769
447335
471762
490678
503028
515749
228835
332458
402167
455417
493579
521868
541978
556652
564871
573968
331862
423224
486964
535509
568414
591560
606797
616849
620890
626122
450115
517942
569904
610864
637146
654404
664438
669655
669763
670875
580136
615564
650094
680355
698504
709103
713866
714350
710773
708075
718335
714857
726838
743146
751727
755248
753890
748813
742287
733904
292852
315830
337093
356298
373664
389272
403287
415802
426952
436820
445498
453044
459509
464925
469305
472673
475016
476418
476863
476652
340750
354551
368439
381249
393279
404395
414666
424056
432622
440366
447330
453530
458994
463738
467770
471103
473700
475564
476499
476460
398479
403556
409945
415925
422024
427950
433778
439356
444707
449747
454483
458877
462926
466615
469920
472818
475206
476999
477786
477420
457898
455492
455285
455065
455581
456443
457812
459447
461386
463482
465721
468022
470351
472656
474877
476950
478718
480054
480453
479804
515351
506633
500730
495103
490666
486892
484096
481937
480518
479640
479296
479369
479809
480533
481456
482485
483433
484158
484164
483372
568739
554770
544087
533816
525154
517291
510791
505172
500629
496916
494045
491883
490373
489420
488928
488792
488835
488914
488634
487908
616672
598486
584086
569896
557787
546389
536640
527915
520506
514158
508895
504586
501171
498553
496641
495328
494474
493949
493513
493043
657936
636498
619632
602159
587387
573167
560753
549435
539530
530825
523352
517012
511758
507507
504189
501710
499995
498922
498459
498414
692943
668136
650493
630640
613706
597172
582387
568829
556737
545979
536563
528422
521514
515776
511166
507615
505118
503578
503183
503664
719946
693696
676038
655614
637365
619547
602933
587479
573379
560646
549318
539374
530799
523554
517627
512976
509676
507659
507347
508416
731898
707250
689086
669434
650671
632580
615417
599236
584262
570551
558188
547191
537583
529359
522555
517158
513324
511009
510819
512385
714365
699801
683087
665803
648800
632124
616074
600724
586328
572976
560791
549829
540153
531798
524837
519302
515406
513138
513244
515307
700666
688621
675334
660179
645267
630007
615116
600630
586880
573970
562067
551255
541633
533266
526261
520687
516802
514608
514934
517322
683429
674728
664397
651565
638589
624855
611272
597840
584949
572715
561336
550917
541582
533421
526563
521116
517324
515279
515846
518417
663956
657958
650319
639748
628844
616841
604768
592602
580783
569439
558794
548974
540120
532349
525780
520594
516892
515218
515074
518567
642866
639349
634159
625764
616856
606608
596101
585306
574689
564386
554643
545594
537400
530176
524084
519233
515925
514238
514903
517398
620627
619250
616239
609916
602932
594449
585552
576209
566897
557760
549052
540916
533521
526984
521468
517076
514094
512527
513133
515475
597694
598169
597091
592683
587501
580736
573438
565580
557637
549753
542185
535077
528599
522864
518028
514177
511564
510198
510721
512731
574308
576342
576948
574292
570792
565688
559969
553618
547089
540528
534184
528200
522737
517905
513841
510614
508431
507276
507688
509303
550593
553936
556009
554949
553018
549510
545343
540505
535424
530239
525188
520406
516045
512202
508992
506467
504775
503884
504178
505342
526547
530990
534345
534749
534296
532334
529702
526389
522790
519031
515335
511825
508638
505859
503579
501828
500694
500118
500319
501034
502082
507470
511973
513748
514717
514278
513184
511421
509343
507064
504780
502604
500654
499003
497717
496807
496298
496104
496268
496571
477018
483264
488838
491948
494332
495433
495913
495752
495254
494515
493707
492924
492267
491796
491555
491538
491716
491976
492184
492153
451137
458234
464878
469358
473208
475918
478050
479572
480735
481614
482348
483015
483697
484442
485278
486188
487100
487878
488233
487977
424139
432185
439996
445969
451417
455872
459788
463117
466054
468647
471001
473176
475235
477215
479135
480974
482637
483975
484580
484238
395805
405029
414212
421902
429159
435558
441441
446737
451582
455996
460051
463784
467242
470454
473433
476164
478551
480446
481384
481098
365829
376632
387548
397309
406695
415322
423414
430878
437794
444151
449992
455331
460200
464618
468596
472129
475144
477517
478818
478723
334416
347377
360518
372794
384685
395850
406397
416218
425342
433736
441414
448377
454637
460205
465089
469293
472774
475459
477034
477178
301673
317650
333721
349090
363947
377997
391260
403619
415070
425571
435122
443711
451337
457997
463682
468388
472081
474759
476279
476555
269839
289671
309279
328129
346220
363292
379326
394207
407927
420449
431773
441887
450780
458437
464816
469888
473575
475912
476832
476732
523151
540204
572768
609286
646880
680071
706549
724689
734669
733428
495099
511166
541797
577161
615117
650477
680891
703673
718589
721849
469809
485068
513702
547038
583526
618390
649683
675249
694745
706222
446623
461385
488531
520270
555619
590104
621779
648605
669596
685434
424863
439200
464942
494955
528769
562344
593899
621883
644219
663276
404405
418471
443112
471656
504016
536495
567332
595533
618229
639397
384844
398682
422349
449524
480447
511774
541776
569936
592669
614863
366085
379734
402579
428532
458087
488186
517144
544864
567388
590010
347940
361390
383484
408310
436569
465447
493330
520395
542549
565114
330351
343563
364941
388696
415697
443326
470082
496313
518006
540238
313272
326163
346790
369470
395221
421577
447183
472458
493612
515328
296737
309171
328940
350465
374906
399925
424337
448564
469125
490226
280862
292623
311300
331482
354471
378048
401205
424312
444241
464682
265872
276605
293797
312322
333621
355597
377408
399336
418613
438397
252229
261309
276289
292616
311857
332026
352399
373125
391778
410973
240590
246825
258525
271975
288704
306834
325686
345225
363338
382075
232273
233399
239766
249247
262935
278880
296273
314807
332635
351212
228143
219831
218777
223499
233846
247610
263766
281630
299584
318426
231719
204315
191598
190627
198119
210539
226393
244529
263511
283455
233158
175424
155667
149921
156209
168569
185449
205149
226346
248464
)
;

boundaryField
{
    left
    {
        type            calculated;
        value           nonuniform List<scalar> 
30
(
518661
490707
465497
442349
420642
400248
380791
362187
344261
326975
310299
294287
279075
264920
252317
242136
236074
237052
253851
292275
2.01179e+06
1.35179e+06
1.07223e+06
915803
814549
736643
676441
626713
585591
549318
)
;
    }
    right
    {
        type            calculated;
        value           nonuniform List<scalar> 
30
(
476556
476460
477368
479723
483274
487818
492976
498388
503683
508500
512492
515483
517518
518625
518620
517579
515669
512897
509436
505436
501087
496587
492138
487939
484189
481053
478697
477176
476578
476622
)
;
    }
    down
    {
        type            calculated;
        value           nonuniform List<scalar> 
30
(
4081.48
2645.81
21069.5
52649.2
89107.3
127240
164503
200035
232634
262837
290031
313730
335500
355077
372739
388567
402756
415405
426662
436612
445355
452951
459453
464897
469294
472670
475014
476414
476861
476704
)
;
    }
    up
    {
        type            calculated;
        value           nonuniform List<scalar> 
30
(
225995
173356
155033
149365
155527
167724
184488
204127
225296
247436
268849
288782
308510
327461
345657
362819
378938
393893
407680
420260
431633
441789
450718
458403
464803
469888
473580
475914
476829
476764
)
;
    }
    hole
    {
        type            calculated;
        value           nonuniform List<scalar> 
20
(
855535
1.00283e+06
1.14655e+06
1.28387e+06
1.41568e+06
1.53772e+06
1.64308e+06
1.74434e+06
1.82178e+06
1.91107e+06
3010.57
3011.6
16173.3
56862
120472
206299
311427
432806
566567
708864
)
;
    }
    frontAndBack
    {
        type            empty;
    }
}


// ************************************************************************* //
