/*--------------------------------*- C++ -*----------------------------------*\
  =========                 |
  \\      /  F ield         | OpenFOAM: The Open Source CFD Toolbox
   \\    /   O peration     | Website:  https://openfoam.org
    \\  /    A nd           | Version:  9
     \\/     M anipulation  |
\*---------------------------------------------------------------------------*/
FoamFile
{
    format      ascii;
    class       volSymmTensorField;
    location    "5";
    object      sigma;
}
// * * * * * * * * * * * * * * * * * * * * * * * * * * * * * * * * * * * * * //

dimensions      [1 -1 -2 0 0 0 0];

internalField   nonuniform List<symmTensor> 
1000
(
(614708 -420688 -2.24548e-10 357077 -3.07027e-10 85624.2)
(721180 -324447 -1.84943e-10 195032 -2.38909e-10 84218.6)
(774763 -248529 -1.46705e-10 118653 -1.86285e-10 84123.6)
(797468 -191259 -1.15805e-10 58673.1 -1.44362e-10 80906.9)
(805786 -145204 -8.68748e-11 23607.7 -1.09203e-10 77389.1)
(802453 -109193 -6.56556e-11 -2545.62 -8.26877e-11 74313.7)
(794384 -79930.1 -4.90769e-11 -19386.4 -6.21006e-11 72122.8)
(781916 -56662.7 -3.67452e-11 -31560.2 -4.63814e-11 70238.2)
(769060 -37323.6 -2.68031e-11 -39561.1 -3.37703e-11 68823.7)
(752034 -21233.1 -1.94821e-11 -47232.9 -2.36947e-11 67199.4)
(779484 -467739 -2.48217e-10 360246 -3.38156e-10 101288)
(849808 -334887 -1.85415e-10 205607 -2.45726e-10 97272.9)
(878579 -238982 -1.31588e-10 136053 -1.77943e-10 94370.3)
(881349 -170063 -8.98261e-11 79160.7 -1.25639e-10 88048.3)
(874310 -117512 -5.90228e-11 46804.7 -8.77968e-11 84209.4)
(858386 -78206.4 -3.75613e-11 21741.8 -6.0292e-11 80695.1)
(840045 -47516 -2.15735e-11 5660.24 -3.97155e-11 78111.7)
(819083 -24185.2 -1.04571e-11 -7040.7 -2.46108e-11 75736.3)
(798308 -5277.52 -1.93144e-12 -14763.7 -1.29844e-11 73957.8)
(775357 9856.94 3.85521e-12 -25228.8 -3.71899e-12 71661)
(956986 -497462 -2.6299e-10 346942 -3.57292e-10 117051)
(980811 -334474 -1.74066e-10 211397 -2.41067e-10 107956)
(979158 -222449 -1.06114e-10 155031 -1.60719e-10 102081)
(958601 -144389 -6.18856e-11 104979 -1.05131e-10 95616.8)
(934174 -87249.3 -3.06311e-11 77582.8 -6.62938e-11 91622.6)
(904443 -46072.2 -9.95623e-12 54953 -3.89975e-11 87764.2)
(875262 -15141.3 4.64261e-12 40502.6 -1.9364e-11 84857.1)
(845406 7451.6 1.40065e-11 27936.2 -5.5122e-12 82046.2)
(817400 25012.5 2.06469e-11 20531.9 4.57775e-12 79930.5)
(788254 39288.6 2.49511e-11 8398 1.29455e-11 77095.9)
(1.14142e+06 -505647 -2.54225e-10 319800 -3.53062e-10 127707)
(1.11125e+06 -321893 -1.47154e-10 213067 -2.21944e-10 114843)
(1.075e+06 -199173 -7.7098e-11 175368 -1.39597e-10 109828)
(1.02833e+06 -115494 -3.29145e-11 135401 -8.36584e-11 103456)
(984841 -56270.2 -2.96546e-12 114760 -4.58292e-11 99422.2)
(940458 -14978.5 1.57316e-11 95465 -2.00768e-11 95270.6)
(900043 14877.8 2.80732e-11 82884.3 -2.3156e-12 92033.1)
(861494 35900.1 3.51975e-11 70601.6 9.73242e-12 88804.6)
(826513 51398.7 3.95314e-11 62993.5 1.78951e-11 86286.6)
(792241 64021.5 4.20995e-11 49954.7 2.489e-11 83028.9)
(1.32454e+06 -488445 -2.17805e-10 282107 -3.21918e-10 132148)
(1.23734e+06 -295399 -1.1231e-10 211478 -1.93624e-10 121280)
(1.16389e+06 -168803 -4.465e-11 197000 -1.14524e-10 117495)
(1.08927e+06 -84002.8 -3.50421e-12 169830 -6.1673e-11 111416)
(1.02569e+06 -25954.3 2.30005e-11 157428 -2.7263e-11 107439)
(966296 13153.1 3.82566e-11 142142 -4.68001e-12 103033)
(914794 40269.9 4.73278e-11 131553 1.0107e-11 99465.2)
(867946 58579.9 5.21926e-11 119499 2.01007e-11 95552.7)
(826698 71178.4 5.74624e-11 111190 2.85923e-11 91064.3)
(787949 81453 6.04579e-11 97254.8 3.56426e-11 86367.3)
(1.5022e+06 -444915 -1.65924e-10 239777 -2.73308e-10 136079)
(1.35727e+06 -253897 -6.9035e-11 209534 -1.55867e-10 127574)
(1.24523e+06 -130921 -8.54694e-12 221667 -8.54731e-11 125286)
(1.14131e+06 -50531.9 2.59589e-11 208761 -3.96486e-11 119547)
(1.05703e+06 2370.16 4.64756e-11 205114 -1.13907e-11 115610)
(982722 36557.6 5.65961e-11 193681 6.24063e-12 110895)
(920600 59111.5 6.45831e-11 184598 1.9337e-11 105575)
(866172 73540.2 6.99362e-11 172344 2.90936e-11 99536.4)
(819498 82579.5 7.25389e-11 162693 3.52058e-11 94397.2)
(777098 89963.5 7.34085e-11 147751 4.03248e-11 89250.6)
(1.66327e+06 -372280 -9.83555e-11 197465 -2.06873e-10 139590)
(1.46534e+06 -194298 -1.61555e-11 210415 -1.0748e-10 133897)
(1.31386e+06 -84413.9 3.12101e-11 251657 -5.24088e-11 133259)
(1.1806e+06 -15452.6 5.47025e-11 252928 -1.82388e-11 127748)
(1.07652e+06 27382.6 6.62723e-11 256961 8.15657e-13 123688)
(988720 53437.4 7.33103e-11 248067 1.44882e-11 116906)
(917543 69535.8 7.96711e-11 239215 2.52465e-11 109535)
(857018 79038.9 8.15009e-11 225851 3.17003e-11 102788)
(806231 84106 8.10984e-11 214080 3.51759e-11 97061.5)
(761145 88326 7.96558e-11 197837 3.81886e-11 91533)
(1.81853e+06 -270326 -1.30486e-11 167962 -1.23031e-10 144890)
(1.56272e+06 -113578 4.86929e-11 225796 -4.77095e-11 141871)
(1.36974e+06 -28602.8 7.52787e-11 295977 -1.59214e-11 142594)
(1.20808e+06 19235.1 8.17419e-11 306922 7.86011e-13 136637)
(1.08603e+06 46395.6 8.25924e-11 314091 8.76164e-12 131219)
(987154 61327.5 8.70694e-11 304166 1.86722e-11 121102)
(909123 69761.4 8.7929e-11 292877 2.43133e-11 112827)
(844377 74019.3 8.5847e-11 276800 2.72875e-11 105427)
(790949 75413.3 8.25268e-11 261922 2.83508e-11 99181.1)
(744252 76764.5 7.89422e-11 244026 2.94659e-11 93349.2)
(1.94783e+06 -126425 9.53324e-11 167004 -1.69514e-11 153200)
(1.62864e+06 -11517.6 1.23163e-10 276088 1.94913e-11 153128)
(1.39261e+06 28992.8 1.16305e-10 365146 1.61031e-11 153551)
(1.20901e+06 44202.5 9.91845e-11 373081 9.75137e-12 145656)
(1.07736e+06 51814.8 9.50016e-11 373199 1.12063e-11 134945)
(974041 54433.9 9.03738e-11 356186 1.2979e-11 123763)
(893994 55738.2 8.56804e-11 338873 1.39478e-11 114778)
(828220 55754.9 8.0174e-11 318405 1.41588e-11 106911)
(774234 54805 7.47618e-11 299827 1.37203e-11 100310)
(727153 54333.2 6.97369e-11 280232 1.36443e-11 94297.1)
(2.11662e+06 112957 2.72231e-10 290921 1.41178e-10 181084)
(1.65851e+06 126184 2.17402e-10 432984 9.49377e-11 176982)
(1.39012e+06 83302.9 1.52792e-10 479374 3.86363e-11 169073)
(1.20088e+06 54023.1 1.13907e-10 457186 1.14147e-11 153216)
(1.06873e+06 42622.1 9.78973e-11 430947 3.87088e-12 138455)
(965959 36281.2 8.52607e-11 399098 -7.51355e-14 126121)
(886463 34032.1 7.6716e-11 371525 -1.28751e-12 116378)
(821027 32729.2 6.95358e-11 345662 -1.85463e-12 108120)
(767116 31706.8 6.35231e-11 323527 -2.27119e-12 101255)
(719852 31016.1 5.81921e-11 302908 -2.47477e-12 95144.2)
(-2826.2 991.687 -3.40189e-11 -1596.71 -1.886e-11 2382.73)
(2226.88 -3517.78 -3.64134e-11 307.786 -2.19083e-11 2976.8)
(22594.2 -11071 -4.0732e-11 -1131.92 -2.68861e-11 4759.32)
(55203.1 -17117.7 -4.36228e-11 -2322.09 -3.08198e-11 7746.23)
(93099.5 -20848.3 -4.47641e-11 -2941.91 -3.3194e-11 11301.9)
(132876 -22972.2 -4.47672e-11 -3244.23 -3.44899e-11 15074.7)
(171847 -23806 -4.39373e-11 -3295.73 -3.49278e-11 18799.7)
(209089 -23872.7 -4.26503e-11 -3158.86 -3.48598e-11 22379.4)
(243233 -23241.1 -4.10392e-11 -3090.9 -3.43314e-11 25662.5)
(275067 -22752.9 -3.95279e-11 -2561.54 -3.39156e-11 28758.1)
(3708.3 -3781.32 -3.66168e-11 -249.069 -2.20698e-11 3074.16)
(29993.4 -20489.6 -4.43095e-11 12637.4 -3.34559e-11 6445.43)
(68157.2 -38945.8 -5.46312e-11 13191.9 -4.57353e-11 9999.7)
(108654 -53053.7 -6.28144e-11 9209.28 -5.49998e-11 13465.6)
(149372 -61735.2 -6.75116e-11 5379.47 -6.06245e-11 17007.4)
(188073 -66605 -6.97955e-11 1912.94 -6.37045e-11 20413.8)
(223965 -68366.3 -7.00741e-11 -751.024 -6.47227e-11 23636.8)
(257184 -68255.9 -6.91365e-11 -2657.75 -6.45081e-11 26676.2)
(286476 -66376.5 -6.71681e-11 -4294.55 -6.31237e-11 29373.9)
(314265 -64878.6 -6.52625e-11 -4447.35 -6.20292e-11 32037.8)
(11483.6 -18622.3 -4.37708e-11 12639.1 -3.22602e-11 4686.05)
(57498.5 -51172.7 -6.05887e-11 27232.8 -5.42514e-11 9953.33)
(110207 -74034.8 -7.36016e-11 25249.8 -6.93925e-11 14673.2)
(158628 -89355.3 -8.31846e-11 15482.3 -7.93319e-11 18447.2)
(203184 -97803.7 -8.84165e-11 6432.87 -8.46857e-11 21960.2)
(242429 -101784 -9.08074e-11 -1444.01 -8.708e-11 25089)
(276890 -102280 -9.08496e-11 -7424.47 -8.7188e-11 27931.7)
(307604 -100660 -8.94167e-11 -11741.2 -8.59203e-11 30558.9)
(333285 -97110.2 -8.67654e-11 -14998.2 -8.3394e-11 32800)
(358150 -94126 -8.41416e-11 -15945 -8.12955e-11 35134.7)
(27562.8 -41885.3 -5.33737e-11 42251.2 -4.84072e-11 8304.25)
(94703.9 -87950.9 -7.97345e-11 46114.4 -7.91918e-11 14670.1)
(159422 -111990 -9.39893e-11 38301.5 -9.49707e-11 20086.6)
(214687 -125473 -1.03118e-10 22432.9 -1.03536e-10 24065.4)
(262485 -131066 -1.07188e-10 8475.52 -1.06866e-10 27537)
(302284 -132117 -1.08355e-10 -3618.76 -1.07209e-10 30420)
(335518 -129882 -1.07223e-10 -12917.3 -1.05423e-10 32913.4)
(364027 -125730 -1.04657e-10 -19797.3 -1.02412e-10 35153.5)
(386335 -119950 -1.01009e-10 -24996.6 -9.83613e-11 36940.6)
(408565 -115063 -9.74446e-11 -27081.9 -9.49713e-11 38951)
(55003.1 -74747.2 -6.6535e-11 85600 -7.1232e-11 13984.4)
(144629 -127988 -1.00212e-10 66887.8 -1.06318e-10 20724.8)
(219361 -149596 -1.14228e-10 48475.4 -1.20224e-10 26311)
(279354 -158586 -1.21551e-10 24829.1 -1.25606e-10 30184.8)
(328502 -159194 -1.23204e-10 5737.01 -1.25485e-10 33433.1)
(367508 -155693 -1.22116e-10 -10278 -1.22698e-10 35976.8)
(398619 -149556 -1.1902e-10 -22414.8 -1.18244e-10 38080.7)
(424314 -142033 -1.14732e-10 -31370 -1.12939e-10 39919.4)
(442957 -133577 -1.09741e-10 -38051.6 -1.07074e-10 41263.2)
(462319 -126384 -1.04933e-10 -40925.7 -1.0213e-10 42956.7)
(97422.8 -117932 -8.41152e-11 139324 -1.01143e-10 21810.8)
(208918 -168582 -1.20154e-10 90121.9 -1.3382e-10 28339.7)
(291607 -183424 -1.31709e-10 58154.8 -1.42895e-10 33707.3)
(353972 -185622 -1.35968e-10 25935.2 -1.43541e-10 37207.5)
(402369 -179904 -1.34386e-10 1959.98 -1.39081e-10 40061.1)
(438878 -171041 -1.30501e-10 -17433.3 -1.32637e-10 42149.9)
(466582 -160510 -1.25083e-10 -31840.8 -1.25199e-10 43788.8)
(488456 -149322 -1.18843e-10 -42368.7 -1.17415e-10 45170.2)
(502798 -138111 -1.12432e-10 -50207.6 -1.09692e-10 46035.1)
(518673 -128495 -1.06285e-10 -53598.7 -1.03122e-10 47374)
(157791 -170969 -1.06695e-10 197145 -1.37692e-10 31592.4)
(287344 -208117 -1.38793e-10 114196 -1.60586e-10 37382.4)
(374935 -211467 -1.45189e-10 67375.8 -1.6164e-10 42176.6)
(436814 -204575 -1.45077e-10 26229.3 -1.5601e-10 45020.5)
(482137 -191471 -1.39615e-10 -2293.63 -1.46513e-10 47290.7)
(514236 -176809 -1.32644e-10 -24552 -1.36134e-10 48784)
(537124 -161763 -1.24781e-10 -40625.2 -1.25648e-10 49869.7)
(553996 -146972 -1.16592e-10 -52233.5 -1.1544e-10 50717.7)
(563386 -133194 -1.08832e-10 -60784.2 -1.05995e-10 51074)
(574930 -121236 -1.01393e-10 -64477.7 -9.78606e-11 51993.2)
(238810 -231887 -1.33854e-10 253127 -1.79429e-10 43150.7)
(379292 -245047 -1.55312e-10 138197 -1.8556e-10 47736.1)
(467474 -232388 -1.53651e-10 77620.3 -1.75595e-10 51663.3)
(525529 -214363 -1.4787e-10 28290.2 -1.62345e-10 53604)
(565365 -193153 -1.38036e-10 -4033.75 -1.47349e-10 55122.3)
(591188 -172620 -1.27896e-10 -28517.8 -1.33006e-10 55890.5)
(607920 -153289 -1.17706e-10 -45760.4 -1.1964e-10 56330.8)
(618710 -135296 -1.0779e-10 -57990.6 -1.0729e-10 56573.7)
(622593 -119398 -9.89713e-11 -67161 -9.6427e-11 56371.6)
(628962 -105410 -9.04289e-11 -70902.5 -8.6945e-11 56807.2)
(342072 -297117 -1.64202e-10 301292 -2.23838e-10 56210)
(483482 -277847 -1.69041e-10 160472 -2.07689e-10 59164.4)
(566708 -245572 -1.56725e-10 89323.9 -1.84367e-10 61964.6)
(617130 -214882 -1.4416e-10 33551 -1.62514e-10 62782)
(648982 -185181 -1.29609e-10 -1376.58 -1.41792e-10 63403.3)
(666682 -158989 -1.1639e-10 -27376.8 -1.23646e-10 63322.1)
(676053 -135812 -1.01806e-10 -45128.5 -1.06039e-10 62099.6)
(679658 -115295 -8.88543e-11 -57828.1 -9.07201e-11 60908.4)
(677794 -97822 -7.85055e-11 -67176.5 -7.82598e-11 59839.5)
(677934 -82196.7 -6.88919e-11 -71991.8 -6.7372e-11 59435.7)
(467863 -361925 -1.9544e-10 337023 -2.67648e-10 70482.6)
(598173 -304902 -1.79207e-10 179802 -2.25873e-10 71419.6)
(669951 -250912 -1.54354e-10 103008 -1.879e-10 72863.5)
(708566 -206803 -1.34251e-10 43475.7 -1.57003e-10 72368.4)
(729794 -168659 -1.12991e-10 7513.87 -1.29258e-10 71181.9)
(737613 -137229 -9.30046e-11 -19018.3 -1.04784e-10 68548.7)
(738455 -110796 -7.69101e-11 -36793.7 -8.52069e-11 66640.4)
(734185 -88496.6 -6.39923e-11 -49222.2 -6.94071e-11 65117.1)
(726572 -70416.9 -5.41247e-11 -59339.7 -5.69421e-11 63670.2)
(719605 -54737.5 -4.54819e-11 -62920.6 -4.67599e-11 63074.3)
(303528 -21109.6 -3.74823e-11 -2561.23 -3.27244e-11 31499.3)
(328578 -18836.4 -3.50664e-11 -1991.95 -3.11324e-11 33961.9)
(351539 -16860.3 -3.29386e-11 -1585.67 -2.9743e-11 36209.5)
(372159 -15066.5 -3.10254e-11 -1284.84 -2.84811e-11 38223.2)
(390773 -13403.5 -2.92668e-11 -987.613 -2.7313e-11 40043.3)
(407433 -11914.4 -2.77001e-11 -770.456 -2.62664e-11 41668.6)
(422374 -10549 -2.6274e-11 -562.963 -2.53079e-11 43127.4)
(435682 -9317.79 -2.49975e-11 -403.043 -2.44432e-11 44425)
(447525 -8188.42 -2.38412e-11 -261.387 -2.36516e-11 45580)
(457987 -7154.06 -2.27975e-11 -151.269 -2.2927e-11 46599.4)
(467177 -6191.87 -2.18486e-11 -61.5393 -2.22545e-11 47494.7)
(475156 -5287.68 -2.09827e-11 4.29783 -2.16244e-11 48271.8)
(481983 -4424.11 -2.01861e-11 48.6848 -2.10243e-11 48936.3)
(487690 -3588.34 -1.94501e-11 71.303 -2.04462e-11 49491.8)
(492295 -2769.54 -1.87669e-11 71.7278 -1.98823e-11 49939.6)
(495823 -1966.52 -1.81351e-11 53.0385 -1.93323e-11 50282.7)
(498261 -1191.28 -1.75623e-11 14.7043 -1.88036e-11 50519.7)
(499715 -487.815 -1.70678e-11 -14.3914 -1.83264e-11 50662.4)
(500186 51.68 -1.6707e-11 -11.3119 -1.79627e-11 50712.1)
(500138 178.101 -1.6586e-11 260.213 -1.78836e-11 50729.3)
(336632 -60416.6 -6.18391e-11 -5737.66 -5.89397e-11 34118.6)
(355087 -54383.3 -5.73282e-11 -5594.94 -5.48361e-11 35946.2)
(372881 -49068.8 -5.32466e-11 -5121.33 -5.12236e-11 37730.1)
(388764 -44110.6 -4.94944e-11 -4879.65 -4.78515e-11 39310.3)
(403492 -39464.4 -4.59487e-11 -4427.07 -4.46964e-11 40793.3)
(416739 -35265.8 -4.27642e-11 -4129.64 -4.18435e-11 42119.1)
(428843 -31379.5 -3.98091e-11 -3770.29 -3.92047e-11 43337.5)
(439719 -27849.9 -3.7138e-11 -3498.56 -3.68075e-11 44428.8)
(449543 -24593.1 -3.46789e-11 -3236.69 -3.45964e-11 45416.3)
(458321 -21596.3 -3.24316e-11 -3034.3 -3.2562e-11 46296.8)
(466149 -18802.3 -3.03511e-11 -2865.78 -3.06659e-11 47082.2)
(473060 -16178.7 -2.84191e-11 -2743.02 -2.88859e-11 47774.8)
(479109 -13682 -2.66038e-11 -2653.61 -2.71934e-11 48381.3)
(484332 -11282.5 -2.48831e-11 -2591.17 -2.55681e-11 48905.6)
(488756 -8956.57 -2.32386e-11 -2536.7 -2.39942e-11 49352.3)
(492424 -6703.3 -2.16623e-11 -2453.02 -2.24723e-11 49728.1)
(495334 -4549.46 -2.01637e-11 -2290.76 -2.10211e-11 50036.5)
(497574 -2589.8 -1.87794e-11 -1923.03 -1.97059e-11 50294.8)
(499049 -965.436 -1.75785e-11 -1184.59 -1.86259e-11 50505.5)
(499999 -103.874 -1.67548e-11 358.013 -1.80752e-11 50721)
(375074 -87440 -7.95586e-11 -17652.7 -7.6722e-11 36679.5)
(386834 -79219.5 -7.38467e-11 -17231.5 -7.11768e-11 37904)
(399497 -71844.2 -6.84645e-11 -15680.2 -6.62184e-11 39294.7)
(410445 -64997.5 -6.35631e-11 -14666.7 -6.16094e-11 40475.8)
(421146 -58474.1 -5.88082e-11 -13219.6 -5.72267e-11 41663.6)
(430759 -52553 -5.45264e-11 -12106 -5.32447e-11 42717)
(439826 -47012.7 -5.04969e-11 -10928.1 -4.95216e-11 43720)
(448051 -41950.6 -4.68345e-11 -9960.36 -4.61178e-11 44622.3)
(455652 -37250.6 -4.34365e-11 -9071.67 -4.29576e-11 45456.1)
(462542 -32911.5 -4.03186e-11 -8346.08 -4.00383e-11 46206.2)
(468814 -28861.1 -3.7425e-11 -7740.48 -3.73123e-11 46885.7)
(474461 -25064.7 -3.47364e-11 -7271.55 -3.47561e-11 47492.9)
(479530 -21470.1 -3.22148e-11 -6915.18 -3.2335e-11 48034.4)
(484041 -18041.3 -2.9832e-11 -6651.84 -3.00248e-11 48514.1)
(488017 -14745.9 -2.75613e-11 -6440.63 -2.7805e-11 48937.4)
(491494 -11572.1 -2.53821e-11 -6205.42 -2.56687e-11 49313.9)
(494446 -8527.59 -2.32831e-11 -5835.77 -2.36237e-11 49649.2)
(496935 -5660.26 -2.12567e-11 -5109.97 -2.1706e-11 49965.9)
(498740 -3059 -1.93186e-11 -3713.69 -1.99821e-11 50266.1)
(500069 -841.688 -1.74502e-11 -1099.22 -1.85415e-11 50610.7)
(420058 -106502 -9.19516e-11 -29379.1 -8.9145e-11 39945)
(424681 -97087 -8.57553e-11 -29121.8 -8.28166e-11 40482.3)
(432025 -88402.3 -7.95967e-11 -26745.8 -7.7012e-11 41436.5)
(437649 -80481.7 -7.41327e-11 -25311.2 -7.17072e-11 42147.9)
(444010 -72771.5 -6.86483e-11 -23060 -6.65572e-11 42990.5)
(449603 -65772.9 -6.37215e-11 -21302.5 -6.18775e-11 43716.3)
(455289 -59142.9 -5.90045e-11 -19406.4 -5.74474e-11 44458.7)
(460511 -53056.5 -5.46963e-11 -17808.8 -5.33778e-11 45129.4)
(465562 -47366.8 -5.06642e-11 -16322.4 -4.95732e-11 45772.1)
(470250 -42093.8 -4.69479e-11 -15075 -4.60442e-11 46358.6)
(474672 -37159.7 -4.34845e-11 -14010.7 -4.27401e-11 46902.7)
(478770 -32532.8 -4.02612e-11 -13154.6 -3.96389e-11 47397.5)
(482577 -28157.9 -3.72361e-11 -12474.6 -3.67044e-11 47849.1)
(486087 -23994.4 -3.43799e-11 -11945.5 -3.39097e-11 48258.8)
(489300 -20002 -3.1657e-11 -11510.3 -3.12288e-11 48631.7)
(492232 -16150.1 -2.90341e-11 -11074.5 -2.86431e-11 48976.5)
(494818 -12418.9 -2.64785e-11 -10504.3 -2.61419e-11 49297.6)
(497103 -8783.77 -2.39347e-11 -9548.88 -2.37143e-11 49618.3)
(498775 -5276.32 -2.13823e-11 -7883.1 -2.13879e-11 49933.5)
(500100 -1642.85 -1.85587e-11 -4924.99 -1.90034e-11 50315.2)
(468364 -116363 -9.87201e-11 -43334.8 -9.5338e-11 43431.5)
(465558 -106911 -9.27957e-11 -43296.1 -8.90037e-11 43240.4)
(467680 -97689.7 -8.63025e-11 -39793 -8.28775e-11 43784.4)
(467857 -89572.1 -8.08275e-11 -37875.6 -7.74666e-11 44012)
(469864 -81415.2 -7.50612e-11 -34661.2 -7.20494e-11 44514.4)
(471331 -74043.5 -6.9919e-11 -32121.1 -6.71475e-11 44907.4)
(473538 -66953.2 -6.48949e-11 -29355.8 -6.24367e-11 45386.3)
(475624 -60409.1 -6.02821e-11 -26970.7 -5.80851e-11 45820.1)
(477980 -54241.3 -5.59228e-11 -24737.2 -5.39823e-11 46265.4)
(480305 -48493.7 -5.18825e-11 -22823 -5.01555e-11 46680)
(482698 -43093.2 -4.81019e-11 -21171.3 -4.65561e-11 47078.3)
(485055 -38016.1 -4.4575e-11 -19815.3 -4.3168e-11 47447.9)
(487388 -33209.3 -4.12619e-11 -18722.1 -3.99564e-11 47793.1)
(489664 -28628.8 -3.81319e-11 -17864.9 -3.68922e-11 48113)
(491863 -24225.5 -3.51447e-11 -17182.5 -3.39434e-11 48410.8)
(493975 -19944.7 -3.22499e-11 -16575.1 -3.10758e-11 48693.5)
(495912 -15736.7 -2.93987e-11 -15906.1 -2.82589e-11 48963.6)
(497700 -11497 -2.64848e-11 -14933.3 -2.54273e-11 49242.9)
(499005 -7222.08 -2.34717e-11 -13367.8 -2.25847e-11 49521.4)
(500109 -2346.98 -1.99059e-11 -10661.3 -1.93631e-11 49872.4)
(519143 -117531 -9.96618e-11 -55977.5 -9.57152e-11 47324.2)
(508591 -109265 -9.48889e-11 -56734 -9.01848e-11 46320.6)
(505601 -100248 -8.85515e-11 -52251.8 -8.42312e-11 46447.6)
(500222 -92733.9 -8.36229e-11 -50119.6 -7.92468e-11 46154.3)
(497868 -84795.7 -7.80318e-11 -46157.8 -7.40047e-11 46294.1)
(495146 -77649.9 -7.30814e-11 -42988.8 -6.92797e-11 46331.8)
(493798 -70649.6 -6.81274e-11 -39504.2 -6.46544e-11 46524.1)
(492661 -64134.8 -6.35367e-11 -36423 -6.03462e-11 46701.9)
(492205 -57937.3 -5.91514e-11 -33510.5 -5.62458e-11 46929.7)
(492042 -52116.3 -5.50515e-11 -30957.7 -5.23899e-11 47155.2)
(492259 -46614.6 -5.11912e-11 -28722.2 -4.87409e-11 47390.3)
(492717 -41414.2 -4.75718e-11 -26849.1 -4.52862e-11 47618.3)
(493404 -36471.2 -4.41603e-11 -25317.7 -4.19968e-11 47840.3)
(494261 -31739.9 -4.09293e-11 -24111 -3.88426e-11 48052.1)
(495248 -27166.4 -3.78369e-11 -23179.5 -3.57883e-11 48254.1)
(496334 -22675.1 -3.48244e-11 -22439.5 -3.27854e-11 48450.2)
(497423 -18194 -3.18296e-11 -21775.8 -2.97875e-11 48640.9)
(498517 -13549 -2.87118e-11 -20991.1 -2.66824e-11 48842.3)
(499333 -8717.36 -2.54299e-11 -19861.1 -2.34592e-11 49045.1)
(500084 -2895.03 -2.1395e-11 -17931.4 -1.95875e-11 49310.6)
(569976 -110002 -9.47424e-11 -66555.1 -9.0296e-11 51448.7)
(551710 -104243 -9.20675e-11 -68790.8 -8.64429e-11 49572.8)
(543978 -96204.2 -8.64268e-11 -63714.5 -8.11723e-11 49282.9)
(533207 -90055.7 -8.2561e-11 -61610.3 -7.71205e-11 48459.8)
(526638 -83048.4 -7.76405e-11 -57205.7 -7.25249e-11 48221.9)
(519870 -76700.6 -7.32568e-11 -53498.9 -6.83587e-11 47906.6)
(515012 -70328.9 -6.87284e-11 -49396.7 -6.41783e-11 47804.7)
(510708 -64285.4 -6.44436e-11 -45641.5 -6.02097e-11 47726.7)
(507435 -58457.8 -6.02892e-11 -42071.3 -5.6379e-11 47731.8)
(504769 -52910.5 -5.63527e-11 -38884.2 -5.27272e-11 47763.5)
(502760 -47621.8 -5.26155e-11 -36071.7 -4.92394e-11 47827.6)
(501247 -42583.5 -4.90884e-11 -33688.6 -4.59097e-11 47904.5)
(500193 -37766 -4.57516e-11 -31732.3 -4.27182e-11 47991)
(499519 -33126.4 -4.25822e-11 -30199.7 -3.96368e-11 48080.1)
(499170 -28610.3 -3.95409e-11 -29059.9 -3.66295e-11 48169.5)
(499094 -24127.4 -3.65642e-11 -28257.5 -3.36368e-11 48259)
(499209 -19590 -3.35859e-11 -27711.9 -3.06019e-11 48347.7)
(499481 -14773.1 -3.0445e-11 -27293.3 -2.73766e-11 48443.8)
(499735 -9645.47 -2.71021e-11 -26850.8 -2.3943e-11 48542.6)
(500041 -3246.63 -2.28982e-11 -26081.2 -1.96628e-11 48681.4)
(618796 -94332.5 -8.40816e-11 -73115.4 -7.94987e-11 55751.5)
(593358 -92368.4 -8.44106e-11 -77496.2 -7.81729e-11 52994.2)
(581334 -86145.3 -8.01263e-11 -72740.2 -7.41274e-11 52254.1)
(565681 -81872.5 -7.76601e-11 -70852.4 -7.13455e-11 50931.6)
(555073 -76430.6 -7.39069e-11 -66630 -6.78093e-11 50280.4)
(544595 -71327 -7.04194e-11 -62760.2 -6.44929e-11 49611.9)
(536343 -66076.9 -6.66927e-11 -58456.4 -6.10798e-11 49191.2)
(529017 -60934.8 -6.30274e-11 -54313.8 -5.77331e-11 48846)
(522981 -55880.8 -5.93922e-11 -50292.9 -5.44392e-11 48614.5)
(517850 -50965 -5.58625e-11 -46589.7 -5.1229e-11 48444.4)
(513618 -46204.9 -5.24581e-11 -43253.2 -4.81131e-11 48331.3)
(510124 -41604.8 -4.92005e-11 -40366.7 -4.50937e-11 48253.1)
(507299 -37156.5 -4.6091e-11 -37964.5 -4.21643e-11 48201.1)
(505051 -32827.6 -4.31184e-11 -36076.9 -3.93032e-11 48164)
(503313 -28571.1 -4.02553e-11 -34706.4 -3.64791e-11 48135.8)
(502013 -24293.4 -3.74426e-11 -33842.8 -3.3629e-11 48111)
(501099 -19901.8 -3.46174e-11 -33451.8 -3.06919e-11 48088)
(500487 -15144 -3.16163e-11 -33491.1 -2.75e-11 48064.1)
(500159 -9987.05 -2.84074e-11 -33885 -2.40324e-11 48043.3)
(499976 -3392.83 -2.43168e-11 -34526.1 -1.95946e-11 48029.1)
(663925 -72055.1 -6.46897e-11 -74359.9 -6.15817e-11 58570.4)
(632078 -74571.6 -7.10873e-11 -81223.4 -6.51414e-11 56055.2)
(616094 -71448.8 -7.05236e-11 -78945.7 -6.40339e-11 55228.6)
(596520 -69421.7 -6.9707e-11 -77586.3 -6.27608e-11 53472.2)
(582054 -66198.2 -6.76054e-11 -74029.4 -6.07124e-11 52382.6)
(568383 -62644.7 -6.52066e-11 -70092.6 -5.84475e-11 51401)
(557001 -58770.9 -6.24475e-11 -65674 -5.597e-11 50678.1)
(546949 -54723.2 -5.95295e-11 -61243 -5.3372e-11 50085)
(538359 -50614.2 -5.65345e-11 -56899.4 -5.07265e-11 49625.8)
(530928 -46505.9 -5.35435e-11 -52835.5 -4.80724e-11 49256.3)
(524579 -42451.1 -5.06065e-11 -49138.6 -4.5444e-11 48962.3)
(519164 -38473 -4.77576e-11 -45908.2 -4.28544e-11 48721.4)
(514595 -34578.1 -4.50151e-11 -43205 -4.03079e-11 48520.6)
(510768 -30746.5 -4.23785e-11 -41087.9 -3.77899e-11 48345.8)
(507621 -26938.8 -3.9831e-11 -39593.5 -3.52737e-11 48188.4)
(505064 -23066 -3.73254e-11 -38761.1 -3.26991e-11 48037.6)
(503084 -19037.3 -3.48061e-11 -38608.2 -3.00041e-11 47891.4)
(501550 -14594.5 -3.21225e-11 -39189.5 -2.70155e-11 47735.2)
(500621 -9703.74 -2.92487e-11 -40506.3 -2.37102e-11 47584.3)
(499913 -3321.07 -2.55515e-11 -42680.2 -1.93859e-11 47401)
(701453 -43480.9 -4.13615e-11 -71664.8 -3.98495e-11 61187)
(669136 -48986.5 -4.96518e-11 -77192.5 -4.5577e-11 58781)
(648686 -50287.4 -5.35117e-11 -79664.9 -4.78769e-11 57422.5)
(626922 -50813.4 -5.70285e-11 -80129.2 -5.00071e-11 56271.1)
(608630 -50572.7 -5.74635e-11 -78737.4 -5.00501e-11 54694.3)
(591952 -49433.4 -5.68953e-11 -76000.9 -4.93913e-11 53313.6)
(577409 -47667.9 -5.5699e-11 -72280 -4.83249e-11 52217.8)
(564574 -45380 -5.40327e-11 -68064.9 -4.69123e-11 51327.4)
(553404 -42729.5 -5.20417e-11 -63625.8 -4.52555e-11 50616.7)
(543666 -39836 -4.98569e-11 -59255.7 -4.343e-11 50039.9)
(535238 -36796.1 -4.7572e-11 -55136.3 -4.14971e-11 49570.7)
(527954 -33678.7 -4.52637e-11 -51437.4 -3.95005e-11 49179.7)
(521703 -30525.3 -4.29808e-11 -48278.8 -3.74656e-11 48846.6)
(516359 -27345.2 -4.07506e-11 -45770.9 -3.53975e-11 48551.1)
(511852 -24123.1 -3.85801e-11 -43999.3 -3.32839e-11 48279.8)
(508070 -20789.5 -3.64444e-11 -43064.1 -3.10766e-11 48015.2)
(505041 -17267 -3.43054e-11 -43042.6 -2.87225e-11 47754.4)
(502584 -13317.4 -3.20424e-11 -44094.4 -2.60585e-11 47469.9)
(501048 -8910.19 -2.9637e-11 -46304.8 -2.30619e-11 47188.8)
(499823 -3064.75 -2.65428e-11 -50027.5 -1.90692e-11 46833.4)
(722663 -19952 -2.34133e-11 -63717.2 -2.34307e-11 63605.8)
(692920 -22889.9 -2.97361e-11 -69476.6 -2.7218e-11 61333.4)
(669540 -28319.9 -3.66771e-11 -75089.2 -3.21319e-11 59362.4)
(647091 -30893.9 -4.16206e-11 -77522 -3.54464e-11 57891.8)
(627229 -32707.7 -4.52607e-11 -77604 -3.80251e-11 56705.2)
(609032 -33532.1 -4.61966e-11 -76148.2 -3.86634e-11 55065.6)
(592857 -33571.3 -4.63575e-11 -73394.1 -3.87939e-11 53725.2)
(578349 -32963 -4.59332e-11 -69905.7 -3.84997e-11 52605.7)
(565519 -31830.4 -4.50453e-11 -65969.1 -3.7857e-11 51685.5)
(554164 -30303.4 -4.38377e-11 -61919.8 -3.69471e-11 50918.3)
(544191 -28482.8 -4.24116e-11 -57980.7 -3.58339e-11 50277.5)
(535450 -26453.6 -4.08597e-11 -54362.9 -3.45704e-11 49732)
(527840 -24273.7 -3.9248e-11 -51226.9 -3.31928e-11 49259.3)
(521240 -21973.5 -3.76236e-11 -48726.9 -3.17189e-11 48835.8)
(515590 -19557.6 -3.60122e-11 -46992.8 -3.01491e-11 48445.8)
(510772 -16983.9 -3.44155e-11 -46179.5 -2.84529e-11 48066.4)
(506851 -14197.7 -3.28178e-11 -46421.9 -2.65903e-11 47694.2)
(503606 -11014.1 -3.11469e-11 -47967.9 -2.4433e-11 47290.3)
(501528 -7412.12 -2.93995e-11 -50982.1 -2.19626e-11 46889.4)
(499802 -2557.73 -2.71619e-11 -56034.7 -1.86104e-11 46376.7)
(711677 3148.73 -1.04052e-11 -54832.9 -1.0118e-11 64538)
(688331 -230.295 -1.62374e-11 -66858.3 -1.2937e-11 61761.1)
(666854 -6855.11 -2.365e-11 -72677.5 -1.8456e-11 59841.2)
(646462 -11200.7 -2.94181e-11 -75967.8 -2.26686e-11 58336.7)
(628076 -14626 -3.35686e-11 -76632.9 -2.5906e-11 57003.8)
(610988 -17059.7 -3.55739e-11 -75714 -2.76105e-11 55416.7)
(595551 -18636.2 -3.67655e-11 -73454.6 -2.87609e-11 54097)
(581467 -19496 -3.73284e-11 -70400.8 -2.9442e-11 52973.4)
(568804 -19749.8 -3.7376e-11 -66834.6 -2.9722e-11 52029.9)
(557412 -19521 -3.70437e-11 -63091.3 -2.96774e-11 51225.5)
(547248 -18906.7 -3.64309e-11 -59400.3 -2.93695e-11 50538)
(538204 -17993.3 -3.56316e-11 -55983.2 -2.88519e-11 49939.3)
(530217 -16844.3 -3.47153e-11 -53016.8 -2.81639e-11 49409.3)
(523194 -15500.9 -3.37405e-11 -50674.6 -2.73305e-11 48925.6)
(517105 -13980.3 -3.27403e-11 -49108.4 -2.63596e-11 48473.6)
(511850 -12268.8 -3.17409e-11 -48505.7 -2.5239e-11 48029.5)
(507532 -10328.1 -3.07401e-11 -49033.8 -2.39397e-11 47590.6)
(503925 -8042.62 -2.97178e-11 -50991.2 -2.23782e-11 47113.5)
(501628 -5415.57 -2.86935e-11 -54606.9 -2.05509e-11 46638)
(499713 -1864.95 -2.74296e-11 -60534.1 -1.80571e-11 46030)
(703379 26312.1 3.07722e-12 -44343.3 3.27795e-12 65814.3)
(681879 20998.6 -3.74168e-12 -58308.3 -4.40195e-13 62849.4)
(663697 13190.4 -1.14466e-11 -65520.2 -6.3029e-12 60895.5)
(644919 7416.32 -1.79083e-11 -70310.3 -1.11506e-11 59256)
(628009 2630.62 -2.18987e-11 -72246.3 -1.44112e-11 57468.9)
(611820 -1178.32 -2.49273e-11 -72473.2 -1.70133e-11 55869.7)
(597042 -4089.48 -2.70958e-11 -71175 -1.90384e-11 54529.2)
(583337 -6254.01 -2.86034e-11 -68931.7 -2.0578e-11 53369.8)
(570876 -7759.17 -2.95437e-11 -66023.6 -2.1684e-11 52385.4)
(559524 -8721.63 -3.00504e-11 -62808.8 -2.24285e-11 51535.2)
(549289 -9230.26 -3.02207e-11 -59532.5 -2.28663e-11 50800.2)
(540085 -9370.71 -3.0148e-11 -56440.6 -2.30501e-11 50152.9)
(531876 -9208.47 -2.99085e-11 -53732.2 -2.30201e-11 49574.2)
(524591 -8795.8 -2.95686e-11 -51605.6 -2.28076e-11 49041.6)
(518217 -8162.63 -2.9176e-11 -50242.8 -2.24295e-11 48539.6)
(512677 -7323.38 -2.87751e-11 -49854.2 -2.1891e-11 48045)
(508089 -6259.09 -2.8384e-11 -50655.1 -2.1175e-11 47552.5)
(504241 -4940.49 -2.80383e-11 -52941.2 -2.02569e-11 47019.5)
(501803 -3354.74 -2.77464e-11 -56973.7 -1.91206e-11 46490.4)
(499694 -1157.61 -2.74545e-11 -63561.8 -1.75227e-11 45802.6)
(688792 44260.2 1.24877e-11 -35544.2 1.29927e-11 66427.5)
(670172 38832.5 5.9441e-12 -51080 9.59872e-12 63413.5)
(655066 30662.5 -1.05404e-12 -59161.5 4.22804e-12 61283.6)
(638391 24210.6 -6.65255e-12 -64941.6 -3.99084e-14 59192.9)
(623358 18539.2 -1.1231e-11 -67755.1 -3.83723e-12 57492.1)
(608562 13746.7 -1.49651e-11 -68798.1 -7.07894e-12 55956.3)
(594909 9786.78 -1.78768e-11 -68233.5 -9.79015e-12 54659.3)
(582042 6552.22 -2.01386e-11 -66645.5 -1.20321e-11 53521.6)
(570205 3978.62 -2.1826e-11 -64310 -1.38421e-11 52544.9)
(559291 1970.32 -2.30616e-11 -61588.6 -1.52776e-11 51690.7)
(549348 450.455 -2.39299e-11 -58730.2 -1.63847e-11 50943.9)
(540318 -659.54 -2.45241e-11 -55990.2 -1.72118e-11 50278.7)
(532194 -1424.35 -2.49187e-11 -53576.6 -1.7798e-11 49678.2)
(524925 -1904.37 -2.51854e-11 -51702.1 -1.81796e-11 49120.8)
(518519 -2137.57 -2.53796e-11 -50557.3 -1.83786e-11 48592.4)
(512924 -2177.26 -2.55731e-11 -50380.6 -1.84259e-11 48069.2)
(508255 -1994.18 -2.5776e-11 -51375.5 -1.82978e-11 47547.2)
(504364 -1694.03 -2.61151e-11 -53881.7 -1.80592e-11 46985.1)
(501883 -1138.76 -2.65372e-11 -58275.4 -1.76075e-11 46416.2)
(499682 -373.154 -2.72135e-11 -65205.6 -1.69639e-11 45682.2)
(670426 59157.2 2.26908e-11 -26832 2.27619e-11 65450.4)
(654734 53661.5 1.61079e-11 -42999.8 1.93438e-11 62668.2)
(642695 45546.3 9.16236e-12 -51657.8 1.40307e-11 60788.7)
(628326 38803.4 3.32053e-12 -58323.7 9.59233e-12 58849)
(615374 32625.1 -1.64008e-12 -61982.4 5.47796e-12 57279.1)
(602219 27188 -5.85956e-12 -63875.6 1.82527e-12 55830.6)
(589953 22473.4 -9.32494e-12 -64088.4 -1.37284e-12 54601.2)
(578194 18421.2 -1.21799e-11 -63210.7 -4.14614e-12 53509.1)
(567262 14991.6 -1.4479e-11 -61502.4 -6.51542e-12 52564.4)
(557066 12113.8 -1.63284e-11 -59328.2 -8.52127e-12 51730.3)
(547692 9727.05 -1.78023e-11 -56937.9 -1.01994e-11 50995.4)
(539105 7764.31 -1.89858e-11 -54594 -1.15894e-11 50335.7)
(531318 6164 -1.99514e-11 -52511.5 -1.27288e-11 49735.6)