/*--------------------------------*- C++ -*----------------------------------*\
  =========                 |
  \\      /  F ield         | OpenFOAM: The Open Source CFD Toolbox
   \\    /   O peration     | Website:  https://openfoam.org
    \\  /    A nd           | Version:  9
     \\/     M anipulation  |
\*---------------------------------------------------------------------------*/
FoamFile
{
    format      ascii;
    class       volVectorField;
    location    "15";
    object      D;
}
// * * * * * * * * * * * * * * * * * * * * * * * * * * * * * * * * * * * * * //

dimensions      [0 1 0 0 0 0 0];

internalField   nonuniform List<vector> 
1000
(
(1.01618e-05 3.42169e-06 0)
(9.48317e-06 3.77523e-06 0)
(8.98836e-06 4.07554e-06 0)
(8.63012e-06 4.30927e-06 0)
(8.37438e-06 4.51145e-06 0)
(8.19356e-06 4.68524e-06 0)
(8.07098e-06 4.84188e-06 0)
(7.99286e-06 4.98453e-06 0)
(7.94854e-06 5.11763e-06 0)
(7.9325e-06 5.24382e-06 0)
(9.16047e-06 3.08681e-06 0)
(8.45464e-06 3.34209e-06 0)
(7.94364e-06 3.56993e-06 0)
(7.57525e-06 3.74448e-06 0)
(7.31288e-06 3.89813e-06 0)
(7.12667e-06 4.03015e-06 0)
(6.99898e-06 4.1499e-06 0)
(6.91514e-06 4.25944e-06 0)
(6.86421e-06 4.36107e-06 0)
(6.83873e-06 4.46025e-06 0)
(8.13367e-06 2.74948e-06 0)
(7.42264e-06 2.9012e-06 0)
(6.91008e-06 3.0531e-06 0)
(6.54229e-06 3.16832e-06 0)
(6.2814e-06 3.27423e-06 0)
(6.09614e-06 3.3664e-06 0)
(5.96831e-06 3.45165e-06 0)
(5.88289e-06 3.53073e-06 0)
(5.82883e-06 3.60389e-06 0)
(5.79829e-06 3.6773e-06 0)
(7.09116e-06 2.41387e-06 0)
(6.39572e-06 2.46234e-06 0)
(5.89583e-06 2.53729e-06 0)
(5.53977e-06 2.59504e-06 0)
(5.28878e-06 2.65545e-06 0)
(5.11121e-06 2.71078e-06 0)
(4.98868e-06 2.76479e-06 0)
(4.90601e-06 2.81667e-06 0)
(4.85281e-06 2.86497e-06 0)
(4.82049e-06 2.91538e-06 0)
(6.03967e-06 2.08864e-06 0)
(5.37673e-06 2.03819e-06 0)
(4.90481e-06 2.0368e-06 0)
(4.57246e-06 2.04054e-06 0)
(4.34045e-06 2.05942e-06 0)
(4.1777e-06 2.0824e-06 0)
(4.06588e-06 2.10975e-06 0)
(3.99026e-06 2.13881e-06 0)
(3.94124e-06 2.16663e-06 0)
(3.91001e-06 2.19766e-06 0)
(4.97736e-06 1.77572e-06 0)
(4.36803e-06 1.63067e-06 0)
(3.93926e-06 1.56101e-06 0)
(3.64354e-06 1.51763e-06 0)
(3.44028e-06 1.5021e-06 0)
(3.29956e-06 1.49929e-06 0)
(3.20378e-06 1.50612e-06 0)
(3.13912e-06 1.51794e-06 0)
(3.09719e-06 1.53059e-06 0)
(3.0694e-06 1.5469e-06 0)
(3.90019e-06 1.47036e-06 0)
(3.36419e-06 1.24245e-06 0)
(2.99814e-06 1.11809e-06 0)
(2.75318e-06 1.03975e-06 0)
(2.58869e-06 1.0003e-06 0)
(2.47694e-06 9.80625e-07 0)
(2.40187e-06 9.74439e-07 0)
(2.35139e-06 9.75421e-07 0)
(2.31867e-06 9.78648e-07 0)
(2.29609e-06 9.85324e-07 0)
(2.8292e-06 1.16576e-06 0)
(2.37227e-06 8.72558e-07 0)
(2.08954e-06 7.16766e-07 0)
(1.90707e-06 6.20973e-07 0)
(1.78958e-06 5.72117e-07 0)
(1.71138e-06 5.46425e-07 0)
(1.65973e-06 5.35737e-07 0)
(1.62506e-06 5.32637e-07 0)
(1.60255e-06 5.32207e-07 0)
(1.58623e-06 5.34387e-07 0)
(1.71896e-06 8.36454e-07 0)
(1.38632e-06 5.22506e-07 0)
(1.20971e-06 3.63762e-07 0)
(1.10141e-06 2.78358e-07 0)
(1.03674e-06 2.37118e-07 0)
(9.94418e-07 2.17143e-07 0)
(9.67045e-07 2.09405e-07 0)
(9.48391e-07 2.07476e-07 0)
(9.36047e-07 2.07391e-07 0)
(9.26339e-07 2.08692e-07 0)
(6.00909e-07 4.33681e-07 0)
(4.40944e-07 2.00774e-07 0)
(3.86286e-07 9.62395e-08 0)
(3.57008e-07 5.46815e-08 0)
(3.39685e-07 3.70316e-08 0)
(3.27938e-07 3.09095e-08 0)
(3.20077e-07 2.96827e-08 0)
(3.14421e-07 3.05918e-08 0)
(3.10491e-07 3.17696e-08 0)
(3.07053e-07 3.31782e-08 0)
(1.79085e-05 5.53465e-06 0)
(1.78789e-05 6.22221e-06 0)
(1.78585e-05 6.86283e-06 0)
(1.78592e-05 7.44932e-06 0)
(1.78861e-05 7.98776e-06 0)
(1.79411e-05 8.48481e-06 0)
(1.80247e-05 8.94824e-06 0)
(1.81349e-05 9.38477e-06 0)
(1.82709e-05 9.79968e-06 0)
(1.84293e-05 1.01989e-05 0)
(1.73469e-05 5.48912e-06 0)
(1.72673e-05 6.17466e-06 0)
(1.72131e-05 6.80746e-06 0)
(1.71891e-05 7.38213e-06 0)
(1.7198e-05 7.90614e-06 0)
(1.72379e-05 8.38659e-06 0)
(1.73078e-05 8.83198e-06 0)
(1.74043e-05 9.24938e-06 0)
(1.7526e-05 9.64432e-06 0)
(1.76684e-05 1.00235e-05 0)
(1.67513e-05 5.39689e-06 0)
(1.66125e-05 6.08062e-06 0)
(1.65124e-05 6.70052e-06 0)
(1.6452e-05 7.25666e-06 0)
(1.64321e-05 7.76034e-06 0)
(1.64479e-05 8.21963e-06 0)
(1.64965e-05 8.6436e-06 0)
(1.65731e-05 9.03944e-06 0)
(1.66758e-05 9.41289e-06 0)
(1.67982e-05 9.77086e-06 0)
(1.61076e-05 5.26284e-06 0)
(1.59024e-05 5.94323e-06 0)
(1.57488e-05 6.54734e-06 0)
(1.56454e-05 7.08083e-06 0)
(1.55902e-05 7.56004e-06 0)
(1.55761e-05 7.99421e-06 0)
(1.55986e-05 8.39327e-06 0)
(1.56512e-05 8.76449e-06 0)
(1.57315e-05 9.11386e-06 0)
(1.58314e-05 9.44819e-06 0)
(1.54086e-05 5.08828e-06 0)
(1.51306e-05 5.75987e-06 0)
(1.49198e-05 6.34321e-06 0)
(1.4771e-05 6.84884e-06 0)
(1.46786e-05 7.29874e-06 0)
(1.46328e-05 7.70344e-06 0)
(1.46277e-05 8.0739e-06 0)
(1.4655e-05 8.41732e-06 0)
(1.47121e-05 8.73999e-06 0)
(1.47889e-05 9.04827e-06 0)
(1.46532e-05 4.87722e-06 0)
(1.42982e-05 5.53075e-06 0)
(1.40291e-05 6.08732e-06 0)
(1.38349e-05 6.56025e-06 0)
(1.37057e-05 6.97688e-06 0)
(1.36287e-05 7.34862e-06 0)
(1.35964e-05 7.68741e-06 0)
(1.35989e-05 8.00024e-06 0)
(1.36333e-05 8.29383e-06 0)
(1.36877e-05 8.57374e-06 0)
(1.38435e-05 4.63294e-06 0)
(1.34105e-05 5.25592e-06 0)
(1.30842e-05 5.77806e-06 0)
(1.28468e-05 6.21302e-06 0)
(1.2683e-05 6.59256e-06 0)
(1.2577e-05 6.92825e-06 0)
(1.25194e-05 7.23282e-06 0)
(1.24992e-05 7.51288e-06 0)
(1.25123e-05 7.77548e-06 0)
(1.25463e-05 8.02522e-06 0)
(1.29836e-05 4.35995e-06 0)
(1.24754e-05 4.93792e-06 0)
(1.20956e-05 5.41715e-06 0)
(1.18187e-05 5.80896e-06 0)
(1.16238e-05 6.14804e-06 0)
(1.14921e-05 6.44525e-06 0)
(1.14122e-05 6.71379e-06 0)
(1.13719e-05 6.9595e-06 0)
(1.13663e-05 7.18981e-06 0)
(1.13825e-05 7.40782e-06 0)
(1.20791e-05 4.06319e-06 0)
(1.15024e-05 4.58086e-06 0)
(1.10752e-05 5.00838e-06 0)
(1.07641e-05 5.35189e-06 0)
(1.05429e-05 5.64749e-06 0)
(1.03897e-05 5.9044e-06 0)
(1.02911e-05 6.13568e-06 0)
(1.02342e-05 6.3464e-06 0)
(1.02125e-05 6.54347e-06 0)
(1.02142e-05 6.72931e-06 0)
(1.11366e-05 3.74808e-06 0)
(1.05019e-05 4.19058e-06 0)
(1.00356e-05 4.55819e-06 0)
(9.69679e-06 4.84876e-06 0)
(9.45495e-06 5.09853e-06 0)
(9.28504e-06 5.31402e-06 0)
(9.17199e-06 5.50779e-06 0)
(9.10217e-06 5.68346e-06 0)
(9.06763e-06 5.84781e-06 0)
(9.05901e-06 5.99944e-06 0)
(1.86185e-05 1.05829e-05 0)
(1.88358e-05 1.0964e-05 0)
(1.90698e-05 1.13391e-05 0)
(1.93186e-05 1.17098e-05 0)
(1.95809e-05 1.20781e-05 0)
(1.98553e-05 1.2445e-05 0)
(2.01404e-05 1.28118e-05 0)
(2.04353e-05 1.31793e-05 0)
(2.07387e-05 1.35484e-05 0)
(2.10498e-05 1.39197e-05 0)
(2.13676e-05 1.42937e-05 0)
(2.16914e-05 1.46708e-05 0)
(2.20202e-05 1.50516e-05 0)
(2.23533e-05 1.54363e-05 0)
(2.269e-05 1.58251e-05 0)
(2.30295e-05 1.62182e-05 0)
(2.3371e-05 1.66153e-05 0)
(2.37139e-05 1.70164e-05 0)
(2.40576e-05 1.74205e-05 0)
(2.44011e-05 1.78267e-05 0)
(1.78656e-05 1.0393e-05 0)
(1.81097e-05 1.07678e-05 0)
(1.83669e-05 1.11368e-05 0)
(1.86351e-05 1.15023e-05 0)
(1.89139e-05 1.1866e-05 0)
(1.9202e-05 1.22291e-05 0)
(1.94988e-05 1.25928e-05 0)
(1.98034e-05 1.29579e-05 0)
(2.0115e-05 1.33251e-05 0)
(2.04329e-05 1.36951e-05 0)
(2.07565e-05 1.40684e-05 0)
(2.10851e-05 1.44454e-05 0)
(2.14182e-05 1.48265e-05 0)
(2.17551e-05 1.52121e-05 0)
(2.20953e-05 1.56022e-05 0)
(2.24383e-05 1.59971e-05 0)
(2.27835e-05 1.63966e-05 0)
(2.31304e-05 1.68005e-05 0)
(2.34786e-05 1.7208e-05 0)
(2.38271e-05 1.76182e-05 0)
(1.70063e-05 1.01294e-05 0)
(1.72849e-05 1.05048e-05 0)
(1.7573e-05 1.08747e-05 0)
(1.78678e-05 1.12409e-05 0)
(1.81701e-05 1.16056e-05 0)
(1.84787e-05 1.19698e-05 0)
(1.87934e-05 1.23349e-05 0)
(1.91136e-05 1.27015e-05 0)
(1.94391e-05 1.30705e-05 0)
(1.97692e-05 1.34426e-05 0)
(2.01036e-05 1.38183e-05 0)
(2.0442e-05 1.41979e-05 0)
(2.0784e-05 1.45821e-05 0)
(2.11292e-05 1.49709e-05 0)
(2.14772e-05 1.53647e-05 0)
(2.18278e-05 1.57637e-05 0)
(2.21805e-05 1.61677e-05 0)
(2.25349e-05 1.65768e-05 0)
(2.28906e-05 1.69906e-05 0)
(2.32467e-05 1.74085e-05 0)
(1.60532e-05 9.79791e-06 0)
(1.63728e-05 1.01794e-05 0)
(1.66984e-05 1.05556e-05 0)
(1.70261e-05 1.09273e-05 0)
(1.7358e-05 1.12977e-05 0)
(1.76927e-05 1.16671e-05 0)
(1.80309e-05 1.20374e-05 0)
(1.83721e-05 1.24091e-05 0)
(1.87163e-05 1.27833e-05 0)
(1.90633e-05 1.31605e-05 0)
(1.94132e-05 1.35414e-05 0)
(1.97656e-05 1.39265e-05 0)
(2.01205e-05 1.43162e-05 0)
(2.04778e-05 1.47108e-05 0)
(2.08372e-05 1.51107e-05 0)
(2.11986e-05 1.5516e-05 0)
(2.15619e-05 1.5927e-05 0)
(2.19265e-05 1.63439e-05 0)
(2.22923e-05 1.67665e-05 0)
(2.26582e-05 1.71948e-05 0)
(1.50269e-05 9.39217e-06 0)
(1.53924e-05 9.7859e-06 0)
(1.57605e-05 1.01746e-05 0)
(1.61257e-05 1.05575e-05 0)
(1.64918e-05 1.09386e-05 0)
(1.68571e-05 1.1318e-05 0)
(1.7223e-05 1.16978e-05 0)
(1.75891e-05 1.20786e-05 0)
(1.7956e-05 1.24616e-05 0)
(1.83236e-05 1.28475e-05 0)
(1.86922e-05 1.32368e-05 0)
(1.9062e-05 1.36302e-05 0)
(1.94329e-05 1.40281e-05 0)
(1.9805e-05 1.44311e-05 0)
(2.01785e-05 1.48394e-05 0)
(2.05532e-05 1.52535e-05 0)
(2.09292e-05 1.56738e-05 0)
(2.13062e-05 1.61006e-05 0)
(2.1684e-05 1.65344e-05 0)
(2.20618e-05 1.69753e-05 0)
(1.39443e-05 8.91456e-06 0)
(1.43591e-05 9.32624e-06 0)
(1.47734e-05 9.73335e-06 0)
(1.51796e-05 1.01325e-05 0)
(1.55834e-05 1.05292e-05 0)
(1.59826e-05 1.09232e-05 0)
(1.63794e-05 1.13167e-05 0)
(1.67736e-05 1.17105e-05 0)
(1.71661e-05 1.21059e-05 0)
(1.75572e-05 1.25036e-05 0)
(1.79474e-05 1.29045e-05 0)
(1.83369e-05 1.3309e-05 0)
(1.87261e-05 1.3718e-05 0)
(1.91154e-05 1.41318e-05 0)
(1.95049e-05 1.4551e-05 0)
(1.98948e-05 1.49761e-05 0)
(2.02853e-05 1.54077e-05 0)
(2.06762e-05 1.58464e-05 0)
(2.10676e-05 1.62931e-05 0)
(2.14589e-05 1.67484e-05 0)
(1.2823e-05 8.36595e-06 0)
(1.3289e-05 8.80136e-06 0)
(1.37517e-05 9.23248e-06 0)
(1.42012e-05 9.65332e-06 0)
(1.4645e-05 1.00704e-05 0)
(1.50804e-05 1.04833e-05 0)
(1.55105e-05 1.08946e-05 0)
(1.59351e-05 1.13053e-05 0)
(1.63554e-05 1.17166e-05 0)
(1.67719e-05 1.21295e-05 0)
(1.71855e-05 1.25449e-05 0)
(1.75967e-05 1.29636e-05 0)
(1.8006e-05 1.33862e-05 0)
(1.8414e-05 1.38134e-05 0)
(1.88209e-05 1.42458e-05 0)
(1.92273e-05 1.46841e-05 0)
(1.96335e-05 1.51289e-05 0)
(2.00395e-05 1.55812e-05 0)
(2.04456e-05 1.60423e-05 0)
(2.08516e-05 1.65129e-05 0)
(1.16801e-05 7.75125e-06 0)
(1.21973e-05 8.21582e-06 0)
(1.27091e-05 8.67549e-06 0)
(1.32029e-05 9.1229e-06 0)
(1.36876e-05 9.56461e-06 0)
(1.41608e-05 1.00008e-05 0)
(1.46255e-05 1.04339e-05 0)
(1.50819e-05 1.0865e-05 0)
(1.55316e-05 1.12957e-05 0)
(1.59751e-05 1.1727e-05 0)
(1.64136e-05 1.216e-05 0)
(1.68477e-05 1.25955e-05 0)
(1.72783e-05 1.30344e-05 0)
(1.7706e-05 1.34773e-05 0)
(1.81314e-05 1.3925e-05 0)
(1.85552e-05 1.43784e-05 0)
(1.89778e-05 1.48382e-05 0)
(1.93997e-05 1.53055e-05 0)
(1.98212e-05 1.57819e-05 0)
(2.02426e-05 1.62684e-05 0)
(1.05325e-05 7.07622e-06 0)
(1.10997e-05 7.57564e-06 0)
(1.16593e-05 8.06738e-06 0)
(1.21976e-05 8.54589e-06 0)
(1.27233e-05 9.01579e-06 0)
(1.32346e-05 9.4787e-06 0)
(1.37343e-05 9.9367e-06 0)
(1.42232e-05 1.03915e-05 0)
(1.47027e-05 1.08446e-05 0)
(1.51739e-05 1.12973e-05 0)
(1.56379e-05 1.17507e-05 0)
(1.60957e-05 1.22057e-05 0)
(1.65482e-05 1.26634e-05 0)
(1.69963e-05 1.31244e-05 0)
(1.74407e-05 1.35897e-05 0)
(1.78824e-05 1.406e-05 0)
(1.83218e-05 1.45364e-05 0)
(1.876e-05 1.502e-05 0)
(1.91972e-05 1.55126e-05 0)
(1.96346e-05 1.60152e-05 0)
(9.39373e-06 6.35121e-06 0)
(1.00083e-05 6.88905e-06 0)
(1.06107e-05 7.41391e-06 0)
(1.11926e-05 7.92683e-06 0)
(1.17583e-05 8.4287e-06 0)
(1.23079e-05 8.92196e-06 0)
(1.28432e-05 9.40842e-06 0)
(1.33652e-05 9.88998e-06 0)
(1.38753e-05 1.03683e-05 0)
(1.43748e-05 1.08449e-05 0)
(1.48649e-05 1.13211e-05 0)
(1.53467e-05 1.17979e-05 0)
(1.58215e-05 1.22764e-05 0)
(1.62902e-05 1.27574e-05 0)
(1.67538e-05 1.3242e-05 0)
(1.72134e-05 1.37309e-05 0)
(1.76698e-05 1.42252e-05 0)
(1.81241e-05 1.4726e-05 0)
(1.8577e-05 1.52352e-05 0)
(1.90303e-05 1.57538e-05 0)
(8.51497e-06 5.80748e-06 0)
(9.1559e-06 6.37327e-06 0)
(9.78081e-06 6.91688e-06 0)
(1.03863e-05 7.44942e-06 0)
(1.09748e-05 7.97087e-06 0)
(1.15465e-05 8.48349e-06 0)
(1.21029e-05 8.98897e-06 0)
(1.26449e-05 9.48898e-06 0)
(1.31737e-05 9.98508e-06 0)
(1.36907e-05 1.04786e-05 0)
(1.4197e-05 1.09709e-05 0)
(1.46938e-05 1.14629e-05 0)
(1.51822e-05 1.19557e-05 0)
(1.56635e-05 1.245e-05 0)
(1.61386e-05 1.29469e-05 0)
(1.66087e-05 1.3447e-05 0)
(1.70749e-05 1.39515e-05 0)
(1.75384e-05 1.44612e-05 0)
(1.8e-05 1.49778e-05 0)
(1.84622e-05 1.55023e-05 0)
(7.9283e-06 5.48206e-06 0)
(8.56936e-06 6.04783e-06 0)
(9.19448e-06 6.59592e-06 0)
(9.80196e-06 7.13451e-06 0)
(1.03935e-05 7.6634e-06 0)
(1.0969e-05 8.18417e-06 0)
(1.15297e-05 8.69819e-06 0)
(1.20762e-05 9.20676e-06 0)
(1.26096e-05 9.71118e-06 0)
(1.3131e-05 1.02126e-05 0)
(1.36415e-05 1.07121e-05 0)
(1.41422e-05 1.12107e-05 0)
(1.46341e-05 1.17091e-05 0)
(1.51184e-05 1.22083e-05 0)
(1.55962e-05 1.27088e-05 0)
(1.60685e-05 1.32115e-05 0)
(1.65365e-05 1.37172e-05 0)
(1.70016e-05 1.42267e-05 0)
(1.74647e-05 1.47413e-05 0)
(1.79285e-05 1.52616e-05 0)
(7.4104e-06 5.1696e-06 0)
(8.03993e-06 5.73373e-06 0)
(8.65868e-06 6.28343e-06 0)
(9.26151e-06 6.82569e-06 0)
(9.85069e-06 7.35995e-06 0)
(1.04251e-05 7.88717e-06 0)
(1.09858e-05 8.40838e-06 0)
(1.15331e-05 8.92449e-06 0)
(1.20679e-05 9.4365e-06 0)
(1.2591e-05 9.94532e-06 0)
(1.31033e-05 1.04518e-05 0)
(1.36058e-05 1.09567e-05 0)
(1.40995e-05 1.14608e-05 0)
(1.45855e-05 1.19647e-05 0)
(1.50647e-05 1.24689e-05 0)
(1.55384e-05 1.29742e-05 0)
(1.60075e-05 1.3481e-05 0)
(1.64737e-05 1.399e-05 0)
(1.69378e-05 1.45021e-05 0)
(1.74026e-05 1.50176e-05 0)
(6.9462e-06 4.86865e-06 0)
(7.56066e-06 5.42825e-06 0)
(8.1683e-06 5.97748e-06 0)
(8.76214e-06 6.5219e-06 0)
(9.34467e-06 7.06024e-06 0)
(9.91406e-06 7.59293e-06 0)
(1.04712e-05 8.12047e-06 0)
(1.10161e-05 8.64342e-06 0)
(1.15493e-05 9.16245e-06 0)
(1.20714e-05 9.6782e-06 0)
(1.25833e-05 1.01913e-05 0)
(1.30857e-05 1.07023e-05 0)
(1.35796e-05 1.12118e-05 0)
(1.40658e-05 1.17202e-05 0)
(1.45454e-05 1.2228e-05 0)
(1.50194e-05 1.27357e-05 0)
(1.5489e-05 1.32435e-05 0)
(1.59555e-05 1.37519e-05 0)
(1.64201e-05 1.42612e-05 0)
(1.68856e-05 1.47716e-05 0)
(6.53041e-06 4.58239e-06 0)
(7.12637e-06 5.13578e-06 0)
(7.71908e-06 5.68273e-06 0)
(8.30028e-06 6.22749e-06 0)
(8.87263e-06 6.76822e-06 0)
(9.43369e-06 7.30487e-06 0)
(9.98422e-06 7.83746e-06 0)
(1.05238e-05 8.36616e-06 0)
(1.10528e-05 8.8913e-06 0)
(1.15718e-05 9.41323e-06 0)
(1.20812e-05 9.93233e-06 0)
(1.25817e-05 1.0449e-05 0)
(1.30742e-05 1.09635e-05 0)
(1.35594e-05 1.14762e-05 0)
(1.40383e-05 1.19874e-05 0)
(1.45118e-05 1.24972e-05 0)
(1.49811e-05 1.30058e-05 0)
(1.54472e-05 1.35135e-05 0)
(1.59122e-05 1.40197e-05 0)
(1.63779e-05 1.45248e-05 0)
(6.15501e-06 4.31069e-06 0)
(6.73062e-06 4.85626e-06 0)
(7.3059e-06 5.3994e-06 0)
(7.87194e-06 5.94301e-06 0)
(8.43142e-06 6.48476e-06 0)
(8.98154e-06 7.02411e-06 0)
(9.52288e-06 7.56062e-06 0)
(1.00547e-05 8.09407e-06 0)
(1.05775e-05 8.62443e-06 0)
(1.10912e-05 9.15178e-06 0)
(1.15963e-05 9.67622e-06 0)
(1.20934e-05 1.01979e-05 0)
(1.25832e-05 1.0717e-05 0)
(1.30662e-05 1.12336e-05 0)
(1.35434e-05 1.17478e-05 0)
(1.40157e-05 1.22596e-05 0)
(1.4484e-05 1.27689e-05 0)
(1.49497e-05 1.32754e-05 0)
(1.54136e-05 1.37787e-05 0)
(1.58785e-05 1.42787e-05 0)
(5.81353e-06 4.05373e-06 0)
(6.36761e-06 4.59058e-06 0)
(6.92369e-06 5.12875e-06 0)
(7.4727e-06 5.66995e-06 0)
(8.01727e-06 6.21144e-06 0)
(8.5544e-06 6.75227e-06 0)
(9.08453e-06 7.29153e-06 0)
(9.60677e-06 7.82866e-06 0)
(1.01213e-05 8.36329e-06 0)
(1.06281e-05 8.89519e-06 0)
(1.11274e-05 9.42423e-06 0)
(1.16197e-05 9.95033e-06 0)
(1.21055e-05 1.04734e-05 0)
(1.25854e-05 1.09934e-05 0)
(1.306e-05 1.15103e-05 0)
(1.35303e-05 1.20237e-05 0)
(1.3997e-05 1.25335e-05 0)
(1.44614e-05 1.30391e-05 0)
(1.49243e-05 1.35396e-05 0)
(1.53881e-05 1.40346e-05 0)
(5.49956e-06 3.81089e-06 0)
(6.03155e-06 4.33841e-06 0)
(6.56736e-06 4.87079e-06 0)
(7.09812e-06 5.4086e-06 0)
(7.62632e-06 5.94881e-06 0)
(8.14892e-06 6.49007e-06 0)
(8.66625e-06 7.03107e-06 0)
(9.17731e-06 7.5709e-06 0)
(9.68214e-06 8.10887e-06 0)
(1.01806e-05 8.64448e-06 0)
(1.06729e-05 9.17734e-06 0)
(1.11592e-05 9.70715e-06 0)
(1.164e-05 1.02336e-05 0)
(1.21158e-05 1.07566e-05 0)
(1.25871e-05 1.12756e-05 0)
(1.30547e-05 1.17905e-05 0)
(1.35193e-05 1.23005e-05 0)
(1.3982e-05 1.28051e-05 0)
(1.44434e-05 1.3303e-05 0)
(1.49057e-05 1.37935e-05 0)
(5.20742e-06 3.58145e-06 0)
(5.71711e-06 4.09948e-06 0)
(6.23202e-06 4.62555e-06 0)
(6.74369e-06 5.15928e-06 0)
(7.25449e-06 5.69739e-06 0)
(7.76143e-06 6.23819e-06 0)
(8.26477e-06 6.77999e-06 0)
(8.76345e-06 7.32161e-06 0)
(9.25742e-06 7.86203e-06 0)
(9.74641e-06 8.4005e-06 0)
(1.02305e-05 8.93638e-06 0)
(1.07099e-05 9.46918e-06 0)
(1.11849e-05 9.99844e-06 0)
(1.16558e-05 1.05237e-05 0)
(1.21232e-05 1.10446e-05 0)
(1.25876e-05 1.15605e-05 0)
(1.30496e-05 1.20707e-05 0)
(1.35102e-05 1.25744e-05 0)
(1.39698e-05 1.307e-05 0)
(1.44302e-05 1.35566e-05 0)
(4.93184e-06 3.36454e-06 0)
(5.41922e-06 3.87318e-06 0)
(5.9129e-06 4.39271e-06 0)
(6.40498e-06 4.9219e-06 0)
(6.89769e-06 5.4573e-06 0)
(7.38819e-06 5.9969e-06 0)
(7.87667e-06 6.53873e-06 0)
(8.36207e-06 7.0813e-06 0)
(8.84427e-06 7.62335e-06 0)
(9.32295e-06 8.16386e-06 0)
(9.79813e-06 8.702e-06 0)
(1.02698e-05 9.23707e-06 0)
(1.07383e-05 9.76844e-06 0)
(1.12038e-05 1.02955e-05 0)
(1.16667e-05 1.08177e-05 0)
(1.21275e-05 1.13344e-05 0)
(1.25865e-05 1.18446e-05 0)
(1.30446e-05 1.23474e-05 0)
(1.35021e-05 1.28411e-05 0)
(1.39603e-05 1.33247e-05 0)
(4.66799e-06 3.15931e-06 0)
(5.13314e-06 3.6589e-06 0)
(5.60543e-06 4.17188e-06 0)
(6.07762e-06 4.69628e-06 0)
(6.55178e-06 5.22854e-06 0)
(7.02531e-06 5.76638e-06 0)
(7.49833e-06 6.30755e-06 0)
(7.96983e-06 6.85034e-06 0)
(8.43964e-06 7.39324e-06 0)
(8.9074e-06 7.93503e-06 0)
(9.37303e-06 8.47468e-06 0)
(9.83652e-06 9.0113e-06 0)
(1.0298e-05 9.54413e-06 0)
(1.07576e-05 1.00724e-05 0)
(1.12156e-05 1.05955e-05 0)
(1.16724e-05 1.11126e-05 0)
(1.21282e-05 1.16227e-05 0)
(1.25836e-05 1.21248e-05 0)
(1.30388e-05 1.26171e-05 0)
(1.34945e-05 1.30985e-05 0)
(4.41132e-06 2.96503e-06 0)
(4.8543e-06 3.4561e-06 0)
(5.30514e-06 3.96266e-06 0)
(5.75726e-06 4.4822e-06 0)
(6.21262e-06 5.01102e-06 0)
(6.66884e-06 5.54662e-06 0)
(7.12605e-06 6.08656e-06 0)
(7.58326e-06 6.62891e-06 0)
(8.04029e-06 7.17195e-06 0)
(8.49673e-06 7.71429e-06 0)
(8.95246e-06 8.25472e-06 0)
(9.40738e-06 8.79221e-06 0)
(9.86151e-06 9.32586e-06 0)
(1.0315e-05 9.85483e-06 0)
(1.07679e-05 1.03783e-05 0)
(1.12204e-05 1.08955e-05 0)
(1.16728e-05 1.14053e-05 0)
(1.21254e-05 1.19068e-05 0)
(1.25781e-05 1.23982e-05 0)
(1.30313e-05 1.28783e-05 0)
(4.15743e-06 2.78102e-06 0)
(4.57826e-06 3.2642e-06 0)
(5.00758e-06 3.76461e-06 0)
(5.43954e-06 4.2793e-06 0)
(5.87597e-06 4.80448e-06 0)
(6.31474e-06 5.33749e-06 0)
(6.75597e-06 5.8757e-06 0)
(7.19873e-06 6.417e-06 0)
(7.64281e-06 6.95954e-06 0)
(8.08779e-06 7.50174e-06 0)
(8.53347e-06 8.04227e-06 0)
(8.97968e-06 8.57997e-06 0)
(9.42637e-06 9.11381e-06 0)
(9.87353e-06 9.64289e-06 0)
(1.03212e-05 1.01663e-05 0)
(1.07695e-05 1.06833e-05 0)
(1.12184e-05 1.11927e-05 0)
(1.1668e-05 1.16937e-05 0)
(1.21182e-05 1.21845e-05 0)
(1.25688e-05 1.26642e-05 0)
(3.90203e-06 2.60704e-06 0)
(4.3006e-06 3.08295e-06 0)
(4.7083e-06 3.5775e-06 0)
(5.12006e-06 4.08739e-06 0)
(5.53754e-06 4.60877e-06 0)
(5.95887e-06 5.13885e-06 0)
(6.38414e-06 5.67485e-06 0)
(6.81251e-06 6.21456e-06 0)
(7.24371e-06 6.75596e-06 0)
(7.6773e-06 7.29738e-06 0)
(8.11302e-06 7.83734e-06 0)
(8.55062e-06 8.3746e-06 0)
(8.98996e-06 8.90804e-06 0)
(9.43091e-06 9.43668e-06 0)
(9.8734e-06 9.95961e-06 0)
(1.03174e-05 1.0476e-05 0)
(1.07628e-05 1.09849e-05 0)
(1.12095e-05 1.14854e-05 0)
(1.16573e-05 1.19761e-05 0)
(1.21055e-05 1.24562e-05 0)
(3.64061e-06 2.44259e-06 0)
(4.01669e-06 2.91187e-06 0)
(4.40266e-06 3.40084e-06 0)
(4.79422e-06 3.906e-06 0)
(5.19282e-06 4.42344e-06 0)
(5.59688e-06 4.95028e-06 0)
(6.00643e-06 5.48366e-06 0)
(6.42068e-06 6.02124e-06 0)
(6.83932e-06 6.56092e-06 0)
(7.26186e-06 7.10093e-06 0)
(7.68797e-06 7.63972e-06 0)
(8.11731e-06 8.17593e-06 0)
(8.54961e-06 8.70841e-06 0)
(8.98465e-06 9.2361e-06 0)
(9.42223e-06 9.7581e-06 0)
(9.86216e-06 1.02736e-05 0)
(1.03043e-05 1.07817e-05 0)
(1.07482e-05 1.12817e-05 0)
(1.11937e-05 1.17726e-05 0)
(1.16397e-05 1.22539e-05 0)
(3.36855e-06 2.28821e-06 0)
(3.72179e-06 2.7513e-06 0)
(4.08588e-06 3.23485e-06 0)
(4.45728e-06 3.73521e-06 0)
(4.83723e-06 4.24847e-06 0)
(5.22436e-06 4.77167e-06 0)
(5.61863e-06 5.3019e-06 0)
(6.01929e-06 5.83678e-06 0)
(6.42595e-06 6.37412e-06 0)
(6.83806e-06 6.91209e-06 0)
(7.25519e-06 7.44907e-06 0)
(7.67688e-06 7.98365e-06 0)
(8.10275e-06 8.51461e-06 0)
(8.53243e-06 9.04089e-06 0)
(8.96559e-06 9.56154e-06 0)
(9.40189e-06 1.00758e-05 0)
(9.84103e-06 1.05829e-05 0)
(1.02825e-05 1.10824e-05 0)
(1.07259e-05 1.15736e-05 0)
(1.117e-05 1.20564e-05 0)
(3.08046e-06 2.14307e-06 0)
(3.41045e-06 2.60037e-06 0)
(3.75254e-06 3.07857e-06 0)
(4.10395e-06 3.57404e-06 0)
(4.46563e-06 4.08285e-06 0)
(4.83641e-06 4.60203e-06 0)
(5.21613e-06 5.12865e-06 0)
(5.60403e-06 5.66028e-06 0)
(5.99961e-06 6.19471e-06 0)
(6.40224e-06 6.73007e-06 0)
(6.81136e-06 7.26468e-06 0)
(7.22638e-06 7.7971e-06 0)
(7.64676e-06 8.32608e-06 0)
(8.07197e-06 8.85051e-06 0)
(8.50151e-06 9.36948e-06 0)
(8.9349e-06 9.88222e-06 0)
(9.37165e-06 1.03881e-05 0)
(9.81118e-06 1.08869e-05 0)
(1.02529e-05 1.13784e-05 0)
(1.06955e-05 1.18629e-05 0)
(2.771e-06 2.00949e-06 0)
(3.0773e-06 2.46084e-06 0)
(3.39736e-06 2.93332e-06 0)
(3.72911e-06 3.42338e-06 0)
(4.07313e-06 3.92712e-06 0)
(4.4284e-06 4.44159e-06 0)
(4.79458e-06 4.96386e-06 0)
(5.17085e-06 5.49149e-06 0)
(5.5566e-06 6.02228e-06 0)
(5.95104e-06 6.5543e-06 0)
(6.35346e-06 7.08589e-06 0)
(6.76312e-06 7.61556e-06 0)
(7.1793e-06 8.14204e-06 0)
(7.60128e-06 8.66422e-06 0)
(8.02838e-06 9.18117e-06 0)
(8.45989e-06 9.69216e-06 0)
(8.89516e-06 1.01967e-05 0)
(9.33344e-06 1.06946e-05 0)
(9.774e-06 1.11861e-05 0)
(1.02157e-05 1.16722e-05 0)
(2.43238e-06 1.88424e-06 0)
(2.71467e-06 2.32954e-06 0)
(3.01292e-06 2.79603e-06 0)
(3.32568e-06 3.28031e-06 0)
(3.65306e-06 3.77853e-06 0)
(3.99409e-06 4.28778e-06 0)
(4.34821e-06 4.80516e-06 0)
(4.71448e-06 5.32826e-06 0)
(5.0921e-06 5.85485e-06 0)
(5.48014e-06 6.38304e-06 0)
(5.87768e-06 6.91113e-06 0)
(6.28382e-06 7.43765e-06 0)
(6.69762e-06 7.96129e-06 0)
(7.11816e-06 8.48094e-06 0)
(7.54453e-06 8.99568e-06 0)
(7.97579e-06 9.50478e-06 0)
(8.41103e-06 1.00078e-05 0)
(8.84925e-06 1.05047e-05 0)
(9.28957e-06 1.0996e-05 0)
(9.73081e-06 1.14831e-05 0)
(2.06017e-06 1.7747e-06 0)
(2.31831e-06 2.21252e-06 0)
(2.59528e-06 2.67153e-06 0)
(2.88994e-06 3.14855e-06 0)
(3.202e-06 3.63984e-06 0)
(3.53035e-06 4.14252e-06 0)
(3.87417e-06 4.65374e-06 0)
(4.23234e-06 5.17112e-06 0)
(4.60383e-06 5.69244e-06 0)
(4.98751e-06 6.21581e-06 0)
(5.38226e-06 6.73953e-06 0)
(5.78696e-06 7.26215e-06 0)
(6.20049e-06 7.78235e-06 0)
(6.6217e-06 8.29904e-06 0)
(7.04942e-06 8.81128e-06 0)
(7.48245e-06 9.31838e-06 0)
(7.91956e-06 9.8199e-06 0)
(8.35941e-06 1.03158e-05 0)
(8.80084e-06 1.08067e-05 0)
(9.24238e-06 1.12941e-05 0)
(2.96804e-07 3.16943e-08 0)
(8.96451e-07 1.96752e-07 0)
(1.53385e-06 5.05142e-07 0)
(2.21724e-06 9.36172e-07 0)
(2.95982e-06 1.4781e-06 0)
(3.76574e-06 2.11156e-06 0)
(4.63818e-06 2.81587e-06 0)
(5.57561e-06 3.5694e-06 0)
(6.57519e-06 4.35032e-06 0)
(7.63162e-06 5.14073e-06 0)
(2.79558e-07 2.833e-08 0)
(8.44994e-07 1.76653e-07 0)
(1.44449e-06 4.56634e-07 0)
(2.08443e-06 8.51524e-07 0)
(2.77684e-06 1.35249e-06 0)
(3.52556e-06 1.94324e-06 0)
(4.33389e-06 2.60587e-06 0)
(5.20042e-06 3.32127e-06 0)
(6.12191e-06 4.06849e-06 0)
(7.09287e-06 4.83333e-06 0)
(2.64053e-07 2.43306e-08 0)
(7.98815e-07 1.56269e-07 0)
(1.36477e-06 4.09694e-07 0)
(1.96617e-06 7.70864e-07 0)
(2.61376e-06 1.23315e-06 0)
(3.31078e-06 1.78277e-06 0)
(4.06077e-06 2.40412e-06 0)
(4.86318e-06 3.08078e-06 0)
(5.71679e-06 3.79369e-06 0)
(6.61564e-06 4.53278e-06 0)
(2.49867e-07 1.96914e-08 0)
(7.56749e-07 1.3581e-07 0)
(1.29301e-06 3.65268e-07 0)
(1.861e-06 6.96468e-07 0)
(2.47028e-06 1.12441e-06 0)
(3.12324e-06 1.63722e-06 0)
(3.82321e-06 2.22097e-06 0)
(4.56921e-06 2.86099e-06 0)
(5.3614e-06 3.53924e-06 0)
(6.19257e-06 4.24698e-06 0)
(2.36603e-07 1.4355e-08 0)
(7.1748e-07 1.14542e-07 0)
(1.22649e-06 3.21276e-07 0)
(1.76419e-06 6.24562e-07 0)
(2.33917e-06 1.02059e-06 0)
(2.953e-06 1.49903e-06 0)
(3.60899e-06 2.04743e-06 0)
(4.30577e-06 2.65278e-06 0)
(5.04489e-06 3.29858e-06 0)
(5.81688e-06 3.97595e-06 0)
(2.24155e-07 8.41995e-09 0)
(6.80681e-07 9.26218e-08 0)
(1.1646e-06 2.77973e-07 0)
(1.67486e-06 5.55649e-07 0)
(2.21918e-06 9.22701e-07 0)
(2.79828e-06 1.3699e-06 0)
(3.4153e-06 1.88588e-06 0)
(4.06829e-06 2.45869e-06 0)
(4.7601e-06 3.0733e-06 0)
(5.47971e-06 3.72024e-06 0)
(2.1227e-07 1.85482e-09 0)
(6.45572e-07 6.97244e-08 0)
(1.10584e-06 2.34428e-07 0)
(1.59061e-06 4.88009e-07 0)
(2.10688e-06 8.28151e-07 0)
(2.65458e-06 1.24648e-06 0)
(3.23681e-06 1.7326e-06 0)
(3.851e-06 2.27533e-06 0)
(4.50089e-06 2.86111e-06 0)
(5.1744e-06 3.47943e-06 0)
(2.00856e-07 -5.25178e-09 0)
(6.11861e-07 4.59544e-08 0)
(1.04966e-06 1.90678e-07 0)
(1.5105e-06 4.216e-07 0)
(2.00077e-06 7.36844e-07 0)
(2.5197e-06 1.12863e-06 0)
(3.07027e-06 1.5873e-06 0)
(3.64949e-06 2.10218e-06 0)
(4.26167e-06 2.66106e-06 0)
(4.89437e-06 3.25258e-06 0)
(1.89765e-07 -1.29014e-08 0)
(5.7911e-07 2.11827e-08 0)
(9.95239e-07 1.46309e-07 0)
(1.43325e-06 3.55636e-07 0)
(1.899e-06 6.47587e-07 0)
(2.39114e-06 1.01481e-06 0)
(2.91255e-06 1.44825e-06 0)
(3.45994e-06 1.93758e-06 0)
(4.03787e-06 2.47171e-06 0)
(4.63407e-06 3.03864e-06 0)
(1.78918e-07 -2.10461e-08 0)
(5.47074e-07 -4.54117e-09 0)
(9.42114e-07 1.01284e-07 0)
(1.35807e-06 2.89958e-07 0)
(1.80035e-06 5.60074e-07 0)
(2.26711e-06 9.04539e-07 0)
(2.76113e-06 1.31475e-06 0)
(3.27902e-06 1.78062e-06 0)
(3.82535e-06 2.29199e-06 0)
(4.38846e-06 2.83648e-06 0)
(1.68226e-07 -2.96856e-08 0)
(5.15494e-07 -3.12776e-08 0)
(8.89803e-07 5.54027e-08 0)
(1.28418e-06 2.24192e-07 0)
(1.70362e-06 4.73732e-07 0)
(2.14592e-06 7.97068e-07 0)
(2.61375e-06 1.18591e-06 0)
(3.1038e-06 1.63033e-06 0)
(3.62049e-06 2.12089e-06 0)
(4.15303e-06 2.64505e-06 0)
(1.57629e-07 -3.88003e-08 0)
(4.84207e-07 -5.90255e-08 0)
(8.37987e-07 8.61085e-09 0)
(1.211e-06 1.5823e-07 0)
(1.60786e-06 3.8837e-07 0)
(2.02613e-06 6.92091e-07 0)
(2.4684e-06 1.06127e-06 0)
(2.9316e-06 1.4861e-06 0)
(3.41994e-06 1.95768e-06 0)
(3.92365e-06 2.46353e-06 0)
(1.47092e-07 -4.84137e-08 0)
(4.53145e-07 -8.78755e-08 0)
(7.86455e-07 -3.92439e-08 0)
(1.13806e-06 9.1873e-08 0)
(1.51221e-06 3.0373e-07 0)
(1.9064e-06 5.89274e-07 0)
(2.3232e-06 9.40416e-07 0)
(2.75992e-06 1.34741e-06 0)
(3.22051e-06 1.80176e-06 0)
(3.69637e-06 2.29118e-06 0)
(1.36615e-07 -5.86053e-08 0)
(4.22353e-07 -1.1793e-07 0)
(7.35134e-07 -8.82066e-08 0)
(1.06502e-06 2.51841e-08 0)
(1.41595e-06 2.1994e-07 0)
(1.78551e-06 4.8875e-07 0)
(2.17635e-06 8.23419e-07 0)
(2.5863e-06 1.21425e-06 0)
(3.01909e-06 1.65301e-06 0)
(3.46736e-06 2.12774e-06 0)
(1.26289e-07 -6.95249e-08 0)
(3.92203e-07 -1.4945e-07 0)
(6.84292e-07 -1.38515e-07 0)
(9.91822e-07 -4.19948e-08 0)
(1.31846e-06 1.3691e-07 0)
(1.66223e-06 3.90438e-07 0)
(2.02596e-06 7.10165e-07 0)
(2.40818e-06 1.0864e-06 0)
(2.81241e-06 1.51114e-06 0)
(3.23259e-06 1.97278e-06 0)
(1.16314e-07 -8.16781e-08 0)
(3.63303e-07 -1.82806e-07 0)
(6.3438e-07 -1.90072e-07 0)
(9.1846e-07 -1.09059e-07 0)
(1.21916e-06 5.55779e-08 0)
(1.53529e-06 2.95436e-07 0)
(1.8701e-06 6.01768e-07 0)
(2.22289e-06 9.64912e-07 0)
(2.59709e-06 1.37705e-06 0)
(2.98795e-06 1.82702e-06 0)
(1.07425e-07 -9.56644e-08 0)
(3.37556e-07 -2.1875e-07 0)
(5.86972e-07 -2.43382e-07 0)
(8.4561e-07 -1.76349e-07 0)
(1.11765e-06 -2.42681e-08 0)
(1.40328e-06 2.03533e-07 0)
(1.70638e-06 4.97964e-07 0)
(2.02718e-06 8.49399e-07 0)
(2.36905e-06 1.25022e-06 0)
(2.72853e-06 1.68976e-06 0)
(1.01191e-07 -1.14069e-07 0)
(3.17168e-07 -2.58437e-07 0)
(5.43584e-07 -2.97376e-07 0)
(7.73589e-07 -2.41185e-07 0)
(1.01322e-06 -9.91884e-08 0)
(1.2645e-06 1.18444e-07 0)
(1.53225e-06 4.02415e-07 0)
(1.81768e-06 7.43325e-07 0)
(2.12414e-06 1.13381e-06 0)
(2.44945e-06 1.56381e-06 0)
(1.05248e-07 -1.38798e-07 0)
(3.10369e-07 -3.03295e-07 0)
(5.09457e-07 -3.53075e-07 0)
(7.04227e-07 -3.05118e-07 0)
(9.05039e-07 -1.71062e-07 0)
(1.11619e-06 3.79307e-08 0)
(1.34352e-06 3.12611e-07 0)
(1.589e-06 6.43913e-07 0)
(1.85599e-06 1.02484e-06 0)
(2.14335e-06 1.44596e-06 0)
(1.35767e-07 -1.83525e-07 0)
(3.22337e-07 -3.54354e-07 0)
(4.87076e-07 -4.03402e-07 0)
(6.37279e-07 -3.57166e-07 0)
(7.9186e-07 -2.28223e-07 0)
(9.5627e-07 -2.64563e-08 0)
(1.13753e-06 2.39536e-07 0)
(1.33793e-06 5.61473e-07 0)
(1.56094e-06 9.32813e-07 0)
(1.806e-06 1.34484e-06 0)
)
;

boundaryField
{
    left
    {
        type            fixedDisplacement;
        value           uniform (0 0 0);
    }
    right
    {
        type            solidTraction;
        tractionSeries  
{
        file            "$FOAM_CASE/constant/timeVsTraction";
        outOfBounds     clamp;
}
        pressure        uniform 0;
        secondOrder     false;
        setEffectiveTraction false;
        relaxationFactor 1;
        value           nonuniform List<vector> 
30
(
(2.45722e-05 1.80293e-05 -9.96933e-21)
(2.39991e-05 1.78229e-05 -1.00291e-20)
(2.3421e-05 1.76179e-05 -1.01352e-20)
(2.28363e-05 1.74106e-05 -1.02805e-20)
(2.22449e-05 1.71986e-05 -1.04653e-20)
(2.16483e-05 1.69798e-05 -1.06905e-20)
(2.10484e-05 1.67528e-05 -1.09581e-20)
(2.0448e-05 1.65171e-05 -1.12701e-20)
(1.98494e-05 1.62725e-05 -1.16285e-20)
(1.92553e-05 1.60197e-05 -1.20353e-20)
(1.86934e-05 1.5771e-05 -1.22434e-20)
(1.81606e-05 1.55265e-05 -1.21974e-20)
(1.76353e-05 1.52783e-05 -1.21671e-20)
(1.71185e-05 1.50278e-05 -1.21518e-20)
(1.66109e-05 1.47765e-05 -1.21541e-20)
(1.61112e-05 1.45262e-05 -1.21728e-20)
(1.56202e-05 1.42778e-05 -1.22054e-20)
(1.5137e-05 1.4033e-05 -1.22517e-20)
(1.46605e-05 1.3793e-05 -1.2309e-20)
(1.41895e-05 1.35586e-05 -1.23751e-20)
(1.37225e-05 1.33307e-05 -1.24471e-20)
(1.3258e-05 1.31097e-05 -1.25222e-20)
(1.27942e-05 1.28957e-05 -1.25967e-20)
(1.23296e-05 1.26885e-05 -1.26674e-20)
(1.18626e-05 1.24877e-05 -1.27306e-20)
(1.1392e-05 1.22924e-05 -1.27837e-20)
(1.09168e-05 1.21015e-05 -1.2823e-20)