/*--------------------------------*- C++ -*----------------------------------*\
  =========                 |
  \\      /  F ield         | OpenFOAM: The Open Source CFD Toolbox
   \\    /   O peration     | Website:  https://openfoam.org
    \\  /    A nd           | Version:  9
     \\/     M anipulation  |
\*---------------------------------------------------------------------------*/
FoamFile
{
    format      ascii;
    class       volVectorField;
    location    "15";
    object      D_0;
}
// * * * * * * * * * * * * * * * * * * * * * * * * * * * * * * * * * * * * * //

dimensions      [0 1 0 0 0 0 0];

internalField   nonuniform List<vector> 
1000
(
(9.4689e-06 3.18187e-06 0)
(8.83538e-06 3.51313e-06 0)
(8.37419e-06 3.79296e-06 0)
(8.0407e-06 4.01124e-06 0)
(7.80273e-06 4.19981e-06 0)
(7.63473e-06 4.36197e-06 0)
(7.52096e-06 4.50809e-06 0)
(7.44865e-06 4.64117e-06 0)
(7.40782e-06 4.76532e-06 0)
(7.39332e-06 4.88301e-06 0)
(8.53355e-06 2.86979e-06 0)
(7.87535e-06 3.10936e-06 0)
(7.39951e-06 3.3213e-06 0)
(7.05686e-06 3.48436e-06 0)
(6.81286e-06 3.62774e-06 0)
(6.63997e-06 3.751e-06 0)
(6.52152e-06 3.86281e-06 0)
(6.44395e-06 3.96507e-06 0)
(6.39699e-06 4.05994e-06 0)
(6.37371e-06 4.1525e-06 0)
(7.57663e-06 2.55449e-06 0)
(6.91295e-06 2.69815e-06 0)
(6.43561e-06 2.83934e-06 0)
(6.09377e-06 2.94699e-06 0)
(5.85124e-06 3.04599e-06 0)
(5.67935e-06 3.13212e-06 0)
(5.56084e-06 3.21185e-06 0)
(5.48181e-06 3.28576e-06 0)
(5.43195e-06 3.35416e-06 0)
(5.40395e-06 3.42274e-06 0)
(6.60534e-06 2.24291e-06 0)
(5.95473e-06 2.28918e-06 0)
(5.48978e-06 2.35898e-06 0)
(5.15923e-06 2.41254e-06 0)
(4.92609e-06 2.46934e-06 0)
(4.76147e-06 2.52105e-06 0)
(4.64793e-06 2.57176e-06 0)
(4.57148e-06 2.62034e-06 0)
(4.5224e-06 2.66561e-06 0)
(4.49271e-06 2.71277e-06 0)
(5.62311e-06 1.94297e-06 0)
(5.00347e-06 1.89196e-06 0)
(4.56592e-06 1.89298e-06 0)
(4.25756e-06 1.89555e-06 0)
(4.0425e-06 1.91414e-06 0)
(3.89169e-06 1.93562e-06 0)
(3.78817e-06 1.9616e-06 0)
(3.71823e-06 1.98891e-06 0)
(3.67301e-06 2.01512e-06 0)
(3.64428e-06 2.04422e-06 0)
(4.6312e-06 1.65215e-06 0)
(4.06207e-06 1.51157e-06 0)
(3.66641e-06 1.44986e-06 0)
(3.39224e-06 1.40854e-06 0)
(3.20414e-06 1.39529e-06 0)
(3.07377e-06 1.39276e-06 0)
(2.98514e-06 1.39965e-06 0)
(2.92531e-06 1.41087e-06 0)
(2.8866e-06 1.42293e-06 0)
(2.86099e-06 1.4383e-06 0)
(3.62702e-06 1.37196e-06 0)
(3.12639e-06 1.15113e-06 0)
(2.79061e-06 1.03896e-06 0)
(2.5632e-06 9.64443e-07 0)
(2.41133e-06 9.28893e-07 0)
(2.30768e-06 9.10454e-07 0)
(2.23823e-06 9.05137e-07 0)
(2.19146e-06 9.06157e-07 0)
(2.16123e-06 9.09372e-07 0)
(2.14038e-06 9.15695e-07 0)
(2.61944e-06 1.08822e-06 0)
(2.20293e-06 8.09747e-07 0)
(1.9445e-06 6.66257e-07 0)
(1.77539e-06 5.76147e-07 0)
(1.66721e-06 5.31214e-07 0)
(1.59462e-06 5.07152e-07 0)
(1.54686e-06 4.97405e-07 0)
(1.51471e-06 4.94532e-07 0)
(1.49389e-06 4.94226e-07 0)
(1.47879e-06 4.96293e-07 0)
(1.58215e-06 7.78612e-07 0)
(1.28589e-06 4.86484e-07 0)
(1.12553e-06 3.38638e-07 0)
(1.02541e-06 2.58801e-07 0)
(9.66019e-07 2.20377e-07 0)
(9.2669e-07 2.01568e-07 0)
(9.0139e-07 1.94351e-07 0)
(8.84065e-07 1.92478e-07 0)
(8.72644e-07 1.92395e-07 0)
(8.63651e-07 1.93584e-07 0)
(5.53525e-07 4.01452e-07 0)
(4.09093e-07 1.89269e-07 0)
(3.59357e-07 9.00768e-08 0)
(3.3235e-07 5.14896e-08 0)
(3.16469e-07 3.46236e-08 0)
(3.05568e-07 2.87851e-08 0)
(2.98319e-07 2.75347e-08 0)
(2.93073e-07 2.83155e-08 0)
(2.89445e-07 2.9381e-08 0)
(2.86262e-07 3.06685e-08 0)
(1.66968e-05 5.15419e-06 0)
(1.66691e-05 5.79548e-06 0)
(1.66499e-05 6.39297e-06 0)
(1.66504e-05 6.93997e-06 0)
(1.66753e-05 7.4421e-06 0)
(1.67266e-05 7.9056e-06 0)
(1.68043e-05 8.33769e-06 0)
(1.69071e-05 8.74465e-06 0)
(1.70339e-05 9.13141e-06 0)
(1.71815e-05 9.5035e-06 0)
(1.61731e-05 5.11178e-06 0)
(1.60988e-05 5.7512e-06 0)
(1.60481e-05 6.34141e-06 0)
(1.60255e-05 6.87739e-06 0)
(1.60336e-05 7.36606e-06 0)
(1.60709e-05 7.81407e-06 0)
(1.6136e-05 8.22932e-06 0)
(1.62259e-05 8.61845e-06 0)
(1.63394e-05 8.9866e-06 0)
(1.64722e-05 9.34002e-06 0)
(1.56177e-05 5.0258e-06 0)
(1.54881e-05 5.66357e-06 0)
(1.53945e-05 6.24176e-06 0)
(1.53381e-05 6.76046e-06 0)
(1.53194e-05 7.23016e-06 0)
(1.53341e-05 7.65842e-06 0)
(1.53794e-05 8.0537e-06 0)
(1.54508e-05 8.42272e-06 0)
(1.55466e-05 8.77083e-06 0)
(1.56608e-05 9.10448e-06 0)
(1.50174e-05 4.90083e-06 0)
(1.48258e-05 5.53551e-06 0)
(1.46824e-05 6.09899e-06 0)
(1.45858e-05 6.59655e-06 0)
(1.45343e-05 7.04343e-06 0)
(1.45211e-05 7.44827e-06 0)
(1.4542e-05 7.82032e-06 0)
(1.45911e-05 8.16637e-06 0)
(1.46661e-05 8.49201e-06 0)
(1.47593e-05 8.80361e-06 0)
(1.43655e-05 4.73804e-06 0)
(1.41059e-05 5.36458e-06 0)
(1.39091e-05 5.90869e-06 0)
(1.37702e-05 6.38026e-06 0)
(1.36839e-05 6.79981e-06 0)
(1.36412e-05 7.17716e-06 0)
(1.36365e-05 7.52253e-06 0)
(1.3662e-05 7.84265e-06 0)
(1.37153e-05 8.14339e-06 0)
(1.37871e-05 8.4307e-06 0)
(1.36609e-05 4.54122e-06 0)
(1.33295e-05 5.15097e-06 0)
(1.30782e-05 5.6701e-06 0)
(1.2897e-05 6.1112e-06 0)
(1.27764e-05 6.49969e-06 0)
(1.27046e-05 6.84629e-06 0)
(1.26745e-05 7.16212e-06 0)
(1.2677e-05 7.45371e-06 0)
(1.27091e-05 7.72734e-06 0)
(1.276e-05 7.98819e-06 0)
(1.29055e-05 4.31336e-06 0)
(1.25012e-05 4.89468e-06 0)
(1.21966e-05 5.3817e-06 0)
(1.19751e-05 5.78739e-06 0)
(1.18223e-05 6.14128e-06 0)
(1.17235e-05 6.45425e-06 0)
(1.16699e-05 6.73816e-06 0)
(1.16512e-05 6.99921e-06 0)
(1.16636e-05 7.24394e-06 0)
(1.16955e-05 7.47667e-06 0)
(1.21032e-05 4.05872e-06 0)
(1.16286e-05 4.59813e-06 0)
(1.12741e-05 5.04509e-06 0)
(1.10158e-05 5.41053e-06 0)
(1.08341e-05 5.72667e-06 0)
(1.07115e-05 6.00376e-06 0)
(1.06371e-05 6.25408e-06 0)
(1.05998e-05 6.4831e-06 0)
(1.05948e-05 6.69774e-06 0)
(1.06102e-05 6.9009e-06 0)
(1.12592e-05 3.78171e-06 0)
(1.07205e-05 4.26503e-06 0)
(1.03219e-05 4.6637e-06 0)
(1.00318e-05 4.98412e-06 0)
(9.82569e-06 5.25972e-06 0)
(9.68308e-06 5.49926e-06 0)
(9.59144e-06 5.71485e-06 0)
(9.5387e-06 5.91128e-06 0)
(9.51881e-06 6.09496e-06 0)
(9.52074e-06 6.26816e-06 0)
(1.0379e-05 3.48747e-06 0)
(9.78639e-06 3.90095e-06 0)
(9.35151e-06 4.2436e-06 0)
(9.03586e-06 4.51472e-06 0)
(8.81067e-06 4.74757e-06 0)
(8.65266e-06 4.94853e-06 0)
(8.54767e-06 5.12919e-06 0)
(8.483e-06 5.29298e-06 0)
(8.45122e-06 5.44621e-06 0)
(8.44361e-06 5.58754e-06 0)
(1.7358e-05 9.8614e-06 0)
(1.75606e-05 1.02166e-05 0)
(1.77789e-05 1.05661e-05 0)
(1.80109e-05 1.09116e-05 0)
(1.82555e-05 1.12548e-05 0)
(1.85114e-05 1.15967e-05 0)
(1.87774e-05 1.19385e-05 0)
(1.90524e-05 1.2281e-05 0)
(1.93355e-05 1.26249e-05 0)
(1.96257e-05 1.29708e-05 0)
(1.99222e-05 1.33193e-05 0)
(2.02242e-05 1.36707e-05 0)
(2.05309e-05 1.40256e-05 0)
(2.08417e-05 1.4384e-05 0)
(2.11558e-05 1.47464e-05 0)
(2.14725e-05 1.51126e-05 0)
(2.17912e-05 1.54827e-05 0)
(2.21111e-05 1.58565e-05 0)
(2.24317e-05 1.62332e-05 0)
(2.27523e-05 1.66116e-05 0)
(1.66561e-05 9.68437e-06 0)
(1.68838e-05 1.00336e-05 0)
(1.71236e-05 1.03776e-05 0)
(1.73738e-05 1.07181e-05 0)
(1.76338e-05 1.10571e-05 0)
(1.79026e-05 1.13954e-05 0)
(1.81795e-05 1.17343e-05 0)
(1.84635e-05 1.20745e-05 0)
(1.87542e-05 1.24166e-05 0)
(1.90508e-05 1.27614e-05 0)
(1.93527e-05 1.31092e-05 0)
(1.96592e-05 1.34605e-05 0)
(1.99699e-05 1.38156e-05 0)
(2.02842e-05 1.41749e-05 0)
(2.06016e-05 1.45385e-05 0)
(2.09216e-05 1.49064e-05 0)
(2.12437e-05 1.52787e-05 0)
(2.15674e-05 1.56551e-05 0)
(2.18921e-05 1.60349e-05 0)
(2.22173e-05 1.64172e-05 0)
(1.5855e-05 9.43861e-06 0)
(1.61148e-05 9.78849e-06 0)
(1.63835e-05 1.01332e-05 0)
(1.66585e-05 1.04744e-05 0)
(1.69405e-05 1.08143e-05 0)
(1.72283e-05 1.11536e-05 0)
(1.75219e-05 1.14937e-05 0)
(1.78206e-05 1.18353e-05 0)
(1.81242e-05 1.21792e-05 0)
(1.84321e-05 1.25259e-05 0)
(1.87442e-05 1.28759e-05 0)
(1.90598e-05 1.32297e-05 0)
(1.93789e-05 1.35876e-05 0)
(1.97009e-05 1.395e-05 0)
(2.00256e-05 1.43169e-05 0)
(2.03526e-05 1.46887e-05 0)
(2.06817e-05 1.50653e-05 0)
(2.10123e-05 1.54465e-05 0)
(2.13442e-05 1.58322e-05 0)
(2.16764e-05 1.62216e-05 0)
(1.49662e-05 9.12953e-06 0)
(1.52643e-05 9.48507e-06 0)
(1.5568e-05 9.83565e-06 0)
(1.58737e-05 1.0182e-05 0)
(1.61833e-05 1.05271e-05 0)
(1.64956e-05 1.08714e-05 0)
(1.68111e-05 1.12164e-05 0)
(1.71293e-05 1.15627e-05 0)
(1.74504e-05 1.19114e-05 0)
(1.77742e-05 1.22629e-05 0)
(1.81006e-05 1.26178e-05 0)
(1.84293e-05 1.29766e-05 0)
(1.87604e-05 1.33397e-05 0)
(1.90937e-05 1.37074e-05 0)
(1.9429e-05 1.408e-05 0)
(1.97662e-05 1.44577e-05 0)
(2.01051e-05 1.48408e-05 0)
(2.04453e-05 1.52292e-05 0)
(2.07866e-05 1.56231e-05 0)
(2.1128e-05 1.60223e-05 0)
(1.40092e-05 8.7512e-06 0)
(1.43501e-05 9.11814e-06 0)
(1.46935e-05 9.48042e-06 0)
(1.50342e-05 9.83718e-06 0)
(1.53757e-05 1.01923e-05 0)
(1.57165e-05 1.05458e-05 0)
(1.60578e-05 1.08997e-05 0)
(1.63994e-05 1.12546e-05 0)
(1.67416e-05 1.16115e-05 0)
(1.70846e-05 1.19709e-05 0)
(1.74285e-05 1.23337e-05 0)
(1.77734e-05 1.27002e-05 0)
(1.81194e-05 1.3071e-05 0)
(1.84666e-05 1.34465e-05 0)
(1.8815e-05 1.3827e-05 0)
(1.91646e-05 1.42129e-05 0)
(1.95154e-05 1.46046e-05 0)
(1.98671e-05 1.50023e-05 0)
(2.02196e-05 1.54065e-05 0)
(2.05721e-05 1.58175e-05 0)
(1.29995e-05 8.30583e-06 0)
(1.33865e-05 8.68952e-06 0)
(1.3773e-05 9.06893e-06 0)
(1.4152e-05 9.44093e-06 0)
(1.45287e-05 9.81062e-06 0)
(1.49011e-05 1.01777e-05 0)
(1.52713e-05 1.05444e-05 0)
(1.56391e-05 1.09113e-05 0)
(1.60053e-05 1.12798e-05 0)
(1.63701e-05 1.16503e-05 0)
(1.67341e-05 1.20238e-05 0)
(1.70975e-05 1.24008e-05 0)
(1.74607e-05 1.27818e-05 0)
(1.78238e-05 1.31674e-05 0)
(1.81872e-05 1.3558e-05 0)
(1.85509e-05 1.39542e-05 0)
(1.89152e-05 1.43564e-05 0)
(1.92799e-05 1.47652e-05 0)
(1.96451e-05 1.51815e-05 0)
(2.00102e-05 1.56058e-05 0)
(1.19538e-05 7.79424e-06 0)
(1.23886e-05 8.20007e-06 0)
(1.28203e-05 8.60189e-06 0)
(1.32397e-05 8.99409e-06 0)
(1.36537e-05 9.38277e-06 0)
(1.406e-05 9.76755e-06 0)
(1.44612e-05 1.01508e-05 0)
(1.48573e-05 1.05335e-05 0)
(1.52494e-05 1.09167e-05 0)
(1.5638e-05 1.13015e-05 0)
(1.60239e-05 1.16885e-05 0)
(1.64075e-05 1.20786e-05 0)
(1.67894e-05 1.24724e-05 0)
(1.71699e-05 1.28705e-05 0)
(1.75496e-05 1.32734e-05 0)
(1.79288e-05 1.36818e-05 0)
(1.83077e-05 1.40963e-05 0)
(1.86865e-05 1.45178e-05 0)
(1.90654e-05 1.49475e-05 0)
(1.94442e-05 1.53861e-05 0)
(1.0888e-05 7.22103e-06 0)
(1.13706e-05 7.65406e-06 0)
(1.18481e-05 8.08251e-06 0)
(1.23088e-05 8.4995e-06 0)
(1.27611e-05 8.91116e-06 0)
(1.32025e-05 9.31766e-06 0)
(1.36361e-05 9.7212e-06 0)
(1.40619e-05 1.0123e-05 0)
(1.44814e-05 1.05243e-05 0)
(1.48952e-05 1.09262e-05 0)
(1.53043e-05 1.13296e-05 0)
(1.57093e-05 1.17354e-05 0)
(1.6111e-05 1.21443e-05 0)
(1.651e-05 1.2557e-05 0)
(1.69069e-05 1.29743e-05 0)
(1.73023e-05 1.33967e-05 0)
(1.76965e-05 1.38252e-05 0)
(1.80901e-05 1.42606e-05 0)
(1.84834e-05 1.47046e-05 0)
(1.88766e-05 1.5158e-05 0)
(9.81788e-06 6.59156e-06 0)
(1.03471e-05 7.05711e-06 0)
(1.08692e-05 7.51549e-06 0)
(1.13715e-05 7.96148e-06 0)
(1.18619e-05 8.39943e-06 0)
(1.23389e-05 8.83084e-06 0)
(1.28051e-05 9.25766e-06 0)
(1.32612e-05 9.68148e-06 0)
(1.37086e-05 1.01037e-05 0)
(1.41482e-05 1.05255e-05 0)
(1.45812e-05 1.0948e-05 0)
(1.50082e-05 1.1372e-05 0)
(1.54304e-05 1.17984e-05 0)
(1.58484e-05 1.2228e-05 0)
(1.62631e-05 1.26615e-05 0)
(1.66751e-05 1.30998e-05 0)
(1.70852e-05 1.35437e-05 0)
(1.74939e-05 1.39943e-05 0)
(1.79019e-05 1.44533e-05 0)
(1.831e-05 1.49217e-05 0)
(8.75607e-06 5.9155e-06 0)
(9.32947e-06 6.41689e-06 0)
(9.89148e-06 6.90616e-06 0)
(1.04343e-05 7.38426e-06 0)
(1.09621e-05 7.85203e-06 0)
(1.14749e-05 8.31175e-06 0)
(1.19743e-05 8.7651e-06 0)
(1.24613e-05 9.21386e-06 0)
(1.29373e-05 9.65961e-06 0)
(1.34033e-05 1.01037e-05 0)
(1.38605e-05 1.05474e-05 0)
(1.43101e-05 1.09917e-05 0)
(1.4753e-05 1.14375e-05 0)
(1.51903e-05 1.18858e-05 0)
(1.56228e-05 1.23373e-05 0)
(1.60516e-05 1.27928e-05 0)
(1.64774e-05 1.32534e-05 0)
(1.69013e-05 1.37201e-05 0)
(1.73239e-05 1.41946e-05 0)
(1.77468e-05 1.46779e-05 0)
(7.93701e-06 5.40851e-06 0)
(8.53491e-06 5.93596e-06 0)
(9.11788e-06 6.4427e-06 0)
(9.68274e-06 6.9391e-06 0)
(1.02318e-05 7.42512e-06 0)
(1.07652e-05 7.90288e-06 0)
(1.12843e-05 8.37397e-06 0)
(1.17899e-05 8.83993e-06 0)
(1.22833e-05 9.30223e-06 0)
(1.27656e-05 9.76214e-06 0)
(1.3238e-05 1.02208e-05 0)
(1.37015e-05 1.06793e-05 0)
(1.41572e-05 1.11384e-05 0)
(1.46062e-05 1.15991e-05 0)
(1.50495e-05 1.20621e-05 0)
(1.54881e-05 1.25281e-05 0)
(1.5923e-05 1.29981e-05 0)
(1.63555e-05 1.34731e-05 0)
(1.67862e-05 1.39545e-05 0)
(1.72174e-05 1.44432e-05 0)
(7.39046e-06 5.10513e-06 0)
(7.98843e-06 5.63252e-06 0)
(8.57158e-06 6.14341e-06 0)
(9.13828e-06 6.64541e-06 0)
(9.69015e-06 7.13836e-06 0)
(1.0227e-05 7.62371e-06 0)
(1.07501e-05 8.10275e-06 0)
(1.12599e-05 8.57669e-06 0)
(1.17576e-05 9.04675e-06 0)
(1.22441e-05 9.51401e-06 0)
(1.27204e-05 9.97948e-06 0)
(1.31875e-05 1.0444e-05 0)
(1.36465e-05 1.09085e-05 0)
(1.40983e-05 1.13736e-05 0)
(1.4544e-05 1.184e-05 0)
(1.49848e-05 1.23084e-05 0)
(1.54214e-05 1.27796e-05 0)
(1.58553e-05 1.32543e-05 0)
(1.62874e-05 1.37338e-05 0)
(1.67201e-05 1.42186e-05 0)
(6.90806e-06 4.81386e-06 0)
(7.49525e-06 5.33968e-06 0)
(8.07243e-06 5.85204e-06 0)
(8.63477e-06 6.35744e-06 0)
(9.18439e-06 6.85537e-06 0)
(9.72025e-06 7.34673e-06 0)
(1.02434e-05 7.83246e-06 0)
(1.0754e-05 8.31342e-06 0)
(1.12529e-05 8.79055e-06 0)
(1.17409e-05 9.2647e-06 0)
(1.22189e-05 9.73665e-06 0)
(1.26877e-05 1.02071e-05 0)
(1.31484e-05 1.06768e-05 0)
(1.36017e-05 1.11463e-05 0)
(1.40489e-05 1.16162e-05 0)
(1.44908e-05 1.2087e-05 0)
(1.49285e-05 1.25592e-05 0)
(1.53634e-05 1.30335e-05 0)
(1.57964e-05 1.35106e-05 0)
(1.62302e-05 1.3991e-05 0)
(6.47575e-06 4.53336e-06 0)
(7.04885e-06 5.05491e-06 0)
(7.61564e-06 5.56679e-06 0)
(8.16958e-06 6.07419e-06 0)
(8.71299e-06 6.5759e-06 0)
(9.24416e-06 7.07233e-06 0)
(9.76395e-06 7.56395e-06 0)
(1.02722e-05 8.05128e-06 0)
(1.07697e-05 8.53495e-06 0)
(1.12568e-05 9.01554e-06 0)
(1.17344e-05 9.49365e-06 0)
(1.22031e-05 9.96982e-06 0)
(1.26639e-05 1.04445e-05 0)
(1.31175e-05 1.09183e-05 0)
(1.3565e-05 1.13915e-05 0)
(1.40073e-05 1.18645e-05 0)
(1.44454e-05 1.23376e-05 0)
(1.48807e-05 1.28113e-05 0)
(1.53141e-05 1.32859e-05 0)
(1.57484e-05 1.37614e-05 0)
(6.08855e-06 4.26658e-06 0)
(6.64439e-06 4.78229e-06 0)
(7.19724e-06 5.29201e-06 0)
(7.73938e-06 5.79969e-06 0)
(8.27328e-06 6.30361e-06 0)
(8.79668e-06 6.80371e-06 0)
(9.31026e-06 7.30003e-06 0)
(9.81361e-06 7.79271e-06 0)
(1.03072e-05 8.28206e-06 0)
(1.07913e-05 8.76841e-06 0)
(1.12666e-05 9.25211e-06 0)
(1.17336e-05 9.73351e-06 0)
(1.21931e-05 1.02129e-05 0)
(1.26458e-05 1.06907e-05 0)
(1.30926e-05 1.11669e-05 0)
(1.35344e-05 1.1642e-05 0)
(1.39722e-05 1.21159e-05 0)
(1.44071e-05 1.25889e-05 0)
(1.48409e-05 1.30605e-05 0)
(1.52755e-05 1.35311e-05 0)
(5.73899e-06 4.01337e-06 0)
(6.27585e-06 4.52176e-06 0)
(6.81244e-06 5.02789e-06 0)
(7.34043e-06 5.53446e-06 0)
(7.86233e-06 6.0393e-06 0)
(8.37551e-06 6.54191e-06 0)
(8.88053e-06 7.04186e-06 0)
(9.37671e-06 7.53895e-06 0)
(9.86438e-06 8.03316e-06 0)
(1.03436e-05 8.52455e-06 0)
(1.08149e-05 9.01323e-06 0)
(1.12787e-05 9.49934e-06 0)
(1.17356e-05 9.98302e-06 0)
(1.21863e-05 1.04644e-05 0)
(1.26316e-05 1.09435e-05 0)
(1.30722e-05 1.14203e-05 0)
(1.35091e-05 1.18948e-05 0)
(1.39436e-05 1.23668e-05 0)
(1.43765e-05 1.28357e-05 0)
(1.48103e-05 1.33015e-05 0)
(5.42102e-06 3.7739e-06 0)
(5.93782e-06 4.27412e-06 0)
(6.45651e-06 4.77559e-06 0)
(6.96862e-06 5.27989e-06 0)
(7.47662e-06 5.78447e-06 0)
(7.97769e-06 6.28843e-06 0)
(8.47224e-06 6.79093e-06 0)
(8.95945e-06 7.29144e-06 0)
(9.43948e-06 7.78962e-06 0)
(9.91227e-06 8.28524e-06 0)
(1.03782e-05 8.7782e-06 0)
(1.08375e-05 9.26841e-06 0)
(1.12907e-05 9.75582e-06 0)
(1.17384e-05 1.02404e-05 0)
(1.21813e-05 1.07219e-05 0)
(1.262e-05 1.12003e-05 0)
(1.30555e-05 1.16752e-05 0)
(1.34888e-05 1.21463e-05 0)
(1.39206e-05 1.26126e-05 0)
(1.43534e-05 1.30737e-05 0)
(5.12869e-06 3.54759e-06 0)
(5.6249e-06 4.03908e-06 0)
(6.1247e-06 4.53512e-06 0)
(6.6198e-06 5.03624e-06 0)
(7.11253e-06 5.5396e-06 0)
(7.60006e-06 6.04394e-06 0)
(8.08268e-06 6.54804e-06 0)
(8.55946e-06 7.05106e-06 0)
(9.03045e-06 7.55234e-06 0)
(9.49548e-06 8.05141e-06 0)
(9.95475e-06 8.54792e-06 0)
(1.04085e-05 9.04158e-06 0)
(1.08571e-05 9.53216e-06 0)
(1.1301e-05 1.00194e-05 0)
(1.17407e-05 1.0503e-05 0)
(1.2177e-05 1.09827e-05 0)
(1.26105e-05 1.14579e-05 0)
(1.30422e-05 1.1928e-05 0)
(1.34727e-05 1.23919e-05 0)
(1.39041e-05 1.28489e-05 0)
(4.8567e-06 3.33375e-06 0)
(5.33213e-06 3.81636e-06 0)
(5.81245e-06 4.3065e-06 0)
(6.28976e-06 4.80379e-06 0)
(6.76627e-06 5.30517e-06 0)
(7.23921e-06 5.80907e-06 0)
(7.70879e-06 6.31391e-06 0)
(8.17403e-06 6.81857e-06 0)
(8.63488e-06 7.32213e-06 0)
(9.0911e-06 7.82386e-06 0)
(9.54279e-06 8.32318e-06 0)
(9.99006e-06 8.81963e-06 0)
(1.04332e-05 9.31277e-06 0)
(1.08726e-05 9.80221e-06 0)
(1.13087e-05 1.02875e-05 0)
(1.1742e-05 1.07682e-05 0)
(1.21731e-05 1.12435e-05 0)
(1.26028e-05 1.17128e-05 0)
(1.30316e-05 1.21745e-05 0)
(1.34611e-05 1.26279e-05 0)
(4.60013e-06 3.13157e-06 0)
(5.05478e-06 3.60541e-06 0)
(5.51532e-06 4.08943e-06 0)
(5.97438e-06 4.58247e-06 0)
(6.43403e-06 5.08131e-06 0)
(6.89164e-06 5.58407e-06 0)
(7.34737e-06 6.08892e-06 0)
(7.80023e-06 6.59447e-06 0)
(8.25012e-06 7.09952e-06 0)
(8.69673e-06 7.60315e-06 0)
(9.14007e-06 8.10457e-06 0)
(9.58019e-06 8.60313e-06 0)
(1.00173e-05 9.09823e-06 0)
(1.04516e-05 9.58934e-06 0)
(1.08835e-05 1.00759e-05 0)
(1.13134e-05 1.05572e-05 0)
(1.17417e-05 1.10326e-05 0)
(1.21692e-05 1.15011e-05 0)
(1.2596e-05 1.1961e-05 0)
(1.30235e-05 1.24115e-05 0)
(4.35449e-06 2.94026e-06 0)
(4.78843e-06 3.40565e-06 0)
(5.22905e-06 3.88354e-06 0)
(5.66957e-06 4.37211e-06 0)
(6.11195e-06 4.868e-06 0)
(6.55373e-06 5.36911e-06 0)
(6.99506e-06 5.87333e-06 0)
(7.43497e-06 6.37907e-06 0)
(7.87331e-06 6.88491e-06 0)
(8.30972e-06 7.38972e-06 0)
(8.74417e-06 7.89254e-06 0)
(9.17662e-06 8.39254e-06 0)
(9.60717e-06 8.889e-06 0)
(1.0036e-05 9.38124e-06 0)
(1.04634e-05 9.8686e-06 0)
(1.08896e-05 1.03504e-05 0)
(1.13149e-05 1.08256e-05 0)
(1.17398e-05 1.12934e-05 0)
(1.21644e-05 1.1752e-05 0)
(1.25897e-05 1.22004e-05 0)
(4.11554e-06 2.75913e-06 0)
(4.52884e-06 3.21657e-06 0)
(4.94946e-06 3.68847e-06 0)
(5.37129e-06 4.17248e-06 0)
(5.79615e-06 4.66515e-06 0)
(6.22181e-06 5.16417e-06 0)
(6.64839e-06 5.66723e-06 0)
(7.07499e-06 6.17255e-06 0)
(7.50141e-06 6.67852e-06 0)
(7.92728e-06 7.18384e-06 0)
(8.3525e-06 7.68738e-06 0)
(8.77695e-06 8.18818e-06 0)
(9.20068e-06 8.68539e-06 0)
(9.62376e-06 9.17825e-06 0)
(1.00463e-05 9.66598e-06 0)
(1.04686e-05 1.01478e-05 0)
(1.08907e-05 1.06228e-05 0)
(1.13129e-05 1.10901e-05 0)
(1.17353e-05 1.15478e-05 0)
(1.21582e-05 1.1995e-05 0)
(3.87919e-06 2.58757e-06 0)
(4.27186e-06 3.03763e-06 0)
(4.67243e-06 3.50379e-06 0)
(5.07548e-06 3.98326e-06 0)
(5.48269e-06 4.47254e-06 0)
(5.8921e-06 4.96913e-06 0)
(6.30379e-06 5.47057e-06 0)
(6.71691e-06 5.97491e-06 0)
(7.13127e-06 6.4804e-06 0)
(7.54645e-06 6.98559e-06 0)
(7.9623e-06 7.48921e-06 0)
(8.37864e-06 7.9902e-06 0)
(8.79543e-06 8.48759e-06 0)
(9.21265e-06 8.98054e-06 0)
(9.63034e-06 9.46823e-06 0)
(1.00486e-05 9.94985e-06 0)
(1.04674e-05 1.04245e-05 0)
(1.08869e-05 1.08912e-05 0)
(1.1307e-05 1.13485e-05 0)
(1.17275e-05 1.17953e-05 0)
(3.64144e-06 2.42532e-06 0)
(4.01337e-06 2.86861e-06 0)
(4.39381e-06 3.32929e-06 0)
(4.77804e-06 3.80428e-06 0)
(5.16759e-06 4.29001e-06 0)
(5.56074e-06 4.78386e-06 0)
(5.95756e-06 5.28324e-06 0)
(6.35726e-06 5.78608e-06 0)
(6.75961e-06 6.29051e-06 0)
(7.16418e-06 6.79496e-06 0)
(7.57074e-06 7.29806e-06 0)
(7.97905e-06 7.79864e-06 0)
(8.38898e-06 8.29565e-06 0)
(8.80041e-06 8.78819e-06 0)
(9.21327e-06 9.2754e-06 0)
(9.62754e-06 9.75649e-06 0)
(1.00431e-05 1.02306e-05 0)
(1.04599e-05 1.06969e-05 0)
(1.08777e-05 1.1154e-05 0)
(1.12959e-05 1.16013e-05 0)
(3.39809e-06 2.27194e-06 0)
(3.74907e-06 2.70904e-06 0)
(4.10926e-06 3.16452e-06 0)
(4.47466e-06 3.6351e-06 0)
(4.84662e-06 4.11715e-06 0)
(5.22367e-06 4.60798e-06 0)
(5.60584e-06 5.1049e-06 0)
(5.99239e-06 5.60576e-06 0)
(6.38303e-06 6.10858e-06 0)
(6.7773e-06 6.61172e-06 0)
(7.17489e-06 7.11371e-06 0)
(7.57549e-06 7.61332e-06 0)
(7.97886e-06 8.10943e-06 0)
(8.38478e-06 8.60109e-06 0)
(8.79306e-06 9.08743e-06 0)
(9.20354e-06 9.56768e-06 0)
(9.61604e-06 1.00411e-05 0)
(1.00303e-05 1.05069e-05 0)
(1.04459e-05 1.09642e-05 0)
(1.0862e-05 1.14125e-05 0)
(3.14484e-06 2.12792e-06 0)
(3.47454e-06 2.55926e-06 0)
(3.81434e-06 3.00968e-06 0)
(4.16096e-06 3.47578e-06 0)
(4.51553e-06 3.95393e-06 0)
(4.8768e-06 4.44136e-06 0)
(5.24472e-06 4.93536e-06 0)
(5.61859e-06 5.43369e-06 0)
(5.99806e-06 5.93434e-06 0)
(6.38261e-06 6.43557e-06 0)
(6.77183e-06 6.93588e-06 0)
(7.1653e-06 7.43395e-06 0)
(7.56267e-06 7.92865e-06 0)
(7.96358e-06 8.41898e-06 0)
(8.36774e-06 8.90407e-06 0)
(8.77483e-06 9.38318e-06 0)
(9.18456e-06 9.85565e-06 0)
(9.59649e-06 1.0321e-05 0)
(1.00102e-05 1.07786e-05 0)
(1.04245e-05 1.12283e-05 0)
(2.87667e-06 1.99252e-06 0)
(3.1847e-06 2.41844e-06 0)
(3.50399e-06 2.86388e-06 0)
(3.83198e-06 3.32543e-06 0)
(4.16952e-06 3.79942e-06 0)
(4.51555e-06 4.28311e-06 0)
(4.8699e-06 4.77374e-06 0)
(5.23187e-06 5.26905e-06 0)
(5.60101e-06 5.76698e-06 0)
(5.97671e-06 6.26577e-06 0)
(6.35846e-06 6.76387e-06 0)
(6.7457e-06 7.25993e-06 0)
(7.13794e-06 7.75278e-06 0)
(7.53469e-06 8.2414e-06 0)
(7.93548e-06 8.72491e-06 0)
(8.33985e-06 9.20261e-06 0)
(8.74735e-06 9.67396e-06 0)
(9.15744e-06 1.01386e-05 0)
(9.56954e-06 1.05965e-05 0)
(9.98252e-06 1.10479e-05 0)
(2.58861e-06 1.86787e-06 0)
(2.87455e-06 2.28825e-06 0)
(3.1733e-06 2.72836e-06 0)
(3.48295e-06 3.18486e-06 0)
(3.80403e-06 3.65414e-06 0)
(4.13559e-06 4.13343e-06 0)
(4.47731e-06 4.62e-06 0)
(4.82844e-06 5.11159e-06 0)
(5.1884e-06 5.60611e-06 0)
(5.55646e-06 6.1018e-06 0)
(5.93196e-06 6.59708e-06 0)
(6.31421e-06 7.09058e-06 0)
(6.70253e-06 7.5811e-06 0)
(7.09626e-06 8.06762e-06 0)
(7.49476e-06 8.54925e-06 0)
(7.89738e-06 9.02533e-06 0)
(8.30349e-06 9.49537e-06 0)
(8.71241e-06 9.95923e-06 0)
(9.12346e-06 1.04171e-05 0)
(9.53552e-06 1.08699e-05 0)
(2.27338e-06 1.75097e-06 0)
(2.53693e-06 2.16572e-06 0)
(2.81535e-06 2.60024e-06 0)
(3.10728e-06 3.05137e-06 0)
(3.41284e-06 3.5155e-06 0)
(3.73111e-06 3.98993e-06 0)
(4.06158e-06 4.47195e-06 0)
(4.40338e-06 4.9593e-06 0)
(4.75576e-06 5.44993e-06 0)
(5.11784e-06 5.94204e-06 0)
(5.48879e-06 6.43406e-06 0)
(5.86774e-06 6.92462e-06 0)
(6.25384e-06 7.41249e-06 0)
(6.64623e-06 7.89665e-06 0)
(7.04405e-06 8.37622e-06 0)
(7.44642e-06 8.85053e-06 0)
(7.85251e-06 9.31916e-06 0)
(8.26137e-06 9.78206e-06 0)
(8.67219e-06 1.02398e-05 0)
(9.08386e-06 1.06936e-05 0)
(1.92687e-06 1.64872e-06 0)
(2.16788e-06 2.0565e-06 0)
(2.42645e-06 2.48406e-06 0)
(2.70149e-06 2.92842e-06 0)
(2.99275e-06 3.38609e-06 0)
(3.29919e-06 3.85441e-06 0)
(3.62005e-06 4.33068e-06 0)
(3.95428e-06 4.8127e-06 0)
(4.30093e-06 5.29841e-06 0)
(4.65894e-06 5.78603e-06 0)
(5.02728e-06 6.27399e-06 0)
(5.40489e-06 6.7609e-06 0)
(5.79073e-06 7.24558e-06 0)
(6.18373e-06 7.72697e-06 0)
(6.58281e-06 8.20421e-06 0)
(6.98684e-06 8.67666e-06 0)
(7.39467e-06 9.1439e-06 0)
(7.80505e-06 9.60589e-06 0)
(8.21691e-06 1.00632e-05 0)
(8.62886e-06 1.05173e-05 0)
(2.76729e-07 2.92829e-08 0)
(8.35847e-07 1.8249e-07 0)
(1.43008e-06 4.69148e-07 0)
(2.06708e-06 8.70078e-07 0)
(2.75916e-06 1.37442e-06 0)
(3.5102e-06 1.96421e-06 0)
(4.32324e-06 2.62022e-06 0)
(5.19688e-06 3.3223e-06 0)
(6.12853e-06 4.05009e-06 0)
(7.11326e-06 4.78689e-06 0)
(2.60667e-07 2.61518e-08 0)
(7.87914e-07 1.63799e-07 0)
(1.34686e-06 4.24051e-07 0)
(1.94343e-06 7.91372e-07 0)
(2.58882e-06 1.25759e-06 0)
(3.28664e-06 1.8076e-06 0)
(4.03998e-06 2.42473e-06 0)
(4.84758e-06 3.09122e-06 0)
(5.70646e-06 3.78752e-06 0)
(6.61146e-06 4.50037e-06 0)
(2.46227e-07 2.24341e-08 0)
(7.44903e-07 1.44846e-07 0)
(1.27261e-06 3.80408e-07 0)
(1.83332e-06 7.16365e-07 0)
(2.43701e-06 1.14659e-06 0)
(3.08671e-06 1.65828e-06 0)
(3.78575e-06 2.23693e-06 0)
(4.53362e-06 2.86726e-06 0)
(5.32925e-06 3.53151e-06 0)
(6.16703e-06 4.22028e-06 0)
(2.33013e-07 1.81184e-08 0)
(7.05719e-07 1.25814e-07 0)
(1.20578e-06 3.3908e-07 0)
(1.73538e-06 6.47151e-07 0)
(2.30342e-06 1.0454e-06 0)
(2.91212e-06 1.52281e-06 0)
(3.5646e-06 2.06642e-06 0)
(4.25995e-06 2.66258e-06 0)
(4.99836e-06 3.29448e-06 0)
(5.77308e-06 3.95396e-06 0)
(2.20659e-07 1.31547e-08 0)
(6.6914e-07 1.06025e-07 0)
(1.14383e-06 2.98147e-07 0)
(1.64523e-06 5.80239e-07 0)
(2.18134e-06 9.48784e-07 0)
(2.75363e-06 1.39418e-06 0)
(3.36517e-06 1.90485e-06 0)
(4.01469e-06 2.46868e-06 0)
(4.70368e-06 3.0703e-06 0)
(5.42327e-06 3.70143e-06 0)
(2.09063e-07 7.63158e-09 0)
(6.34862e-07 8.56207e-08 0)
(1.08618e-06 2.57839e-07 0)
(1.56204e-06 5.16091e-07 0)
(2.06962e-06 8.57653e-07 0)
(2.60957e-06 1.27395e-06 0)
(3.18485e-06 1.75441e-06 0)
(3.7936e-06 2.2879e-06 0)
(4.43853e-06 2.86044e-06 0)
(5.10934e-06 3.46317e-06 0)
(1.97993e-07 1.52307e-09 0)
(6.02159e-07 6.4302e-08 0)
(1.03146e-06 2.17296e-07 0)
(1.48358e-06 4.53111e-07 0)
(1.96504e-06 7.69613e-07 0)
(2.47578e-06 1.15902e-06 0)
(3.01866e-06 1.61165e-06 0)
(3.5913e-06 2.11711e-06 0)
(4.19721e-06 2.66276e-06 0)
(4.82508e-06 3.23879e-06 0)
(1.87361e-07 -5.09301e-09 0)
(5.70761e-07 4.21647e-08 0)
(9.7913e-07 1.76549e-07 0)
(1.40897e-06 3.91262e-07 0)
(1.86623e-06 6.84572e-07 0)
(2.35018e-06 1.04925e-06 0)
(2.8636e-06 1.4763e-06 0)
(3.40369e-06 1.9558e-06 0)
(3.97449e-06 2.47637e-06 0)
(4.56437e-06 3.02742e-06 0)
(1.77032e-07 -1.22252e-08 0)
(5.40257e-07 1.90885e-08 0)
(9.28448e-07 1.35217e-07 0)
(1.33703e-06 3.29811e-07 0)
(1.77147e-06 6.01423e-07 0)
(2.23049e-06 9.43213e-07 0)
(2.71676e-06 1.34676e-06 0)
(3.22722e-06 1.80244e-06 0)
(3.76613e-06 2.29994e-06 0)
(4.32203e-06 2.82805e-06 0)
(1.66928e-07 -1.9821e-08 0)
(5.10416e-07 -4.87981e-09 0)
(8.78972e-07 9.32623e-08 0)
(1.26703e-06 2.68612e-07 0)
(1.67961e-06 5.19879e-07 0)
(2.115e-06 8.40464e-07 0)
(2.57578e-06 1.22236e-06 0)
(3.05878e-06 1.65618e-06 0)
(3.56827e-06 2.13246e-06 0)
(4.09337e-06 2.63964e-06 0)
(1.56966e-07 -2.78767e-08 0)
(4.81e-07 -2.97987e-08 0)
(8.3026e-07 5.04991e-08 0)
(1.19822e-06 2.07317e-07 0)
(1.58955e-06 4.39408e-07 0)
(2.00217e-06 7.40301e-07 0)
(2.43857e-06 1.10228e-06 0)
(2.89565e-06 1.5161e-06 0)
(3.37755e-06 1.97298e-06 0)
(3.8742e-06 2.46121e-06 0)
(1.47095e-07 -3.63774e-08 0)
(4.51862e-07 -5.56755e-08 0)
(7.82013e-07 6.8755e-09 0)
(1.13009e-06 1.45824e-07 0)
(1.50039e-06 3.59832e-07 0)
(1.89065e-06 6.42443e-07 0)
(2.30326e-06 9.861e-07 0)
(2.73535e-06 1.38166e-06 0)
(3.19085e-06 1.82084e-06 0)
(3.66066e-06 2.292e-06 0)
(1.37281e-07 -4.53443e-08 0)
(4.22938e-07 -8.25901e-08 0)
(7.34035e-07 -3.77519e-08 0)
(1.06218e-06 8.39469e-08 0)
(1.41136e-06 2.8091e-07 0)
(1.7792e-06 5.46576e-07 0)
(2.16809e-06 8.73416e-07 0)
(2.57553e-06 1.25235e-06 0)
(3.0052e-06 1.67546e-06 0)
(3.44908e-06 2.1313e-06 0)
(1.27525e-07 -5.48527e-08 0)
(3.94269e-07 -1.10634e-07 0)
(6.8626e-07 -8.34239e-08 0)
(9.94207e-07 2.17431e-08 0)
(1.32176e-06 2.0276e-07 0)
(1.66667e-06 4.52826e-07 0)
(2.0314e-06 7.64309e-07 0)
(2.41393e-06 1.12817e-06 0)
(2.81771e-06 1.53675e-06 0)
(3.2359e-06 1.9789e-06 0)
(1.17912e-07 -6.50426e-08 0)
(3.66204e-07 -1.40051e-07 0)
(6.38948e-07 -1.30369e-07 0)
(9.26094e-07 -4.09388e-08 0)
(1.23104e-06 1.25298e-07 0)
(1.55194e-06 3.61116e-07 0)
(1.89144e-06 6.58668e-07 0)
(2.24814e-06 1.00893e-06 0)
(2.62534e-06 1.40443e-06 0)
(3.01737e-06 1.83437e-06 0)
(1.08629e-07 -7.63892e-08 0)
(3.3932e-07 -1.71197e-07 0)
(5.92526e-07 -1.7851e-07 0)
(8.57859e-07 -1.03533e-07 0)
(1.13867e-06 4.93944e-08 0)
(1.43384e-06 2.72468e-07 0)
(1.7464e-06 5.57534e-07 0)
(2.0757e-06 8.95587e-07 0)
(2.42493e-06 1.27934e-06 0)
(2.78966e-06 1.69839e-06 0)
(1.00367e-07 -8.94536e-08 0)
(3.15405e-07 -2.04773e-07 0)
(5.48472e-07 -2.28309e-07 0)
(7.90137e-07 -1.6637e-07 0)
(1.04428e-06 -2.51409e-08 0)
(1.31105e-06 1.8669e-07 0)
(1.59408e-06 4.60658e-07 0)
(1.89358e-06 7.87798e-07 0)
(2.2127e-06 1.161e-06 0)
(2.5482e-06 1.57033e-06 0)
(9.45926e-08 -1.06664e-07 0)
(2.96526e-07 -2.41871e-07 0)
(5.08218e-07 -2.78775e-07 0)
(7.23239e-07 -2.26958e-07 0)
(9.47206e-07 -9.51229e-08 0)
(1.18199e-06 1.07239e-07 0)
(1.4321e-06 3.71467e-07 0)
(1.69864e-06 6.88794e-07 0)
(1.98477e-06 1.05236e-06 0)
(2.28845e-06 1.45279e-06 0)
(9.8453e-08 -1.29798e-07 0)
(2.9039e-07 -2.83824e-07 0)
(4.76677e-07 -3.30856e-07 0)
(6.58891e-07 -2.86722e-07 0)
(8.46695e-07 -1.62291e-07 0)
(1.04409e-06 3.20242e-08 0)
(1.25654e-06 2.87601e-07 0)
(1.48587e-06 5.95982e-07 0)
(1.73522e-06 9.50648e-07 0)
(2.00353e-06 1.34279e-06 0)
(1.27087e-07 -1.71688e-07 0)
(3.01849e-07 -3.31637e-07 0)
(4.56174e-07 -3.7797e-07 0)
(5.96861e-07 -3.35424e-07 0)
(7.41581e-07 -2.15748e-07 0)
(8.95418e-07 -2.81633e-08 0)
(1.06493e-06 2.19314e-07 0)
(1.25225e-06 5.1897e-07 0)
(1.46062e-06 8.64706e-07 0)
(1.68952e-06 1.24838e-06 0)
)
;

boundaryField
{
    left
    {
        type            fixedDisplacement;
        value           uniform (0 0 0);
    }
    right
    {
        type            solidTraction;
        tractionSeries  
{
        file            "$FOAM_CASE/constant/timeVsTraction";
        outOfBounds     clamp;
}
        pressure        uniform 0;
        secondOrder     false;
        setEffectiveTraction false;
        relaxationFactor 1;
        value           nonuniform List<vector> 
30
(
(2.29119e-05 1.68005e-05 -8.52018e-21)
(2.23778e-05 1.66079e-05 -8.57124e-21)
(2.18391e-05 1.64168e-05 -8.66088e-21)
(2.12941e-05 1.62234e-05 -8.78254e-21)
(2.07429e-05 1.60256e-05 -8.93673e-21)
(2.01869e-05 1.58215e-05 -9.12435e-21)
(1.96278e-05 1.56097e-05 -9.34735e-21)
(1.90682e-05 1.53897e-05 -9.60764e-21)
(1.85104e-05 1.51615e-05 -9.9072e-21)
(1.79568e-05 1.49256e-05 -1.02483e-20)
(1.74332e-05 1.46935e-05 -1.0421e-20)
(1.69367e-05 1.44654e-05 -1.03786e-20)
(1.64472e-05 1.42339e-05 -1.03507e-20)
(1.59658e-05 1.40001e-05 -1.03367e-20)
(1.54929e-05 1.37656e-05 -1.03388e-20)
(1.50273e-05 1.35321e-05 -1.03562e-20)
(1.457e-05 1.33003e-05 -1.03864e-20)
(1.41199e-05 1.30719e-05 -1.04292e-20)
(1.36761e-05 1.2848e-05 -1.04823e-20)
(1.32374e-05 1.26294e-05 -1.05435e-20)
(1.28024e-05 1.24167e-05 -1.06102e-20)
(1.23697e-05 1.22105e-05 -1.06794e-20)
(1.19377e-05 1.20109e-05 -1.07482e-20)
(1.1505e-05 1.18177e-05 -1.08133e-20)
(1.107e-05 1.16304e-05 -1.08716e-20)
(1.06317e-05 1.14482e-05 -1.09206e-20)