/*--------------------------------*- C++ -*----------------------------------*\
  =========                 |
  \\      /  F ield         | OpenFOAM: The Open Source CFD Toolbox
   \\    /   O peration     | Website:  https://openfoam.org
    \\  /    A nd           | Version:  9
     \\/     M anipulation  |
\*---------------------------------------------------------------------------*/
FoamFile
{
    format      ascii;
    class       volSymmTensorField;
    location    "15";
    object      epsilon;
}
// * * * * * * * * * * * * * * * * * * * * * * * * * * * * * * * * * * * * * //

dimensions      [0 0 0 0 0 0 0];

internalField   nonuniform List<symmTensor> 
1000
(
(6.30074e-06 -8.20863e-06 6.5286e-19 1.26902e-06 7.19931e-19 1.96017e-33)
(8.70237e-06 -6.33341e-06 -1.30395e-20 -1.57778e-06 7.27703e-21 0)
(9.87699e-06 -4.85701e-06 1.52272e-20 -2.91422e-06 -2.91823e-21 0)
(1.05435e-05 -3.74415e-06 3.91972e-21 -3.87227e-06 -2.7869e-21 0)
(1.08649e-05 -2.84337e-06 -1.65507e-20 -4.39871e-06 1.20882e-21 0)
(1.09743e-05 -2.14097e-06 -1.79876e-21 -4.73762e-06 1.95891e-21 0)
(1.09641e-05 -1.56848e-06 -1.50141e-20 -4.92074e-06 -8.05552e-21 0)
(1.08656e-05 -1.11362e-06 1.03101e-20 -5.01418e-06 4.8163e-21 0)
(1.07372e-05 -7.35136e-07 -5.30126e-21 -5.04831e-06 -6.04242e-21 0)
(1.05494e-05 -4.20228e-07 0 -5.05305e-06 0 0)
(8.47967e-06 -9.15037e-06 6.07529e-19 4.03433e-07 7.86938e-19 1.06669e-34)
(1.04053e-05 -6.54632e-06 0 -2.2018e-06 0 0)
(1.11998e-05 -4.67395e-06 1.2177e-20 -3.29291e-06 5.80508e-21 0)
(1.15757e-05 -3.33477e-06 -2.09017e-20 -4.09104e-06 -1.11454e-20 0)
(1.16706e-05 -2.30481e-06 -8.88366e-21 -4.48982e-06 -5.35703e-21 0)
(1.16002e-05 -1.53768e-06 6.17333e-21 -4.73813e-06 6.30175e-21 0)
(1.14445e-05 -9.36441e-07 6.92449e-21 -4.8502e-06 4.64066e-21 0)
(1.12323e-05 -4.79965e-07 1.62903e-20 -4.90009e-06 9.50595e-21 0)
(1.09935e-05 -1.09523e-07 0 -4.88356e-06 0 0)
(1.07406e-05 1.86716e-07 0 -4.89121e-06 0 0)
(1.09438e-05 -9.75629e-06 5.68375e-19 -7.52439e-07 8.5063e-19 0)
(1.21778e-05 -6.52971e-06 0 -2.89432e-06 0 0)
(1.24713e-05 -4.34375e-06 1.16103e-20 -3.63094e-06 6.01265e-21 0)
(1.24855e-05 -2.83071e-06 -3.49924e-21 -4.19377e-06 1.228e-21 0)
(1.23137e-05 -1.71149e-06 -1.71454e-22 -4.42594e-06 7.58255e-23 0)
(1.20389e-05 -9.08637e-07 -5.75598e-21 -4.55762e-06 -5.96464e-21 0)
(1.17248e-05 -3.02745e-07 7.88379e-21 -4.58418e-06 3.64664e-21 0)
(1.13894e-05 1.39226e-07 -5.8456e-21 -4.57903e-06 -4.31824e-21 0)
(1.10494e-05 4.8331e-07 -4.78778e-22 -4.51546e-06 8.11317e-22 0)
(1.07212e-05 7.62781e-07 -1.23778e-21 -4.50912e-06 -5.3282e-22 0)
(1.36034e-05 -9.88366e-06 5.12367e-19 -2.19831e-06 9.27e-19 -5.92799e-35)
(1.3945e-05 -6.28287e-06 6.64548e-21 -3.60309e-06 -6.82401e-22 0)
(1.36578e-05 -3.88938e-06 -5.30425e-21 -3.9124e-06 -3.00295e-21 0)
(1.32597e-05 -2.26477e-06 -3.38025e-21 -4.17965e-06 6.52692e-22 0)
(1.27904e-05 -1.10449e-06 6.01118e-21 -4.21697e-06 5.82278e-21 0)
(1.22958e-05 -2.9872e-07 -7.24989e-21 -4.21523e-06 -4.79664e-21 0)
(1.18171e-05 2.86141e-07 -6.26266e-21 -4.15207e-06 -4.45969e-21 0)
(1.13607e-05 6.97429e-07 -1.39575e-20 -4.09124e-06 -1.02172e-20 0)
(1.09261e-05 1.00103e-06 -1.99428e-21 -3.98965e-06 -2.44198e-21 0)
(1.05328e-05 1.24798e-06 3.41483e-21 -3.96524e-06 3.02396e-21 0)
(1.63595e-05 -9.53888e-06 4.74714e-19 -3.91712e-06 1.03652e-18 -1.21149e-33)
(1.56591e-05 -5.78342e-06 3.48617e-25 -4.33681e-06 1.61391e-26 0)
(1.47511e-05 -3.30882e-06 -1.71883e-20 -4.15618e-06 -8.44217e-21 0)
(1.38952e-05 -1.65182e-06 1.57187e-21 -4.06518e-06 -5.96027e-23 0)
(1.31023e-05 -5.12071e-07 -2.2023e-21 -3.87805e-06 2.25124e-22 0)
(1.23779e-05 2.53572e-07 5.21055e-21 -3.72885e-06 4.82428e-21 0)
(1.17348e-05 7.85073e-07 -5.89341e-22 -3.57441e-06 1.70808e-22 0)
(1.1163e-05 1.14361e-06 5.51097e-21 -3.46045e-06 3.68617e-21 0)
(1.06466e-05 1.39047e-06 -1.17841e-21 -3.33199e-06 -2.54649e-21 0)
(1.01973e-05 1.59151e-06 -2.17746e-21 -3.29339e-06 -1.76089e-21 0)
(1.8978e-05 -8.81867e-06 3.42899e-19 -5.54256e-06 9.59861e-19 -1.25386e-33)
(1.7336e-05 -4.96604e-06 3.18831e-25 -5.07499e-06 6.61904e-26 0)
(1.57335e-05 -2.57015e-06 -1.73215e-25 -4.31566e-06 -2.73045e-26 0)
(1.4388e-05 -9.91175e-07 1.39025e-21 -3.83944e-06 1.68274e-22 0)
(1.32558e-05 4.7158e-08 -7.44122e-21 -3.41333e-06 -4.53511e-21 0)
(1.23019e-05 7.16482e-07 8.5338e-23 -3.11887e-06 -6.95239e-25 0)
(1.15035e-05 1.15793e-06 5.5356e-21 -2.88232e-06 3.75537e-21 0)
(1.08289e-05 1.4402e-06 1.17653e-20 -2.72575e-06 8.61944e-21 0)
(1.02459e-05 1.61674e-06 2.13118e-21 -2.58409e-06 1.5663e-21 0)
(9.75248e-06 1.76089e-06 -3.71903e-21 -2.53783e-06 -2.93439e-21 0)
(2.13406e-05 -7.33654e-06 2.13508e-19 -6.98175e-06 6.94718e-19 -2.19624e-33)
(1.88419e-05 -3.78048e-06 5.01721e-21 -5.67871e-06 1.96265e-21 0)
(1.6495e-05 -1.64015e-06 5.26383e-21 -4.3037e-06 2.41085e-21 0)
(1.46681e-05 -2.9112e-07 -1.14195e-21 -3.4529e-06 -3.33263e-22 0)
(1.32157e-05 5.44132e-07 5.36985e-21 -2.81296e-06 3.60761e-21 0)
(1.20626e-05 1.0527e-06 -4.94284e-21 -2.40274e-06 -3.42038e-21 0)
(1.11391e-05 1.36586e-06 1.41487e-21 -2.11276e-06 8.90895e-23 0)
(1.03879e-05 1.55097e-06 -4.41535e-21 -1.93577e-06 -2.90033e-21 0)
(9.76127e-06 1.64897e-06 -3.07939e-22 -1.80019e-06 3.81145e-23 0)
(9.23906e-06 1.73088e-06 -2.23785e-21 -1.75644e-06 -1.46278e-21 0)
(2.36702e-05 -5.25232e-06 8.97277e-20 -8.19297e-06 3.2244e-19 -5.08422e-35)
(2.00594e-05 -2.29193e-06 -1.32909e-20 -5.96846e-06 -4.79431e-21 0)
(1.69798e-05 -5.40213e-07 1.03553e-22 -3.98677e-06 5.62926e-23 0)
(1.47117e-05 3.82891e-07 1.67492e-21 -2.84872e-06 8.19344e-22 0)
(1.29998e-05 9.1685e-07 1.22817e-20 -2.0716e-06 6.13924e-21 0)
(1.17052e-05 1.20741e-06 -7.30069e-22 -1.61512e-06 -2.2089e-22 0)
(1.07042e-05 1.37054e-06 1.81659e-26 -1.32197e-06 3.55565e-27 0)
(9.91263e-06 1.453e-06 -4.31955e-21 -1.15924e-06 -2.28243e-21 0)
(9.2691e-06 1.47903e-06 1.05536e-22 -1.05222e-06 4.03218e-24 0)
(8.73529e-06 1.50489e-06 3.23779e-22 -1.02261e-06 1.58887e-22 0)
(2.57536e-05 -2.33886e-06 -6.54541e-21 -9.19954e-06 -1.61492e-19 -3.81618e-34)
(2.06591e-05 -3.76245e-07 -1.46962e-20 -5.58106e-06 -6.00659e-21 0)
(1.69133e-05 5.50507e-07 1.53204e-21 -3.20178e-06 1.32077e-21 0)
(1.43315e-05 8.48369e-07 1.46047e-21 -1.92958e-06 1.09218e-21 0)
(1.2533e-05 1.00771e-06 -6.05042e-22 -1.20687e-06 -3.65883e-22 0)
(1.1218e-05 1.06392e-06 4.78008e-21 -8.19329e-07 1.74825e-21 0)
(1.02256e-05 1.08985e-06 2.63354e-22 -5.99698e-07 7.83582e-23 0)
(9.44632e-06 1.09164e-06 7.71429e-21 -4.92003e-07 2.95497e-21 0)
(8.81736e-06 1.07283e-06 1.70308e-21 -4.33393e-07 6.5917e-22 0)
(8.28868e-06 1.06395e-06 9.53129e-22 -4.25445e-07 3.85421e-22 0)
(2.77582e-05 2.14828e-06 -1.16895e-20 -8.78307e-06 -5.10525e-19 -2.22471e-33)
(2.01536e-05 2.45645e-06 -1.20847e-21 -3.65157e-06 -1.85665e-21 0)
(1.6231e-05 1.56574e-06 5.08787e-21 -1.67362e-06 2.1711e-21 0)
(1.37441e-05 1.05022e-06 2.65168e-22 -7.57184e-07 3.52468e-22 0)
(1.20823e-05 8.13077e-07 9.06324e-27 -3.75467e-07 8.58361e-27 0)
(1.0862e-05 7.041e-07 4.85269e-21 -1.93574e-07 8.69336e-22 0)
(9.934e-06 6.58568e-07 7.62259e-23 -1.12118e-07 2.20105e-23 0)
(9.19091e-06 6.37235e-07 3.71792e-21 -8.02607e-08 7.00813e-22 0)
(8.58293e-06 6.1748e-07 -4.16035e-23 -6.91292e-08 -2.45084e-24 0)
(8.0576e-06 6.05305e-07 -6.26128e-23 -7.40256e-08 -1.27267e-23 0)
(-2.6098e-08 1.9871e-08 2.93244e-20 -8.44873e-09 2.8729e-20 1.72432e-34)
(3.26445e-08 -6.823e-08 -2.77367e-22 -1.24379e-08 2.39071e-20 1.43725e-36)
(3.20099e-07 -2.1565e-07 -3.54994e-21 -1.51286e-07 1.27713e-20 1.78955e-35)
(7.72688e-07 -3.33663e-07 -1.97643e-24 -3.58008e-07 1.6387e-20 0)
(1.29376e-06 -4.06488e-07 -4.75767e-22 -5.87653e-07 1.04455e-20 -1.41016e-36)
(1.83828e-06 -4.48049e-07 -4.86828e-21 -8.23803e-07 1.52679e-20 2.9093e-35)
(2.37018e-06 -4.64441e-07 1.09633e-21 -1.05176e-06 2.07608e-20 1.37056e-36)
(2.87731e-06 -4.65828e-07 -3.2311e-21 -1.26724e-06 1.70991e-20 2.56787e-35)
(3.34272e-06 -4.53539e-07 2.61535e-21 -1.46576e-06 1.70828e-20 -1.03627e-35)
(3.77414e-06 -4.43899e-07 5.00243e-21 -1.64497e-06 8.03956e-21 -1.47635e-35)
(5.54587e-08 -7.37153e-08 3.00776e-20 -2.79691e-08 7.83972e-21 4.90649e-35)
(3.40431e-07 -3.99962e-07 3.92955e-21 -6.88589e-09 4.31108e-21 0)
(8.59292e-07 -7.59841e-07 -3.67762e-21 -2.22573e-07 -3.69418e-21 0)
(1.43581e-06 -1.03491e-06 3.53202e-23 -5.13406e-07 -3.05836e-21 0)
(2.01403e-06 -1.20408e-06 0 -8.03091e-07 0 0)
(2.56231e-06 -1.299e-06 -5.58088e-21 -1.07603e-06 -8.28475e-22 0)
(3.06757e-06 -1.33327e-06 9.39803e-22 -1.3218e-06 4.80446e-21 0)
(3.53213e-06 -1.33101e-06 7.01698e-23 -1.54207e-06 2.58499e-22 0)
(3.94163e-06 -1.29427e-06 -3.00484e-21 -1.73588e-06 -8.73785e-21 0)
(4.32188e-06 -1.26495e-06 2.20497e-21 -1.90072e-06 3.42305e-22 0)
(8.71712e-08 -3.63604e-07 3.58065e-20 1.02393e-07 7.00802e-21 -2.2008e-36)
(6.32292e-07 -9.98598e-07 4.0189e-21 3.06259e-08 4.25843e-21 0)
(1.36429e-06 -1.44416e-06 4.2035e-21 -3.04493e-07 8.80863e-22 0)
(2.08234e-06 -1.74288e-06 2.15885e-22 -7.20202e-07 -2.94958e-21 0)
(2.74318e-06 -1.90754e-06 0 -1.10324e-06 0 0)
(3.32475e-06 -1.98507e-06 -6.24538e-21 -1.43978e-06 -1.63027e-21 0)
(3.83026e-06 -1.99459e-06 -8.5191e-21 -1.72298e-06 -2.38569e-21 0)
(4.27482e-06 -1.96287e-06 5.63549e-21 -1.96173e-06 3.44621e-21 0)
(4.6444e-06 -1.89348e-06 3.41655e-23 -2.15655e-06 1.10064e-22 0)
(4.98924e-06 -1.83514e-06 -5.06882e-21 -2.31503e-06 -3.20519e-21 0)
(1.35069e-07 -8.17577e-07 6.525e-20 4.11874e-07 1.4216e-20 -4.98444e-35)
(1.03172e-06 -1.71563e-06 9.89785e-22 6.97475e-08 -3.57548e-21 0)
(1.96115e-06 -2.18401e-06 4.61903e-21 -4.14618e-07 9.03453e-22 0)
(2.80788e-06 -2.44702e-06 0 -9.53246e-07 0 0)
(3.54168e-06 -2.556e-06 -7.87363e-21 -1.42254e-06 2.93235e-21 0)
(4.1557e-06 -2.5764e-06 9.28006e-23 -1.82043e-06 7.25963e-21 0)
(4.66375e-06 -2.53269e-06 -3.90227e-22 -2.14182e-06 -3.90024e-21 0)
(5.09293e-06 -2.45163e-06 -1.1251e-21 -2.40247e-06 -6.02067e-21 0)
(5.42764e-06 -2.33883e-06 2.572e-21 -2.60391e-06 8.34617e-22 0)
(5.74303e-06 -2.24347e-06 4.80114e-21 -2.76241e-06 1.80086e-21 0)
(2.58468e-07 -1.45848e-06 7.54289e-20 8.41617e-07 3.69148e-20 1.73238e-34)
(1.5936e-06 -2.49585e-06 -8.10604e-21 6.02682e-08 5.43039e-21 0)
(2.72082e-06 -2.91687e-06 -4.91766e-21 -6.26269e-07 -1.44716e-21 0)
(3.67742e-06 -3.09232e-06 -1.32727e-21 -1.29904e-06 5.32061e-21 0)
(4.45975e-06 -3.10411e-06 -5.21205e-23 -1.84685e-06 3.28236e-22 0)
(5.08564e-06 -3.03593e-06 7.58488e-21 -2.29362e-06 -2.03526e-21 0)
(5.58095e-06 -2.91632e-06 3.30387e-21 -2.64108e-06 8.67214e-22 0)
(5.98368e-06 -2.7697e-06 0 -2.91352e-06 0 0)
(6.27691e-06 -2.60484e-06 -3.52577e-21 -3.11368e-06 -4.64226e-21 0)
(6.55768e-06 -2.46464e-06 1.40745e-21 -3.26612e-06 3.41481e-22 0)
(5.2625e-07 -2.30063e-06 1.4406e-19 1.32508e-06 6.09041e-20 -3.2544e-34)
(2.33663e-06 -3.28651e-06 3.30597e-21 8.09699e-10 -6.44483e-21 0)
(3.65077e-06 -3.57586e-06 -4.06115e-21 -9.16366e-07 -4.38086e-21 0)
(4.68984e-06 -3.61894e-06 8.92911e-22 -1.72093e-06 -2.47742e-21 0)
(5.4902e-06 -3.50765e-06 8.59135e-21 -2.33087e-06 2.87509e-21 0)
(6.1014e-06 -3.33529e-06 -8.29058e-21 -2.80902e-06 9.2335e-22 0)
(6.56338e-06 -3.13024e-06 -9.56491e-24 -3.16751e-06 2.20056e-22 0)
(6.92306e-06 -2.91238e-06 -6.45653e-21 -3.43906e-06 -4.44794e-21 0)
(7.16432e-06 -2.69393e-06 1.3494e-23 -3.62983e-06 8.63776e-23 0)
(7.40052e-06 -2.50661e-06 -7.05252e-21 -3.76895e-06 -3.22332e-21 0)
(1.0155e-06 -3.33433e-06 2.64762e-19 1.75866e-06 1.41501e-19 -3.95638e-34)
(3.26709e-06 -4.05604e-06 1.82995e-22 -1.29768e-07 -2.77184e-22 0)
(4.73382e-06 -4.12167e-06 -1.34165e-25 -1.27787e-06 2.29009e-25 0)
(5.81813e-06 -3.98814e-06 -8.77463e-21 -2.20172e-06 -6.15057e-21 0)
(6.6028e-06 -3.73343e-06 -1.49189e-21 -2.8554e-06 3.98487e-21 0)
(7.17051e-06 -3.44847e-06 -8.04326e-21 -3.34695e-06 -3.27322e-21 0)
(7.57654e-06 -3.15562e-06 1.44604e-20 -3.70005e-06 6.44573e-21 0)
(7.87438e-06 -2.86764e-06 -1.99962e-24 -3.95723e-06 1.72829e-22 0)
(8.05235e-06 -2.5992e-06 2.84872e-21 -4.12885e-06 -1.2658e-23 0)
(8.23135e-06 -2.36625e-06 -3.85808e-21 -4.24687e-06 -1.83654e-21 0)
(1.79749e-06 -4.52211e-06 4.14368e-19 2.04745e-06 2.59144e-19 -8.63024e-34)
(4.38092e-06 -4.77465e-06 4.71328e-21 -3.39555e-07 -5.6303e-21 0)
(5.93474e-06 -4.52912e-06 -1.82097e-21 -1.67814e-06 2.42544e-21 0)
(7.01477e-06 -4.17957e-06 1.11409e-21 -2.69178e-06 -1.7344e-21 0)
(7.74681e-06 -3.7674e-06 9.94638e-26 -3.36526e-06 -1.9485e-25 0)
(8.24224e-06 -3.36832e-06 9.33902e-21 -3.85094e-06 7.89072e-22 0)
(8.57144e-06 -2.99206e-06 7.05789e-22 -4.18427e-06 -3.04013e-21 0)
(8.79026e-06 -2.64171e-06 -2.388e-22 -4.41462e-06 2.50187e-21 0)
(8.89696e-06 -2.33188e-06 2.99602e-23 -4.56265e-06 1.24947e-21 0)
(9.00589e-06 -2.05925e-06 2.9462e-21 -4.6512e-06 2.75477e-21 0)
(2.9268e-06 -5.79196e-06 5.36538e-19 2.0989e-06 4.23664e-19 1.22826e-33)
(5.66998e-06 -5.4121e-06 -1.51878e-21 -6.45791e-07 1.0323e-20 0)
(7.21638e-06 -4.78707e-06 -1.76097e-25 -2.09716e-06 1.84484e-25 0)
(8.23105e-06 -4.19195e-06 1.20764e-20 -3.15535e-06 2.8346e-21 0)
(8.87005e-06 -3.61447e-06 9.22345e-21 -3.81774e-06 4.60388e-21 0)
(9.26435e-06 -3.10522e-06 8.32353e-21 -4.27719e-06 4.15536e-21 0)
(9.49685e-06 -2.65361e-06 -9.16491e-22 -4.57484e-06 2.6126e-21 0)
(9.62089e-06 -2.2537e-06 -1.00258e-20 -4.76993e-06 -5.60047e-21 0)
(9.65053e-06 -1.91281e-06 6.16301e-21 -4.88696e-06 1.45776e-21 0)
(9.68099e-06 -1.60792e-06 2.76159e-21 -4.95388e-06 1.64063e-21 0)
(4.43191e-06 -7.06045e-06 6.40446e-19 1.8535e-06 5.93369e-19 1.84673e-34)
(7.11531e-06 -5.94287e-06 -3.05744e-21 -1.05185e-06 2.25426e-21 0)
(8.53927e-06 -4.89553e-06 -5.92646e-21 -2.51069e-06 -2.76204e-21 0)
(9.41792e-06 -4.03954e-06 2.5699e-20 -3.55461e-06 6.01629e-21 0)
(9.91961e-06 -3.29629e-06 1.57858e-22 -4.16959e-06 -1.78764e-22 0)
(1.01835e-05 -2.68423e-06 -8.18679e-21 -4.57952e-06 -4.6463e-21 0)
(1.03003e-05 -2.16831e-06 -8.78485e-21 -4.82784e-06 -1.38228e-21 0)
(1.03155e-05 -1.7331e-06 -3.30644e-21 -4.97321e-06 -1.97675e-21 0)
(1.02713e-05 -1.37986e-06 3.78505e-22 -5.06715e-06 -2.73529e-21 0)
(1.01975e-05 -1.07334e-06 1.64473e-21 -5.07554e-06 3.45917e-21 0)
(4.16263e-06 -4.11794e-07 3.88218e-21 -1.81167e-06 4.61451e-21 4.46563e-38)
(4.50115e-06 -3.67417e-07 2.81402e-21 -1.9506e-06 -5.19813e-21 8.62771e-36)
(4.81209e-06 -3.28852e-07 -2.96725e-21 -2.07952e-06 -1.73417e-20 9.61287e-36)
(5.09169e-06 -2.93843e-07 -2.02777e-21 -2.19617e-06 -1.86302e-20 6.03072e-37)
(5.34391e-06 -2.61388e-07 -5.16961e-21 -2.3011e-06 -2.25636e-20 -4.55513e-35)
(5.56991e-06 -2.32331e-07 -8.28385e-22 -2.39567e-06 -2.5088e-20 0)
(5.77251e-06 -2.05687e-07 -8.9401e-22 -2.48031e-06 -2.86906e-20 0)
(5.95308e-06 -1.81658e-07 7.23918e-22 -2.55602e-06 -2.98644e-20 -8.98644e-37)
(6.11377e-06 -1.5963e-07 5.22185e-22 -2.62341e-06 -3.42137e-20 2.56171e-35)
(6.25577e-06 -1.39451e-07 2.53474e-21 -2.68312e-06 -3.31653e-20 -1.78426e-36)
(6.38053e-06 -1.20683e-07 3.53649e-21 -2.73567e-06 -3.78158e-20 8.83252e-35)
(6.48891e-06 -1.03055e-07 -2.39079e-21 -2.78145e-06 -4.20143e-20 -3.10522e-35)
(6.58167e-06 -8.62225e-08 3.68747e-21 -2.82076e-06 -4.13672e-20 9.74111e-35)
(6.6593e-06 -6.99359e-08 -6.34112e-21 -2.85382e-06 -5.09047e-20 2.01998e-36)
(6.72201e-06 -5.39885e-08 -3.70169e-22 -2.88074e-06 -4.4026e-20 -3.5326e-35)
(6.77015e-06 -3.83609e-08 -6.23716e-22 -2.9016e-06 -4.64692e-20 8.52431e-45)
(6.80355e-06 -2.3277e-08 -2.42767e-21 -2.91637e-06 -4.92806e-20 3.89719e-37)
(6.82349e-06 -9.5929e-09 1.46183e-21 -2.92525e-06 -4.52046e-20 -2.81859e-37)
(6.82985e-06 8.89184e-10 6.01151e-22 -2.92795e-06 -5.03043e-20 1.114e-34)
(6.82762e-06 3.34866e-09 -1.08465e-19 -2.92399e-06 -5.5685e-20 2.56109e-34)
(4.63466e-06 -1.17787e-06 5.39152e-21 -2.04932e-06 6.6313e-21 0)
(4.88555e-06 -1.06015e-06 3.49735e-21 -2.15541e-06 9.57828e-22 0)
(5.12546e-06 -9.56474e-07 2.63769e-22 -2.25312e-06 -1.51573e-21 0)
(5.34065e-06 -8.59747e-07 7.94083e-21 -2.34281e-06 7.16125e-21 0)
(5.5388e-06 -7.69119e-07 -1.52696e-21 -2.42283e-06 -3.60293e-22 0)
(5.71767e-06 -6.87228e-07 -6.47436e-21 -2.4963e-06 -6.5656e-21 0)
(5.88056e-06 -6.1143e-07 3.30397e-21 -2.56223e-06 1.22153e-21 0)
(6.0272e-06 -5.42597e-07 0 -2.62215e-06 0 0)
(6.15955e-06 -4.7909e-07 1.57455e-21 -2.67605e-06 5.57074e-22 0)
(6.27796e-06 -4.20662e-07 3.23725e-21 -2.72462e-06 1.24641e-21 0)
(6.38361e-06 -3.66193e-07 9.7075e-21 -2.7681e-06 5.01274e-21 0)
(6.477e-06 -3.15056e-07 4.37666e-23 -2.80682e-06 5.00957e-23 0)
(6.55884e-06 -2.66407e-07 1.26266e-21 -2.84095e-06 -9.80191e-22 0)
(6.62954e-06 -2.19664e-07 1.85098e-21 -2.8706e-06 2.11999e-21 0)
(6.6894e-06 -1.74367e-07 1.89891e-21 -2.89569e-06 2.18052e-21 0)
(6.73877e-06 -1.30501e-07 -1.88108e-21 -2.91595e-06 -2.17102e-21 0)
(6.77735e-06 -8.85909e-08 -1.89172e-21 -2.93071e-06 -2.19559e-21 0)
(6.8056e-06 -5.04639e-08 -3.79903e-21 -2.93875e-06 -4.43505e-21 0)
(6.8213e-06 -1.88786e-08 -2.87491e-23 -2.93729e-06 -3.14994e-23 0)
(6.82516e-06 -2.12136e-09 -1.0042e-19 -2.92185e-06 1.8762e-21 -2.20496e-34)
(5.23003e-06 -1.70466e-06 1.47499e-21 -2.43738e-06 2.01898e-21 0)
(5.38782e-06 -1.54424e-06 2.01316e-21 -2.5004e-06 7.18134e-22 0)
(5.5513e-06 -1.40036e-06 -4.67536e-21 -2.55331e-06 -5.89308e-21 0)
(5.69456e-06 -1.26678e-06 -4.20301e-22 -2.60353e-06 1.07628e-21 0)
(5.83188e-06 -1.13954e-06 8.53167e-21 -2.64637e-06 7.10648e-21 0)
(5.95631e-06 -1.02404e-06 -6.77648e-21 -2.6874e-06 -6.47423e-21 0)
(6.07292e-06 -9.15982e-07 -1.80361e-21 -2.72436e-06 -2.09109e-21 0)
(6.17927e-06 -8.17263e-07 3.44716e-21 -2.75924e-06 3.92509e-21 0)
(6.27756e-06 -7.25615e-07 1.85871e-23 -2.79155e-06 -2.54885e-21 0)
(6.3671e-06 -6.41007e-07 -3.64753e-21 -2.82191e-06 -4.10619e-21 0)
(6.44892e-06 -5.62046e-07 3.49517e-21 -2.85029e-06 3.92057e-21 0)
(6.523e-06 -4.8805e-07 5.40083e-21 -2.87687e-06 6.06159e-21 0)
(6.58986e-06 -4.18003e-07 4.13256e-23 -2.9016e-06 4.55986e-23 0)
(6.64964e-06 -3.51201e-07 -1.84923e-21 -2.92433e-06 -2.08748e-21 0)
(6.70243e-06 -2.87019e-07 1.8306e-21 -2.94463e-06 2.07894e-21 0)
(6.74827e-06 -2.25223e-07 2.69864e-28 -2.96167e-06 3.00877e-28 0)
(6.78617e-06 -1.65961e-07 -1.88602e-21 -2.97382e-06 -2.16885e-21 0)
(6.81567e-06 -1.10172e-07 2.53514e-22 -2.97842e-06 1.56695e-21 0)
(6.83195e-06 -5.95744e-08 -6.21122e-21 -2.96991e-06 -7.96755e-22 0)
(6.83466e-06 -1.64608e-08 -9.9325e-20 -2.94207e-06 -1.41103e-21 -1.63984e-37)
(5.91305e-06 -2.07646e-06 0 -2.86096e-06 0 0)
(5.97437e-06 -1.89271e-06 2.15227e-21 -2.88437e-06 7.83868e-22 0)
(6.06038e-06 -1.72328e-06 1.68387e-21 -2.89486e-06 1.92632e-21 0)
(6.1285e-06 -1.56873e-06 1.84798e-21 -2.90814e-06 2.14187e-21 0)
(6.20184e-06 -1.41831e-06 0 -2.91458e-06 0 0)
(6.26764e-06 -1.28177e-06 2.51229e-22 -2.92328e-06 -1.08157e-21 0)
(6.33388e-06 -1.15244e-06 -5.53373e-21 -2.93063e-06 -3.3987e-21 0)
(6.39553e-06 -1.03372e-06 -3.52968e-21 -2.93932e-06 -3.84007e-21 0)
(6.45552e-06 -9.2275e-07 -1.98587e-21 -2.94854e-06 -9.16313e-22 0)
(6.51195e-06 -8.19919e-07 -1.46601e-23 -2.95888e-06 2.45657e-21 0)
(6.56581e-06 -7.23709e-07 -1.74878e-21 -2.97016e-06 5.40391e-22 0)
(6.61648e-06 -6.33508e-07 3.65469e-21 -2.98238e-06 1.56666e-21 0)
(6.6642e-06 -5.48238e-07 3.47151e-21 -2.99529e-06 1.70901e-22 0)
(6.70874e-06 -4.6711e-07 8.25552e-23 -3.0085e-06 1.31346e-21 0)
(6.74979e-06 -3.89333e-07 1.47707e-22 -3.02127e-06 1.39241e-21 0)
(6.787e-06 -3.14316e-07 -1.86476e-21 -3.03237e-06 -2.10077e-21 0)
(6.8187e-06 -2.41671e-07 -3.98268e-28 -3.03962e-06 -4.48914e-28 0)
(6.84404e-06 -1.70928e-07 3.97447e-21 -3.03986e-06 5.84059e-21 0)
(6.85688e-06 -1.02696e-07 -2.00143e-22 -3.02686e-06 -1.53634e-21 0)
(6.85744e-06 -3.20446e-08 -1.07946e-19 -2.99426e-06 -9.73521e-21 3.1586e-34)
(6.65396e-06 -2.26915e-06 1.62457e-22 -3.33432e-06 2.69005e-21 0)
(6.61523e-06 -2.08463e-06 -2.33861e-21 -3.31718e-06 -1.02175e-21 0)
(6.62335e-06 -1.9047e-06 -5.87931e-21 -3.2817e-06 -4.79398e-21 0)
(6.61433e-06 -1.74625e-06 3.8713e-21 -3.25648e-06 2.63613e-21 0)
(6.62262e-06 -1.58707e-06 1.0075e-20 -3.22427e-06 6.61975e-21 0)
(6.62754e-06 -1.44321e-06 -1.84991e-21 -3.19813e-06 -1.93595e-21 0)
(6.64122e-06 -1.30485e-06 0 -3.17323e-06 0 0)
(6.65548e-06 -1.17716e-06 1.80157e-21 -3.15281e-06 1.87716e-21 0)
(6.67431e-06 -1.05683e-06 -5.80311e-21 -3.13605e-06 -2.47835e-21 0)
(6.6946e-06 -9.44709e-07 -3.763e-21 -3.12346e-06 -2.77475e-21 0)
(6.71734e-06 -8.39383e-07 2.14095e-22 -3.11483e-06 -2.14312e-21 0)
(6.74132e-06 -7.40377e-07 -1.89362e-21 -3.11002e-06 -3.20953e-21 0)
(6.76652e-06 -6.46666e-07 -1.98449e-22 -3.10866e-06 3.37192e-21 0)
(6.79231e-06 -5.57388e-07 3.7031e-21 -3.11016e-06 5.2298e-21 0)
(6.81806e-06 -4.71587e-07 1.80594e-21 -3.11359e-06 7.69316e-22 0)
(6.84307e-06 -3.88197e-07 -6.59948e-23 -3.11754e-06 -1.30443e-21 0)
(6.86532e-06 -3.06258e-07 3.50086e-21 -3.11961e-06 1.43866e-21 0)
(6.88375e-06 -2.23736e-07 1.72191e-21 -3.11667e-06 6.90446e-22 0)
(6.89214e-06 -1.40561e-07 7.06282e-21 -3.10284e-06 5.5798e-21 0)
(6.89107e-06 -4.57627e-08 -9.46185e-20 -3.0723e-06 3.74761e-21 -3.09865e-34)
(7.42058e-06 -2.29267e-06 1.37747e-21 -3.80416e-06 1.89497e-21 0)
(7.28089e-06 -2.13115e-06 3.31291e-23 -3.7525e-06 7.27786e-23 0)
(7.21356e-06 -1.95514e-06 -4.25112e-21 -3.67375e-06 -2.94741e-21 0)
(7.12751e-06 -1.80839e-06 -1.02084e-20 -3.61307e-06 -7.64385e-21 0)
(7.07195e-06 -1.65341e-06 3.98856e-21 -3.54513e-06 2.71835e-21 0)
(7.01606e-06 -1.51389e-06 3.75248e-21 -3.48588e-06 3.72965e-21 0)
(6.97702e-06 -1.37723e-06 -1.83854e-21 -3.43034e-06 -1.83017e-21 0)
(6.94324e-06 -1.25006e-06 -2.96948e-22 -3.38155e-06 8.20947e-22 0)
(6.91974e-06 -1.1291e-06 8.0715e-21 -3.33904e-06 4.80812e-21 0)
(6.90235e-06 -1.0155e-06 -5.39144e-21 -3.30315e-06 -5.50759e-21 0)
(6.892e-06 -9.08154e-07 -1.91776e-21 -3.27382e-06 -1.98362e-21 0)
(6.88704e-06 -8.06712e-07 5.2093e-21 -3.25082e-06 7.7339e-21 0)
(6.88722e-06 -7.10311e-07 -7.62629e-21 -3.23383e-06 -2.26784e-21 0)
(6.89162e-06 -6.18063e-07 -5.42806e-21 -3.22225e-06 -5.80633e-21 0)
(6.89939e-06 -5.2892e-07 1.54487e-23 -3.21517e-06 -1.17323e-21 0)
(6.90962e-06 -4.41413e-07 -7.31838e-21 -3.21127e-06 -5.60146e-21 0)
(6.92033e-06 -3.54137e-07 -5.32586e-23 -3.20843e-06 -5.01098e-23 0)
(6.93038e-06 -2.63713e-07 7.19076e-21 -3.20395e-06 6.87855e-21 0)
(6.93459e-06 -1.69692e-07 1.10961e-22 -3.19313e-06 1.42023e-21 0)
(6.9332e-06 -5.64612e-08 -9.45769e-20 -3.17102e-06 -1.164e-21 2.2167e-36)
(8.17569e-06 -2.14695e-06 -1.44334e-21 -4.24629e-06 -1.85407e-21 0)
(7.93949e-06 -2.03416e-06 1.99565e-21 -4.16957e-06 1.82326e-21 0)
(7.80401e-06 -1.8771e-06 2.46518e-21 -4.0549e-06 1.28751e-21 0)
(7.64462e-06 -1.75687e-06 -1.94699e-21 -3.96303e-06 -1.82742e-21 0)
(7.52898e-06 -1.61994e-06 -4.61609e-21 -3.86435e-06 -2.30494e-21 0)
(7.41476e-06 -1.4959e-06 2.25356e-21 -3.77406e-06 1.12026e-21 0)
(7.32425e-06 -1.37142e-06 6.37656e-21 -3.68954e-06 4.10323e-21 0)
(7.24332e-06 -1.25337e-06 -1.02587e-20 -3.613e-06 -6.88903e-21 0)
(7.17756e-06 -1.13956e-06 -6.32811e-21 -3.54502e-06 -4.16883e-21 0)
(7.12231e-06 -1.03125e-06 9.93204e-21 -3.48581e-06 6.7267e-21 0)
(7.07822e-06 -9.28007e-07 -4.05228e-21 -3.43555e-06 -1.93678e-21 0)
(7.04341e-06 -8.29679e-07 5.36363e-21 -3.39406e-06 5.5001e-21 0)
(7.01736e-06 -7.35691e-07 5.7796e-21 -3.36106e-06 3.7655e-21 0)
(6.99897e-06 -6.45201e-07 -3.36859e-21 -3.33605e-06 -4.69856e-21 0)
(6.9873e-06 -5.57151e-07 -2.20652e-21 -3.31829e-06 1.14352e-21 0)
(6.98132e-06 -4.69782e-07 1.04263e-22 -3.30672e-06 9.62478e-23 0)
(6.97944e-06 -3.81386e-07 -8.9165e-21 -3.29976e-06 -7.42289e-21 0)
(6.9804e-06 -2.87602e-07 1.76962e-21 -3.29541e-06 1.99018e-21 0)
(6.98094e-06 -1.87806e-07 3.51036e-21 -3.29061e-06 2.74697e-21 0)
(6.98021e-06 -6.33502e-08 -9.55463e-20 -3.28161e-06 -1.86812e-21 8.95901e-37)
(8.87991e-06 -1.84276e-06 1.72044e-23 -4.62198e-06 5.9072e-23 0)
(8.55844e-06 -1.80379e-06 -2.06326e-21 -4.53253e-06 -1.81627e-21 0)
(8.36633e-06 -1.68195e-06 4.447e-22 -4.39709e-06 -4.81538e-22 0)
(8.1416e-06 -1.59818e-06 0 -4.27953e-06 0 0)
(7.97194e-06 -1.49166e-06 0 -4.15965e-06 0 0)
(7.80614e-06 -1.39178e-06 -6.18023e-21 -4.04538e-06 -4.84111e-21 0)
(7.66816e-06 -1.28909e-06 5.49693e-21 -3.9382e-06 5.13046e-21 0)
(7.54375e-06 -1.18854e-06 1.15908e-20 -3.83865e-06 1.01155e-20 0)
(7.43765e-06 -1.08974e-06 -8.76602e-21 -3.74831e-06 -8.42706e-21 0)
(7.34576e-06 -9.93687e-07 -7.68077e-21 -3.6676e-06 -6.54452e-21 0)
(7.26828e-06 -9.00697e-07 3.54111e-21 -3.59715e-06 3.5252e-21 0)
(7.2035e-06 -8.10871e-07 -3.48518e-22 -3.53716e-06 6.99063e-22 0)
(7.1507e-06 -7.24035e-07 6.06621e-21 -3.4877e-06 2.99604e-21 0)
(7.10876e-06 -6.39563e-07 9.4454e-21 -3.44861e-06 6.53382e-21 0)
(7.07681e-06 -5.56539e-07 1.2887e-22 -3.41955e-06 1.17834e-22 0)
(7.05379e-06 -4.73142e-07 4.30618e-21 -3.39996e-06 -1.17805e-21 0)
(7.03877e-06 -3.87567e-07 0 -3.38903e-06 0 0)
(7.03036e-06 -2.94911e-07 -3.62012e-21 -3.38572e-06 -1.59713e-21 0)
(7.02782e-06 -1.94532e-07 1.74176e-21 -3.38884e-06 7.362e-22 0)
(7.02865e-06 -6.62468e-08 -9.14336e-20 -3.39612e-06 -4.16618e-22 2.34547e-36)
(9.50329e-06 -1.4095e-06 -1.34325e-23 -4.90404e-06 -5.16587e-23 0)
(9.10869e-06 -1.45789e-06 2.5631e-21 -4.81063e-06 1.53137e-21 0)
(8.87697e-06 -1.39638e-06 -2.54924e-21 -4.68566e-06 -1.55224e-21 0)
(8.60176e-06 -1.35623e-06 -2.50907e-21 -4.55229e-06 -1.51181e-21 0)
(8.38334e-06 -1.29286e-06 6.88721e-21 -4.41884e-06 4.69843e-21 0)
(8.17355e-06 -1.22312e-06 4.90758e-21 -4.2849e-06 2.92918e-21 0)
(7.99217e-06 -1.14717e-06 -6.51712e-21 -4.15779e-06 -4.36213e-21 0)
(7.82886e-06 -1.06789e-06 8.69903e-22 -4.03831e-06 -9.17898e-22 0)
(7.68601e-06 -9.87469e-07 1.47869e-21 -3.92858e-06 1.37256e-21 0)
(7.56061e-06 -9.07105e-07 -8.07267e-22 -3.82945e-06 1.08235e-21 0)
(7.45215e-06 -8.27832e-07 -6.6191e-21 -3.74168e-06 -3.62791e-21 0)
(7.35915e-06 -7.5009e-07 5.91814e-23 -3.66573e-06 5.7143e-23 0)
(7.28078e-06 -6.74014e-07 -3.02255e-21 -3.60192e-06 -4.12124e-21 0)
(7.21598e-06 -5.99204e-07 -1.0221e-22 -3.55044e-06 -9.35639e-23 0)
(7.16409e-06 -5.24908e-07 3.86692e-21 -3.51142e-06 1.88148e-21 0)
(7.12411e-06 -4.49383e-07 -7.70731e-23 -3.48486e-06 -6.73947e-23 0)
(7.09595e-06 -3.70857e-07 4.70699e-21 -3.47093e-06 6.32292e-21 0)
(7.07815e-06 -2.84316e-07 -1.78047e-21 -3.46956e-06 -7.95826e-22 0)
(7.0728e-06 -1.89099e-07 -8.33365e-21 -3.48169e-06 -8.25417e-21 0)
(7.07542e-06 -6.49108e-08 -1.00812e-19 -3.50671e-06 -6.88666e-21 1.7473e-34)
(1.00002e-05 -8.53242e-07 -3.27041e-22 -5.08824e-06 -1.64762e-22 0)
(9.59104e-06 -9.59892e-07 -2.74881e-21 -4.97378e-06 -1.61961e-21 0)
(9.32608e-06 -9.8461e-07 2.23011e-21 -4.88728e-06 1.75158e-21 0)
(9.03139e-06 -9.94335e-07 -5.83439e-21 -4.76568e-06 -5.31751e-21 0)
(8.77339e-06 -9.89039e-07 -6.00444e-21 -4.63926e-06 -4.99463e-21 0)
(8.52954e-06 -9.66286e-07 3.55037e-21 -4.50397e-06 3.67142e-21 0)
(8.30909e-06 -9.31382e-07 3.08475e-21 -4.36778e-06 3.68492e-21 0)
(8.10904e-06 -8.86334e-07 5.38149e-21 -4.23487e-06 4.85449e-21 0)
(7.93043e-06 -8.34276e-07 -6.31708e-21 -4.10867e-06 -4.71774e-21 0)
(7.77177e-06 -7.77536e-07 1.52108e-23 -3.99181e-06 1.2954e-22 0)
(7.63246e-06 -7.17994e-07 -7.57337e-23 -3.88605e-06 -3.86218e-22 0)
(7.51124e-06 -6.56988e-07 -4.93757e-21 -3.79273e-06 -4.83149e-21 0)
(7.40727e-06 -5.95321e-07 0 -3.71282e-06 0 0)
(7.31949e-06 -5.33181e-07 -4.48117e-21 -3.6471e-06 -1.45374e-21 0)
(7.24744e-06 -4.70263e-07 -2.07529e-23 -3.59631e-06 -8.92231e-23 0)
(7.19017e-06 -4.05215e-07 -5.78312e-21 -3.56116e-06 -2.81326e-21 0)
(7.14848e-06 -3.36531e-07 1.58205e-21 -3.54283e-06 1.67091e-21 0)
(7.12086e-06 -2.59571e-07 3.64753e-21 -3.54245e-06 1.66731e-21 0)
(7.11248e-06 -1.73749e-07 4.54009e-23 -3.56316e-06 -3.72619e-24 0)
(7.11711e-06 -5.99809e-08 -9.84848e-20 -3.6062e-06 -3.05584e-21 7.30931e-37)
(1.02444e-05 -3.94045e-07 2.82508e-21 -5.10499e-06 2.48684e-21 0)
(9.87128e-06 -4.50755e-07 -2.61617e-21 -5.0086e-06 -1.64401e-21 0)
(9.58452e-06 -5.56157e-07 -1.51442e-21 -4.94768e-06 -1.25756e-21 0)
(9.29186e-06 -6.05879e-07 2.51378e-21 -4.84886e-06 1.53603e-21 0)
(9.0208e-06 -6.4085e-07 -4.97142e-21 -4.73318e-06 -2.25709e-21 0)
(8.7636e-06 -6.56443e-07 -3.3523e-21 -4.6064e-06 -1.58206e-21 0)
(8.52642e-06 -6.56769e-07 -4.17549e-21 -4.47377e-06 -3.03029e-21 0)
(8.30772e-06 -6.44502e-07 5.05463e-22 -4.3409e-06 -3.5008e-22 0)
(8.10934e-06 -6.22056e-07 8.44272e-21 -4.21178e-06 5.38051e-21 0)
(7.93045e-06 -5.91964e-07 -2.9e-22 -4.08978e-06 -3.12243e-22 0)
(7.77109e-06 -5.56192e-07 4.5134e-21 -3.97739e-06 2.55507e-21 0)
(7.63044e-06 -5.16394e-07 -2.22333e-22 -3.8766e-06 -2.52259e-22 0)
(7.50806e-06 -4.73701e-07 1.64728e-35 -3.78902e-06 1.67476e-35 0)
(7.4032e-06 -4.28704e-07 -1.98455e-21 -3.71603e-06 -9.88028e-22 0)
(7.31579e-06 -3.8149e-07 1.94005e-21 -3.65904e-06 9.43884e-22 0)
(7.24511e-06 -3.31241e-07 -8.69023e-23 -3.61946e-06 -1.25795e-22 0)
(7.19282e-06 -2.76893e-07 3.10926e-22 -3.59949e-06 -8.18544e-22 0)
(7.15735e-06 -2.14838e-07 1.74556e-23 -3.6012e-06 5.83957e-23 0)
(7.1463e-06 -1.4467e-07 -1.80129e-23 -3.62967e-06 2.32805e-23 0)
(7.15192e-06 -5.01662e-08 -9.4749e-20 -3.68788e-06 -5.13804e-22 -8.43285e-37)
(1.00425e-05 5.73232e-08 2.62502e-21 -4.92e-06 2.07604e-21 0)
(9.79339e-06 -8.19256e-09 0 -4.94651e-06 0 0)
(9.53371e-06 -1.37106e-07 -2.04668e-21 -4.89946e-06 -1.80437e-21 0)
(9.27415e-06 -2.21544e-07 2.67626e-35 -4.82433e-06 2.16723e-35 0)
(9.02664e-06 -2.8802e-07 6.13573e-36 -4.72523e-06 4.45042e-36 0)
(8.78766e-06 -3.35101e-07 2.90962e-35 -4.61225e-06 2.16373e-35 0)
(8.56339e-06 -3.65496e-07 4.46191e-35 -4.49063e-06 3.60644e-35 0)
(8.35299e-06 -3.81935e-07 -1.7932e-21 -4.36613e-06 -1.68202e-21 0)
(8.15904e-06 -3.86586e-07 0 -4.24299e-06 0 0)
(7.98141e-06 -3.81852e-07 1.71343e-21 -4.1249e-06 1.66204e-21 0)
(7.82089e-06 -3.69634e-07 -2.4475e-36 -4.01474e-06 -4.12566e-36 0)
(7.67729e-06 -3.51622e-07 -1.64815e-21 -3.91489e-06 -1.65549e-21 0)
(7.55077e-06 -3.2904e-07 1.62098e-21 -3.82739e-06 1.65644e-21 0)
(7.44106e-06 -3.02714e-07 2.33022e-35 -3.75405e-06 1.69731e-35 0)
(7.34864e-06 -2.72958e-07 -1.57759e-21 -3.69676e-06 -1.66588e-21 0)
(7.27325e-06 -2.39514e-07 -1.39917e-35 -3.65747e-06 -1.29451e-35 0)
(7.21722e-06 -2.01638e-07 1.54938e-21 -3.63905e-06 1.68564e-21 0)
(7.17926e-06 -1.57072e-07 1.54123e-21 -3.64424e-06 1.70038e-21 0)
(7.16876e-06 -1.05875e-07 -1.66486e-35 -3.67962e-06 -1.45259e-35 0)
(7.17698e-06 -3.67203e-08 -9.43417e-20 -3.74864e-06 -1.47501e-35 5.56531e-49)