/*--------------------------------*- C++ -*----------------------------------*\
  =========                 |
  \\      /  F ield         | OpenFOAM: The Open Source CFD Toolbox
   \\    /   O peration     | Website:  https://openfoam.org
    \\  /    A nd           | Version:  9
     \\/     M anipulation  |
\*---------------------------------------------------------------------------*/
FoamFile
{
    format      ascii;
    class       volSymmTensorField;
    location    "15";
    object      epsilon;
}
// * * * * * * * * * * * * * * * * * * * * * * * * * * * * * * * * * * * * * //

dimensions      [0 0 0 0 0 0 0];

internalField   nonuniform List<symmTensor> 
1000
(
(6.30196e-06 -8.20486e-06 -7.61581e-21 1.28067e-06 5.46699e-21 2.31715e-36)
(8.70622e-06 -6.32923e-06 -1.30406e-20 -1.55751e-06 7.30356e-21 0)
(9.88619e-06 -4.84767e-06 1.52017e-20 -2.91609e-06 -2.91517e-21 0)
(1.05454e-05 -3.73022e-06 3.90509e-21 -3.86583e-06 -2.78923e-21 0)
(1.08635e-05 -2.83167e-06 -1.65034e-20 -4.39366e-06 1.21087e-21 0)
(1.09702e-05 -2.12899e-06 -1.7865e-21 -4.73027e-06 1.95887e-21 0)
(1.09575e-05 -1.5584e-06 -1.49865e-20 -4.91274e-06 -8.04469e-21 0)
(1.08581e-05 -1.10434e-06 1.02858e-20 -5.00558e-06 4.80848e-21 0)
(1.07282e-05 -7.27734e-07 -5.30315e-21 -5.03926e-06 -6.03474e-21 0)
(1.0541e-05 -4.12907e-07 0 -5.04442e-06 0 0)
(8.53428e-06 -9.12433e-06 -1.2468e-20 3.60146e-07 4.61948e-22 7.75411e-37)
(1.04004e-05 -6.53294e-06 0 -2.1659e-06 0 0)
(1.12014e-05 -4.66093e-06 1.2162e-20 -3.28601e-06 5.79537e-21 0)
(1.15705e-05 -3.3162e-06 -2.08682e-20 -4.07694e-06 -1.11309e-20 0)
(1.16628e-05 -2.29113e-06 -8.86935e-21 -4.47779e-06 -5.34896e-21 0)
(1.15909e-05 -1.5242e-06 6.17216e-21 -4.72552e-06 6.29601e-21 0)
(1.14335e-05 -9.25892e-07 6.91211e-21 -4.83755e-06 4.63298e-21 0)
(1.12208e-05 -4.70618e-07 1.62514e-20 -4.88739e-06 9.4866e-21 0)
(1.09818e-05 -1.02492e-07 0 -4.87143e-06 0 0)
(1.07294e-05 1.93453e-07 0 -4.8792e-06 0 0)
(1.10368e-05 -9.70592e-06 0 -8.59819e-07 0 0)
(1.21551e-05 -6.52486e-06 0 -2.8533e-06 0 0)
(1.24635e-05 -4.33773e-06 1.15918e-20 -3.61537e-06 5.98988e-21 0)
(1.24736e-05 -2.81504e-06 -3.48087e-21 -4.17626e-06 1.23104e-21 0)
(1.22992e-05 -1.70054e-06 -1.70433e-22 -4.40775e-06 7.59841e-23 0)
(1.20246e-05 -8.97313e-07 -5.75477e-21 -4.5414e-06 -5.95664e-21 0)
(1.17097e-05 -2.94456e-07 7.8589e-21 -4.56798e-06 3.63441e-21 0)
(1.13749e-05 1.46262e-07 -5.83466e-21 -4.56387e-06 -4.30939e-21 0)
(1.10355e-05 4.88191e-07 -4.70461e-22 -4.50165e-06 8.12291e-22 0)
(1.07085e-05 7.67057e-07 -1.23193e-21 -4.49583e-06 -5.30571e-22 0)
(1.37158e-05 -9.86617e-06 -6.74779e-21 -2.31031e-06 9.64924e-23 -1.77624e-37)
(1.39266e-05 -6.27919e-06 6.64794e-21 -3.59379e-06 -6.87481e-22 0)
(1.36523e-05 -3.88327e-06 -5.29775e-21 -3.898e-06 -2.98976e-21 0)
(1.32466e-05 -2.25117e-06 -3.35946e-21 -4.1684e-06 6.51921e-22 0)
(1.27724e-05 -1.09613e-06 6.00857e-21 -4.1962e-06 5.8097e-21 0)
(1.22781e-05 -2.90907e-07 -7.23391e-21 -4.19855e-06 -4.78386e-21 0)
(1.17991e-05 2.90859e-07 -6.24961e-21 -4.13404e-06 -4.44763e-21 0)
(1.1344e-05 7.00713e-07 -1.39288e-20 -4.07516e-06 -1.01906e-20 0)
(1.09108e-05 1.00251e-06 -1.99706e-21 -3.97508e-06 -2.43852e-21 0)
(1.05192e-05 1.24875e-06 3.41179e-21 -3.95159e-06 3.01746e-21 0)
(1.64388e-05 -9.53144e-06 -3.45915e-21 -3.89734e-06 -5.83582e-22 -2.08841e-36)
(1.56575e-05 -5.76274e-06 3.47671e-25 -4.35336e-06 1.65143e-26 0)
(1.47384e-05 -3.29089e-06 -1.7152e-20 -4.12226e-06 -8.40379e-21 0)
(1.38762e-05 -1.63705e-06 1.55989e-21 -4.05441e-06 -5.922e-23 0)
(1.30793e-05 -5.04954e-07 -2.1856e-21 -3.85227e-06 2.31288e-22 0)
(1.23568e-05 2.57533e-07 5.20852e-21 -3.7121e-06 4.81174e-21 0)
(1.17149e-05 7.85872e-07 -5.84014e-22 -3.55571e-06 1.72656e-22 0)
(1.11454e-05 1.14272e-06 5.4973e-21 -3.44515e-06 3.67365e-21 0)
(1.06312e-05 1.38838e-06 -1.18955e-21 -3.3182e-06 -2.54497e-21 0)
(1.0184e-05 1.58875e-06 -2.17436e-21 -3.28091e-06 -1.75604e-21 0)
(1.91136e-05 -8.68235e-06 -1.14323e-20 -5.51578e-06 -1.62045e-22 -4.98419e-36)
(1.73062e-05 -4.95348e-06 3.17066e-25 -5.08191e-06 6.68907e-26 0)
(1.57035e-05 -2.55227e-06 -1.71442e-25 -4.26102e-06 -2.65301e-26 0)
(1.43576e-05 -9.84501e-07 1.37855e-21 -3.8268e-06 1.6909e-22 0)
(1.3227e-05 4.7214e-08 -7.42199e-21 -3.38418e-06 -4.51267e-21 0)
(1.22784e-05 7.13644e-07 8.46633e-23 -3.10411e-06 -7.64237e-25 0)
(1.14832e-05 1.15324e-06 5.52404e-21 -2.86527e-06 3.74042e-21 0)
(1.08119e-05 1.43459e-06 1.1746e-20 -2.71334e-06 8.58936e-21 0)
(1.02316e-05 1.61096e-06 2.12777e-21 -2.57286e-06 1.56104e-21 0)
(9.74048e-06 1.75487e-06 -3.71528e-21 -2.52809e-06 -2.92535e-21 0)
(2.15626e-05 -7.26589e-06 1.75572e-20 -7.03708e-06 9.89058e-22 1.75061e-35)
(1.87771e-05 -3.79135e-06 4.97409e-21 -5.70288e-06 1.99378e-21 0)
(1.64646e-05 -1.64523e-06 5.25067e-21 -4.25305e-06 2.38468e-21 0)
(1.4635e-05 -3.0044e-07 -1.13321e-21 -3.4534e-06 -3.37971e-22 0)
(1.31891e-05 5.34846e-07 5.36525e-21 -2.79007e-06 3.58926e-21 0)
(1.20418e-05 1.04291e-06 -4.93784e-21 -2.39649e-06 -3.40074e-21 0)
(1.11221e-05 1.35694e-06 1.40587e-21 -2.10164e-06 8.65665e-23 0)
(1.03742e-05 1.54223e-06 -4.4092e-21 -1.92927e-06 -2.889e-21 0)
(9.75002e-06 1.64125e-06 -3.05266e-22 -1.79353e-06 3.8094e-23 0)
(9.22983e-06 1.72335e-06 -2.23436e-21 -1.75097e-06 -1.45793e-21 0)
(2.38558e-05 -5.27766e-06 2.60528e-20 -8.34968e-06 1.44569e-21 1.02784e-36)
(2.00169e-05 -2.21785e-06 -1.32449e-20 -6.0636e-06 -4.76601e-21 0)
(1.69672e-05 -5.57702e-07 1.02659e-22 -3.97442e-06 5.63639e-23 0)
(1.46927e-05 3.7532e-07 1.6572e-21 -2.87615e-06 8.39867e-22 0)
(1.29834e-05 9.04929e-07 1.22691e-20 -2.06486e-06 6.1004e-21 0)
(1.16918e-05 1.19666e-06 -7.25949e-22 -1.62093e-06 -2.27501e-22 0)
(1.06929e-05 1.36122e-06 1.80743e-26 -1.3193e-06 3.60414e-27 0)
(9.90325e-06 1.44423e-06 -4.31454e-21 -1.15947e-06 -2.27511e-21 0)
(9.26119e-06 1.4716e-06 1.04822e-22 -1.05062e-06 4.60433e-24 0)
(8.7288e-06 1.49772e-06 3.23004e-22 -1.0215e-06 1.58989e-22 0)
(2.56283e-05 -2.46738e-06 1.23348e-20 -9.12196e-06 -1.02996e-22 -3.12936e-36)
(2.06235e-05 -2.24044e-07 -1.45946e-20 -5.76538e-06 -6.12482e-21 0)
(1.68742e-05 5.66759e-07 1.52527e-21 -3.1642e-06 1.29991e-21 0)
(1.4318e-05 8.62975e-07 1.43368e-21 -1.97815e-06 1.13285e-21 0)
(1.25196e-05 1.0113e-06 -5.99811e-22 -1.207e-06 -3.66206e-22 0)
(1.12089e-05 1.0629e-06 4.77913e-21 -8.33837e-07 1.73588e-21 0)
(1.02176e-05 1.08826e-06 2.61438e-22 -6.02658e-07 8.04879e-23 0)
(9.43964e-06 1.08859e-06 7.70867e-21 -4.96977e-07 2.94839e-21 0)
(8.81145e-06 1.07014e-06 1.70189e-21 -4.35295e-07 6.57731e-22 0)
(8.28381e-06 1.0607e-06 9.53552e-22 -4.27406e-07 3.81966e-22 0)
(2.72173e-05 2.2051e-06 7.5601e-21 -8.41719e-06 9.79501e-22 -5.52106e-36)
(2.0106e-05 2.4652e-06 -1.12014e-21 -3.78937e-06 -1.93633e-21 0)
(1.61689e-05 1.62718e-06 5.06821e-21 -1.58503e-06 2.15032e-21 0)
(1.37147e-05 1.05591e-06 2.60989e-22 -7.81201e-07 3.65747e-22 0)
(1.20641e-05 8.32803e-07 8.91775e-27 -3.67365e-07 8.29565e-27 0)
(1.0848e-05 7.09564e-07 4.84705e-21 -2.01087e-07 8.69698e-22 0)
(9.92396e-06 6.65356e-07 7.52875e-23 -1.12979e-07 2.22374e-23 0)
(9.18228e-06 6.3994e-07 3.71441e-21 -8.32789e-08 7.02697e-22 0)
(8.57575e-06 6.19926e-07 -4.11573e-23 -7.03574e-08 -3.0498e-24 0)
(8.0516e-06 6.06272e-07 -6.2432e-23 -7.54679e-08 -1.31229e-23 0)
(-2.94145e-08 1.89135e-08 -5.05669e-21 -5.53382e-09 5.53019e-21 -2.13143e-37)
(2.73907e-08 -6.85992e-08 -2.77679e-22 -8.25101e-09 3.68912e-21 -3.22089e-37)
(3.12727e-07 -2.15379e-07 -3.54428e-21 -1.46841e-07 -1.8611e-21 2.02446e-36)
(7.63988e-07 -3.33035e-07 0 -3.53632e-07 0 0)
(1.2846e-06 -4.05864e-07 -4.69247e-22 -5.838e-07 -2.8748e-21 -2.50895e-37)
(1.82921e-06 -4.47271e-07 -4.86172e-21 -8.20605e-07 -3.58932e-22 6.55127e-37)
(2.36162e-06 -4.63644e-07 1.09403e-21 -1.04938e-06 2.49721e-21 -2.1793e-37)
(2.86931e-06 -4.64951e-07 -3.22583e-21 -1.26545e-06 7.90685e-22 -1.31283e-36)
(3.33528e-06 -4.52822e-07 2.61259e-21 -1.46433e-06 1.32957e-21 9.58706e-37)
(3.76703e-06 -4.43223e-07 4.91644e-21 -1.64347e-06 6.12827e-22 1.33463e-36)
(5.23353e-08 -7.33543e-08 -5.223e-21 -2.58963e-08 3.65953e-21 5.77383e-36)
(3.34794e-07 -3.98644e-07 3.92473e-21 -2.11786e-09 4.30706e-21 0)
(8.51877e-07 -7.58216e-07 -3.67309e-21 -2.1798e-07 -3.69123e-21 0)
(1.42794e-06 -1.03326e-06 3.71872e-23 -5.09052e-07 -3.05684e-21 0)
(2.00612e-06 -1.20304e-06 0 -7.99681e-07 0 0)
(2.55484e-06 -1.29814e-06 -5.57579e-21 -1.07345e-06 -8.26985e-22 0)
(3.06061e-06 -1.33283e-06 9.36705e-22 -1.31996e-06 4.79879e-21 0)
(3.52531e-06 -1.33068e-06 6.99993e-23 -1.54042e-06 2.58149e-22 0)
(3.93509e-06 -1.29441e-06 -2.99913e-21 -1.73426e-06 -8.72411e-21 0)
(4.31539e-06 -1.26495e-06 2.20224e-21 -1.89909e-06 3.42069e-22 0)
(8.31396e-08 -3.61251e-07 -2.50121e-21 1.03612e-07 -6.11765e-22 -1.35583e-37)
(6.24518e-07 -9.96082e-07 4.01327e-21 3.64434e-08 4.25455e-21 0)
(1.35533e-06 -1.44224e-06 4.20007e-21 -2.99411e-07 8.79039e-22 0)
(2.07393e-06 -1.74126e-06 2.17648e-22 -7.1575e-07 -2.94803e-21 0)
(2.73542e-06 -1.90673e-06 0 -1.1003e-06 0 0)
(3.31768e-06 -1.98458e-06 -6.24003e-21 -1.43759e-06 -1.6283e-21 0)
(3.82355e-06 -1.99461e-06 -8.51157e-21 -1.72115e-06 -2.38297e-21 0)
(4.26817e-06 -1.96299e-06 5.62956e-21 -1.95988e-06 3.44189e-21 0)
(4.63831e-06 -1.89412e-06 3.41077e-23 -2.15483e-06 1.09889e-22 0)
(4.98313e-06 -1.83554e-06 -5.06327e-21 -2.31335e-06 -3.20059e-21 0)
(1.29024e-07 -8.13731e-07 6.53323e-21 4.13295e-07 -2.34127e-21 5.07365e-36)
(1.02174e-06 -1.71325e-06 9.91589e-22 7.67972e-08 -3.57422e-21 0)
(1.95125e-06 -2.18288e-06 4.61563e-21 -4.09295e-07 9.0148e-22 0)
(2.79932e-06 -2.44602e-06 0 -9.48992e-07 0 0)
(3.53406e-06 -2.55567e-06 -7.8704e-21 -1.41979e-06 2.93044e-21 0)
(4.14868e-06 -2.57621e-06 8.9312e-23 -1.81799e-06 7.25206e-21 0)
(4.65728e-06 -2.53282e-06 -3.88496e-22 -2.13978e-06 -3.89538e-21 0)
(5.08666e-06 -2.4517e-06 -1.12254e-21 -2.40055e-06 -6.01226e-21 0)
(5.42222e-06 -2.33921e-06 2.56964e-21 -2.60237e-06 8.33787e-22 0)
(5.7374e-06 -2.2434e-06 4.79624e-21 -2.76089e-06 1.79897e-21 0)
(2.49427e-07 -1.45361e-06 -8.82345e-21 8.44531e-07 5.82948e-21 1.12576e-35)
(1.58172e-06 -2.49429e-06 -8.10665e-21 6.8452e-08 5.432e-21 0)
(2.71062e-06 -2.9169e-06 -4.91429e-21 -6.2127e-07 -1.44491e-21 0)
(3.6688e-06 -3.09235e-06 -1.33007e-21 -1.29463e-06 5.31684e-21 0)
(4.45215e-06 -3.10461e-06 -5.22759e-23 -1.84356e-06 3.27924e-22 0)
(5.07883e-06 -3.03622e-06 7.58153e-21 -2.29059e-06 -2.03332e-21 0)
(5.575e-06 -2.91655e-06 3.30143e-21 -2.63872e-06 8.66331e-22 0)
(5.97793e-06 -2.76962e-06 0 -2.91131e-06 0 0)
(6.27216e-06 -2.60478e-06 -3.52314e-21 -3.11197e-06 -4.63503e-21 0)
(6.55243e-06 -2.46399e-06 1.40593e-21 -3.26434e-06 3.41328e-22 0)
(5.13522e-07 -2.29523e-06 -6.64727e-21 1.33014e-06 -8.57764e-21 -1.77913e-35)
(2.32365e-06 -3.28659e-06 3.31117e-21 9.43061e-09 -6.44434e-21 0)
(3.64122e-06 -3.57747e-06 -4.05679e-21 -9.12409e-07 -4.37685e-21 0)
(4.68182e-06 -3.62024e-06 8.94151e-22 -1.71657e-06 -2.47557e-21 0)
(5.48343e-06 -3.50886e-06 8.58649e-21 -2.32784e-06 2.87179e-21 0)
(6.09556e-06 -3.33567e-06 -8.28611e-21 -2.80627e-06 9.21997e-22 0)
(6.55834e-06 -3.13007e-06 -9.55854e-24 -3.16539e-06 2.19748e-22 0)
(6.91802e-06 -2.91164e-06 -6.45123e-21 -3.43695e-06 -4.44252e-21 0)
(7.16028e-06 -2.69289e-06 1.3528e-23 -3.6282e-06 8.62228e-23 0)
(7.39553e-06 -2.50491e-06 -7.04482e-21 -3.76703e-06 -3.22002e-21 0)
(9.98738e-07 -3.32953e-06 3.12963e-21 1.76709e-06 -5.0253e-21 3.58961e-37)
(3.25392e-06 -4.05838e-06 1.83281e-22 -1.20926e-07 -2.77204e-22 0)
(4.72589e-06 -4.12502e-06 -1.34293e-25 -1.27466e-06 2.2884e-25 0)
(5.81172e-06 -3.9903e-06 -8.76976e-21 -2.19761e-06 -6.14447e-21 0)
(6.59774e-06 -3.73464e-06 -1.49211e-21 -2.85295e-06 3.98038e-21 0)
(7.1661e-06 -3.44825e-06 -8.03788e-21 -3.34445e-06 -3.27001e-21 0)
(7.57257e-06 -3.15444e-06 1.44487e-20 -3.698e-06 6.43957e-21 0)
(7.87005e-06 -2.86577e-06 -1.88699e-24 -3.95491e-06 1.72553e-22 0)
(8.04878e-06 -2.59678e-06 2.84414e-21 -4.12687e-06 -1.14081e-23 0)
(8.22633e-06 -2.36335e-06 -3.85337e-21 -4.24432e-06 -1.83468e-21 0)
(1.77689e-06 -4.51812e-06 1.77341e-20 2.05828e-06 -5.88912e-21 2.12021e-35)
(4.36948e-06 -4.77941e-06 4.72046e-21 -3.31677e-07 -5.6316e-21 0)
(5.9303e-06 -4.53342e-06 -1.82189e-21 -1.67701e-06 2.42348e-21 0)
(7.01128e-06 -4.18141e-06 1.11411e-21 -2.68903e-06 -1.73304e-21 0)
(7.74423e-06 -3.76747e-06 9.93573e-26 -3.36401e-06 -1.94611e-25 0)
(8.23954e-06 -3.36652e-06 9.3302e-21 -3.84898e-06 7.89711e-22 0)
(8.56845e-06 -2.98911e-06 7.01831e-22 -4.18224e-06 -3.03557e-21 0)
(8.78645e-06 -2.63817e-06 -2.35205e-22 -4.41201e-06 2.49785e-21 0)
(8.89343e-06 -2.3277e-06 3.22177e-23 -4.55997e-06 1.24721e-21 0)
(9.00048e-06 -2.05498e-06 2.94453e-21 -4.64777e-06 2.7508e-21 0)
(2.90483e-06 -5.79141e-06 7.91563e-21 2.11269e-06 6.95472e-21 -1.94435e-35)
(5.66228e-06 -5.41974e-06 -1.52925e-21 -6.37636e-07 1.0325e-20 0)
(7.21725e-06 -4.79061e-06 -1.76077e-25 -2.09843e-06 1.84328e-25 0)
(8.23105e-06 -4.19146e-06 1.20715e-20 -3.1534e-06 2.83279e-21 0)
(8.8698e-06 -3.61184e-06 9.21801e-21 -3.81706e-06 4.60071e-21 0)
(9.26281e-06 -3.10061e-06 8.3163e-21 -4.27488e-06 4.15203e-21 0)
(9.49407e-06 -2.64818e-06 -9.10135e-22 -4.572e-06 2.60896e-21 0)
(9.61685e-06 -2.24803e-06 -1.00138e-20 -4.76612e-06 -5.59471e-21 0)
(9.64615e-06 -1.90674e-06 6.14893e-21 -4.88285e-06 1.45728e-21 0)
(9.67452e-06 -1.60251e-06 2.75754e-21 -4.94864e-06 1.63857e-21 0)
(4.41356e-06 -7.0569e-06 -7.47029e-22 1.86539e-06 6.6009e-22 2.11857e-38)
(7.11563e-06 -5.94779e-06 -3.06043e-21 -1.04535e-06 2.25678e-21 0)
(8.54701e-06 -4.89446e-06 -5.92683e-21 -2.5162e-06 -2.76238e-21 0)
(9.42105e-06 -4.03364e-06 2.56784e-20 -3.55307e-06 6.01373e-21 0)
(9.92065e-06 -3.28936e-06 1.57267e-22 -4.16861e-06 -1.78572e-22 0)
(1.0182e-05 -2.67585e-06 -8.17831e-21 -4.57595e-06 -4.64255e-21 0)
(1.02968e-05 -2.16004e-06 -8.7639e-21 -4.82325e-06 -1.38108e-21 0)
(1.03107e-05 -1.72522e-06 -3.30182e-21 -4.96779e-06 -1.97459e-21 0)
(1.02653e-05 -1.37213e-06 3.66891e-22 -5.0607e-06 -2.73217e-21 0)
(1.01903e-05 -1.06717e-06 1.65116e-21 -5.0688e-06 3.45447e-21 0)
(4.1556e-06 -4.11245e-07 3.80474e-21 -1.8099e-06 2.32913e-21 1.51317e-36)
(4.49447e-06 -3.67057e-07 3.03541e-21 -1.94877e-06 4.42444e-22 6.32448e-37)
(4.80565e-06 -3.28552e-07 -2.4076e-21 -2.07754e-06 -2.84643e-21 -2.37429e-36)
(5.08552e-06 -2.93604e-07 -1.38029e-21 -2.19407e-06 -1.01676e-21 -3.72322e-38)
(5.33801e-06 -2.61225e-07 -4.40019e-21 -2.29894e-06 -7.43826e-22 1.61827e-36)
(5.5643e-06 -2.32208e-07 0 -2.39345e-06 0 0)
(5.76717e-06 -2.05623e-07 0 -2.47806e-06 0 0)
(5.94804e-06 -1.81629e-07 1.62676e-21 -2.55375e-06 1.01462e-21 -2.87033e-38)
(6.109e-06 -1.59643e-07 1.46318e-21 -2.62114e-06 2.73307e-22 2.02155e-37)
(6.25131e-06 -1.39495e-07 3.42883e-21 -2.68087e-06 2.05413e-21 -9.8597e-38)
(6.37635e-06 -1.20757e-07 4.43561e-21 -2.73345e-06 8.45684e-22 1.89546e-36)
(6.48502e-06 -1.03152e-07 -1.48906e-21 -2.77927e-06 -2.85216e-22 2.14167e-37)
(6.57807e-06 -8.63382e-08 4.50303e-21 -2.81864e-06 8.63678e-22 1.95549e-36)
(6.65599e-06 -7.00623e-08 -5.50265e-21 -2.85178e-06 -3.20116e-21 -1.45556e-37)
(6.71897e-06 -5.41184e-08 3.26127e-22 -2.87876e-06 7.87502e-22 -6.10596e-37)
(6.76736e-06 -3.84824e-08 -3.24513e-29 -2.89971e-06 -1.89319e-29 -3.47528e-54)
(6.80099e-06 -2.33775e-08 -1.88079e-21 -2.91455e-06 -1.10177e-21 -9.12588e-39)
(6.82109e-06 -9.66004e-09 1.88864e-21 -2.9235e-06 1.11161e-21 -6.6072e-39)
(6.82758e-06 8.56895e-10 9.40396e-22 -2.92624e-06 -1.36818e-21 -3.20505e-36)
(6.82539e-06 3.37296e-09 -4.41983e-21 -2.92227e-06 -3.92351e-21 -8.55886e-36)
(4.62817e-06 -1.17802e-06 5.38412e-21 -2.04738e-06 6.62e-21 0)
(4.87944e-06 -1.06057e-06 3.49243e-21 -2.15354e-06 9.56792e-22 0)
(5.11944e-06 -9.56927e-07 2.62955e-22 -2.25117e-06 -1.51224e-21 0)
(5.33489e-06 -8.60252e-07 7.93062e-21 -2.34075e-06 7.14727e-21 0)
(5.53322e-06 -7.69715e-07 -1.5244e-21 -2.42077e-06 -3.60093e-22 0)
(5.71234e-06 -6.87823e-07 -6.46704e-21 -2.49417e-06 -6.55167e-21 0)
(5.87544e-06 -6.12087e-07 3.2983e-21 -2.56009e-06 1.2201e-21 0)
(6.02233e-06 -5.43255e-07 0 -2.62e-06 0 0)
(6.15489e-06 -4.79779e-07 1.57166e-21 -2.6739e-06 5.56531e-22 0)
(6.27354e-06 -4.21353e-07 3.23131e-21 -2.72248e-06 1.24507e-21 0)
(6.37942e-06 -3.66894e-07 9.69141e-21 -2.76598e-06 5.00516e-21 0)
(6.47305e-06 -3.1575e-07 4.3739e-23 -2.80474e-06 4.9981e-23 0)
(6.55512e-06 -2.67088e-07 1.25774e-21 -2.83892e-06 -9.76309e-22 0)
(6.62606e-06 -2.20316e-07 1.84997e-21 -2.86863e-06 2.11526e-21 0)
(6.68616e-06 -1.74975e-07 1.89795e-21 -2.89378e-06 2.17574e-21 0)
(6.73577e-06 -1.31043e-07 -1.88021e-21 -2.91413e-06 -2.16637e-21 0)
(6.77459e-06 -8.90423e-08 -1.89091e-21 -2.92897e-06 -2.19101e-21 0)
(6.80305e-06 -5.07944e-08 -3.79753e-21 -2.93709e-06 -4.42605e-21 0)
(6.81895e-06 -1.90822e-08 -2.87343e-23 -2.93571e-06 -3.14385e-23 0)
(6.82293e-06 -2.1368e-09 -4.78986e-22 -2.92025e-06 2.75435e-21 1.06222e-36)
(5.22401e-06 -1.70527e-06 1.4733e-21 -2.43541e-06 2.01549e-21 0)
(5.38239e-06 -1.54513e-06 2.01078e-21 -2.49863e-06 7.17273e-22 0)
(5.54587e-06 -1.40128e-06 -4.67074e-21 -2.55156e-06 -5.88124e-21 0)
(5.68942e-06 -1.2677e-06 -4.19157e-22 -2.60167e-06 1.07339e-21 0)
(5.82683e-06 -1.14057e-06 8.52227e-21 -2.64456e-06 7.0924e-21 0)
(5.95151e-06 -1.02502e-06 -6.76973e-21 -2.68551e-06 -6.46053e-21 0)
(6.06824e-06 -9.17026e-07 -1.8022e-21 -2.72247e-06 -2.08632e-21 0)
(6.1748e-06 -8.1828e-07 3.44459e-21 -2.75732e-06 3.91605e-21 0)
(6.27324e-06 -7.26654e-07 1.54183e-23 -2.78962e-06 -2.54125e-21 0)
(6.36297e-06 -6.42026e-07 -3.64508e-21 -2.81998e-06 -4.09663e-21 0)
(6.44496e-06 -5.63057e-07 3.49293e-21 -2.84837e-06 3.91145e-21 0)
(6.51923e-06 -4.89032e-07 5.39755e-21 -2.87497e-06 6.04758e-21 0)
(6.58626e-06 -4.1895e-07 4.13005e-23 -2.89973e-06 4.5495e-23 0)
(6.64625e-06 -3.52094e-07 -1.84823e-21 -2.92251e-06 -2.08277e-21 0)
(6.69924e-06 -2.87841e-07 1.82968e-21 -2.94287e-06 2.07434e-21 0)
(6.74528e-06 -2.25951e-07 2.69723e-28 -2.96e-06 3.00231e-28 0)
(6.7834e-06 -1.66572e-07 -1.88519e-21 -2.97225e-06 -2.16428e-21 0)
(6.81312e-06 -1.10637e-07 2.55777e-22 -2.97694e-06 1.56285e-21 0)
(6.82961e-06 -5.98634e-08 -6.19676e-21 -2.96855e-06 -7.99576e-22 0)
(6.83249e-06 -1.6489e-08 1.75959e-24 -2.94071e-06 3.60025e-24 -2.90687e-42)
(5.90753e-06 -2.07661e-06 0 -2.85917e-06 0 0)
(5.96959e-06 -1.89311e-06 2.14979e-21 -2.88285e-06 7.83058e-22 0)
(6.05543e-06 -1.72377e-06 1.68247e-21 -2.89342e-06 1.92251e-21 0)
(6.12388e-06 -1.5692e-06 1.8466e-21 -2.90653e-06 2.1374e-21 0)
(6.1972e-06 -1.419e-06 0 -2.91305e-06 0 0)
(6.26324e-06 -1.28243e-06 2.49739e-22 -2.92163e-06 -1.07834e-21 0)
(6.32952e-06 -1.15323e-06 -5.52694e-21 -2.92897e-06 -3.3928e-21 0)
(6.39136e-06 -1.03452e-06 -3.52727e-21 -2.9376e-06 -3.83126e-21 0)
(6.45143e-06 -9.23625e-07 -1.98292e-21 -2.9468e-06 -9.15111e-22 0)
(6.50801e-06 -8.20807e-07 -1.11288e-23 -2.95712e-06 2.44895e-21 0)
(6.56199e-06 -7.24623e-07 -1.74401e-21 -2.96839e-06 5.37215e-22 0)
(6.61281e-06 -6.34422e-07 3.64866e-21 -2.98061e-06 1.56496e-21 0)
(6.66067e-06 -5.49143e-07 3.4635e-21 -2.99355e-06 1.73427e-22 0)
(6.70538e-06 -4.67984e-07 8.4602e-23 -3.00681e-06 1.3095e-21 0)
(6.7466e-06 -3.90158e-07 1.49788e-22 -3.01965e-06 1.38832e-21 0)
(6.78399e-06 -3.15066e-07 -1.86386e-21 -3.03084e-06 -2.09618e-21 0)
(6.81591e-06 -2.42314e-07 -3.98081e-28 -3.03821e-06 -4.47963e-28 0)
(6.84146e-06 -1.71434e-07 3.97517e-21 -3.03857e-06 5.82758e-21 0)
(6.85454e-06 -1.02999e-07 -2.02498e-22 -3.02574e-06 -1.53234e-21 0)
(6.85534e-06 -3.20513e-08 -4.45877e-21 -2.9932e-06 -7.77046e-21 -1.42396e-35)
(6.64885e-06 -2.26876e-06 1.63292e-22 -3.33229e-06 2.68473e-21 0)
(6.611e-06 -2.08442e-06 -2.33595e-21 -3.31549e-06 -1.02058e-21 0)
(6.61877e-06 -1.9047e-06 -5.87406e-21 -3.2802e-06 -4.78548e-21 0)
(6.61016e-06 -1.74618e-06 3.86736e-21 -3.2548e-06 2.63167e-21 0)
(6.61831e-06 -1.58733e-06 1.00641e-20 -3.22274e-06 6.60842e-21 0)
(6.6235e-06 -1.44344e-06 -1.84874e-21 -3.1965e-06 -1.93172e-21 0)
(6.63714e-06 -1.30529e-06 0 -3.17163e-06 0 0)
(6.65158e-06 -1.17763e-06 1.80045e-21 -3.15118e-06 1.87289e-21 0)
(6.67046e-06 -1.05741e-06 -5.79417e-21 -3.1344e-06 -2.47569e-21 0)
(6.69088e-06 -9.4534e-07 -3.75888e-21 -3.1218e-06 -2.76933e-21 0)
(6.7137e-06 -8.40072e-07 2.10063e-22 -3.11318e-06 -2.13604e-21 0)
(6.73779e-06 -7.41095e-07 -1.89458e-21 -3.10838e-06 -3.20101e-21 0)
(6.76309e-06 -6.47402e-07 -1.92029e-22 -3.10704e-06 3.36095e-21 0)
(6.78901e-06 -5.58119e-07 3.70331e-21 -3.1086e-06 5.21677e-21 0)
(6.8149e-06 -4.72292e-07 1.80279e-21 -3.1121e-06 7.68641e-22 0)
(6.84006e-06 -3.88851e-07 -6.82542e-23 -3.11615e-06 -1.30048e-21 0)
(6.86251e-06 -3.06823e-07 3.49456e-21 -3.11836e-06 1.43768e-21 0)
(6.88115e-06 -2.24191e-07 1.71876e-21 -3.11558e-06 6.90058e-22 0)
(6.8898e-06 -1.40808e-07 7.05514e-21 -3.10198e-06 5.57071e-21 0)
(6.88904e-06 -4.57198e-08 1.95814e-21 -3.07161e-06 5.9068e-21 -6.167e-36)
(7.41574e-06 -2.29131e-06 1.37696e-21 -3.80199e-06 1.89176e-21 0)
(7.27706e-06 -2.12989e-06 3.31602e-23 -3.75069e-06 7.26197e-23 0)
(7.20917e-06 -1.95431e-06 -4.24698e-21 -3.6722e-06 -2.94274e-21 0)
(7.12364e-06 -1.80744e-06 -1.01991e-20 -3.61134e-06 -7.63068e-21 0)
(7.06781e-06 -1.65295e-06 3.98438e-21 -3.54356e-06 2.71374e-21 0)
(7.01224e-06 -1.51344e-06 3.75031e-21 -3.48423e-06 3.72169e-21 0)
(6.9731e-06 -1.37706e-06 -1.83743e-21 -3.42872e-06 -1.82613e-21 0)
(6.9395e-06 -1.24998e-06 -2.94863e-22 -3.3799e-06 8.18044e-22 0)
(6.91601e-06 -1.12918e-06 8.0609e-21 -3.33739e-06 4.80036e-21 0)
(6.89873e-06 -1.01568e-06 -5.38837e-21 -3.3015e-06 -5.49487e-21 0)
(6.88844e-06 -9.08429e-07 -1.91669e-21 -3.27217e-06 -1.97901e-21 0)
(6.88358e-06 -8.07054e-07 5.21082e-21 -3.24919e-06 7.71368e-21 0)
(6.88384e-06 -7.10704e-07 -7.61098e-21 -3.23224e-06 -2.26817e-21 0)
(6.88834e-06 -6.18487e-07 -5.42522e-21 -3.22072e-06 -5.79297e-21 0)
(6.89624e-06 -5.29352e-07 1.30879e-23 -3.21373e-06 -1.16944e-21 0)
(6.9066e-06 -4.41831e-07 -7.30999e-21 -3.20996e-06 -5.59121e-21 0)
(6.91749e-06 -3.54495e-07 -5.32157e-23 -3.20728e-06 -5.00089e-23 0)
(6.92775e-06 -2.64006e-07 7.18515e-21 -3.203e-06 6.86507e-21 0)
(6.93225e-06 -1.698e-07 1.13515e-22 -3.19248e-06 1.41619e-21 0)
(6.93122e-06 -5.63355e-08 1.67074e-21 -3.17066e-06 1.2358e-21 3.78835e-38)
(8.17089e-06 -2.1445e-06 -1.44314e-21 -4.24358e-06 -1.85102e-21 0)
(7.93584e-06 -2.03168e-06 1.99458e-21 -4.1673e-06 1.8201e-21 0)
(7.79954e-06 -1.87535e-06 2.46201e-21 -4.05291e-06 1.286e-21 0)
(7.64083e-06 -1.75495e-06 -1.94595e-21 -3.96096e-06 -1.82396e-21 0)
(7.52479e-06 -1.61862e-06 -4.60953e-21 -3.86245e-06 -2.30228e-21 0)
(7.41099e-06 -1.49465e-06 2.25026e-21 -3.77221e-06 1.11897e-21 0)
(7.32036e-06 -1.37051e-06 6.36883e-21 -3.68776e-06 4.09652e-21 0)
(7.23965e-06 -1.25263e-06 -1.02467e-20 -3.61127e-06 -6.87715e-21 0)
(7.1739e-06 -1.13904e-06 -6.32027e-21 -3.54332e-06 -4.16167e-21 0)
(7.11876e-06 -1.0309e-06 9.91987e-21 -3.48415e-06 6.71477e-21 0)
(7.07472e-06 -9.27805e-07 -4.04545e-21 -3.43392e-06 -1.93464e-21 0)
(7.04e-06 -8.29595e-07 5.36078e-21 -3.39246e-06 5.48732e-21 0)
(7.01402e-06 -7.35699e-07 5.77172e-21 -3.35951e-06 3.75913e-21 0)
(6.99571e-06 -6.45278e-07 -3.36934e-21 -3.33457e-06 -4.68647e-21 0)
(6.98414e-06 -5.57267e-07 -2.19782e-21 -3.31691e-06 1.13727e-21 0)
(6.97827e-06 -4.69919e-07 1.04175e-22 -3.30547e-06 9.60469e-23 0)
(6.97656e-06 -3.81495e-07 -8.90715e-21 -3.29868e-06 -7.40883e-21 0)
(6.97772e-06 -2.87691e-07 1.76886e-21 -3.29458e-06 1.98585e-21 0)
(6.97859e-06 -1.87747e-07 3.50623e-21 -3.29013e-06 2.74247e-21 0)
(6.97824e-06 -6.31321e-08 8.43386e-22 -3.28153e-06 6.46163e-22 7.78331e-39)
(8.87489e-06 -1.83924e-06 1.72833e-23 -4.61853e-06 5.89617e-23 0)
(8.55472e-06 -1.80006e-06 -2.06219e-21 -4.52969e-06 -1.81329e-21 0)
(8.36155e-06 -1.67926e-06 4.42449e-22 -4.39442e-06 -4.79862e-22 0)
(8.13772e-06 -1.59543e-06 0 -4.27704e-06 0 0)
(7.96757e-06 -1.48956e-06 0 -4.15725e-06 0 0)
(7.80222e-06 -1.38989e-06 -6.17468e-21 -4.04312e-06 -4.83228e-21 0)
(7.66413e-06 -1.28753e-06 5.49377e-21 -3.936e-06 5.11966e-21 0)
(7.53993e-06 -1.18722e-06 1.15822e-20 -3.83655e-06 1.00946e-20 0)
(7.43388e-06 -1.08864e-06 -8.76115e-21 -3.74628e-06 -8.40836e-21 0)
(7.34213e-06 -9.9278e-07 -7.67423e-21 -3.66565e-06 -6.53085e-21 0)
(7.26473e-06 -8.99955e-07 3.53924e-21 -3.59529e-06 3.51712e-21 0)
(7.20005e-06 -8.10272e-07 -3.45748e-22 -3.53538e-06 6.96243e-22 0)
(7.14733e-06 -7.23556e-07 6.05519e-21 -3.48601e-06 2.99273e-21 0)
(7.10548e-06 -6.39184e-07 9.43258e-21 -3.44703e-06 6.52235e-21 0)
(7.07363e-06 -5.56233e-07 1.28761e-22 -3.4181e-06 1.17582e-22 0)
(7.05073e-06 -4.72898e-07 4.29023e-21 -3.39867e-06 -1.16898e-21 0)
(7.03587e-06 -3.87339e-07 0 -3.38797e-06 0 0)
(7.02767e-06 -2.94723e-07 -3.61279e-21 -3.38494e-06 -1.59623e-21 0)
(7.02545e-06 -1.9426e-07 1.73813e-21 -3.38845e-06 7.35971e-22 0)
(7.02667e-06 -6.59233e-08 2.53561e-21 -3.39621e-06 2.01408e-21 6.16983e-38)
(9.49732e-06 -1.40483e-06 -1.35403e-23 -4.89922e-06 -5.15676e-23 0)
(9.10444e-06 -1.45304e-06 2.5593e-21 -4.80698e-06 1.52954e-21 0)
(8.87146e-06 -1.39256e-06 -2.54548e-21 -4.68188e-06 -1.5502e-21 0)
(8.59742e-06 -1.35262e-06 -2.50539e-21 -4.54915e-06 -1.50988e-21 0)
(8.37868e-06 -1.28978e-06 6.8786e-21 -4.41586e-06 4.69129e-21 0)
(8.16938e-06 -1.22046e-06 4.90018e-21 -4.28227e-06 2.92529e-21 0)
(7.98804e-06 -1.14491e-06 -6.50858e-21 -4.15535e-06 -4.35528e-21 0)
(7.82495e-06 -1.06599e-06 8.6429e-22 -4.03606e-06 -9.13719e-22 0)
(7.6822e-06 -9.85859e-07 1.47781e-21 -3.92646e-06 1.36961e-21 0)
(7.55693e-06 -9.05753e-07 -8.015e-22 -3.82745e-06 1.07752e-21 0)
(7.44857e-06 -8.26692e-07 -6.60756e-21 -3.73978e-06 -3.62333e-21 0)
(7.35567e-06 -7.49126e-07 5.91455e-23 -3.66392e-06 5.70137e-23 0)
(7.27739e-06 -6.73193e-07 -3.02388e-21 -3.60021e-06 -4.11035e-21 0)
(7.21268e-06 -5.985e-07 -1.02127e-22 -3.54884e-06 -9.336e-23 0)
(7.16088e-06 -5.24292e-07 3.85922e-21 -3.50995e-06 1.8797e-21 0)
(7.12101e-06 -4.48847e-07 -7.69968e-23 -3.48356e-06 -6.72557e-23 0)
(7.09301e-06 -3.70359e-07 4.70794e-21 -3.46985e-06 6.30693e-21 0)
(7.07541e-06 -2.83895e-07 -1.77666e-21 -3.46879e-06 -7.9541e-22 0)
(7.07038e-06 -1.88647e-07 -8.32735e-21 -3.48132e-06 -8.23716e-21 0)
(7.07339e-06 -6.4498e-08 -2.49189e-21 -3.50688e-06 -4.49384e-21 -4.5476e-36)
(9.99347e-06 -8.47193e-07 -3.26263e-22 -5.0817e-06 -1.64549e-22 0)
(9.58612e-06 -9.53982e-07 -2.74365e-21 -4.96897e-06 -1.61769e-21 0)
(9.32008e-06 -9.79383e-07 2.2278e-21 -4.88219e-06 1.74882e-21 0)
(9.02626e-06 -9.89812e-07 -5.83181e-21 -4.76136e-06 -5.30795e-21 0)
(8.76825e-06 -9.84932e-07 -5.99945e-21 -4.63522e-06 -4.98582e-21 0)
(8.5248e-06 -9.62699e-07 3.55027e-21 -4.50034e-06 3.66375e-21 0)
(8.30456e-06 -9.28207e-07 3.08637e-21 -4.36449e-06 3.67641e-21 0)
(8.10481e-06 -8.83562e-07 5.37811e-21 -4.23188e-06 4.84457e-21 0)
(7.92641e-06 -8.31859e-07 -6.30937e-21 -4.10595e-06 -4.70928e-21 0)
(7.76796e-06 -7.75435e-07 1.5599e-23 -3.98932e-06 1.291e-22 0)
(7.62882e-06 -7.16168e-07 -7.67361e-23 -3.88376e-06 -3.84935e-22 0)
(7.50775e-06 -6.55399e-07 -4.93491e-21 -3.79062e-06 -4.82056e-21 0)
(7.40389e-06 -5.9393e-07 0 -3.71088e-06 0 0)
(7.31623e-06 -5.3196e-07 -4.46939e-21 -3.64533e-06 -1.45438e-21 0)
(7.24428e-06 -4.6918e-07 -2.0945e-23 -3.59472e-06 -8.89289e-23 0)
(7.18713e-06 -4.04259e-07 -5.77065e-21 -3.55978e-06 -2.81086e-21 0)
(7.14558e-06 -3.35666e-07 1.58122e-21 -3.5417e-06 1.66705e-21 0)
(7.11815e-06 -2.58847e-07 3.63925e-21 -3.54164e-06 1.66645e-21 0)
(7.11005e-06 -1.73074e-07 4.52267e-23 -3.56276e-06 -3.6452e-24 0)
(7.11502e-06 -5.94675e-08 -1.64283e-21 -3.60635e-06 -1.4284e-21 -1.26166e-38)
(1.02366e-05 -3.87827e-07 2.82334e-21 -5.09725e-06 2.48291e-21 0)
(9.86468e-06 -4.45701e-07 -2.61102e-21 -5.00229e-06 -1.64171e-21 0)
(9.57777e-06 -5.51097e-07 -1.51306e-21 -4.94156e-06 -1.25558e-21 0)
(9.28567e-06 -6.01649e-07 2.50883e-21 -4.84337e-06 1.53394e-21 0)
(9.01489e-06 -6.3699e-07 -4.95815e-21 -4.72823e-06 -2.25524e-21 0)
(8.75813e-06 -6.53015e-07 -3.34382e-21 -4.60191e-06 -1.58074e-21 0)
(8.52126e-06 -6.5371e-07 -4.16966e-21 -4.46972e-06 -3.02521e-21 0)
(8.30293e-06 -6.41767e-07 5.0182e-22 -4.33725e-06 -3.48242e-22 0)
(8.10484e-06 -6.19616e-07 8.42789e-21 -4.20848e-06 5.37249e-21 0)
(7.92623e-06 -5.89781e-07 -2.89973e-22 -4.08679e-06 -3.11507e-22 0)
(7.76711e-06 -5.54237e-07 4.50429e-21 -3.97468e-06 2.55186e-21 0)
(7.62667e-06 -5.14635e-07 -2.22331e-22 -3.87415e-06 -2.51637e-22 0)
(7.50448e-06 -4.72112e-07 1.6465e-35 -3.78681e-06 1.67085e-35 0)
(7.39979e-06 -4.27262e-07 -1.98008e-21 -3.71405e-06 -9.87114e-22 0)
(7.31252e-06 -3.80175e-07 1.9356e-21 -3.65728e-06 9.4309e-22 0)
(7.242e-06 -3.30051e-07 -8.69692e-23 -3.61795e-06 -1.25452e-22 0)
(7.18986e-06 -2.75806e-07 3.07146e-22 -3.59825e-06 -8.15042e-22 0)
(7.1546e-06 -2.13912e-07 1.75711e-23 -3.6003e-06 5.82014e-23 0)
(7.14382e-06 -1.43847e-07 -1.78699e-23 -3.62916e-06 2.31625e-23 0)
(7.14973e-06 -4.95885e-08 -2.69906e-23 -3.68791e-06 -1.29274e-23 2.40345e-40)
(1.00338e-05 6.21969e-08 2.6215e-21 -4.91189e-06 2.07273e-21 0)
(9.78573e-06 -4.24363e-09 0 -4.93911e-06 0 0)
(9.52652e-06 -1.33187e-07 -2.04513e-21 -4.89295e-06 -1.80131e-21 0)
(9.26764e-06 -2.18159e-07 2.67322e-35 -4.81848e-06 2.16349e-35 0)
(9.02053e-06 -2.84899e-07 6.12616e-36 -4.72006e-06 4.44331e-36 0)
(8.78207e-06 -3.32253e-07 2.90541e-35 -4.60761e-06 2.16013e-35 0)
(8.55816e-06 -3.62893e-07 4.45682e-35 -4.48649e-06 3.59983e-35 0)
(8.34817e-06 -3.79544e-07 -1.79217e-21 -4.36241e-06 -1.67848e-21 0)
(8.15452e-06 -3.84393e-07 0 -4.23964e-06 0 0)
(7.9772e-06 -3.79831e-07 1.71253e-21 -4.12188e-06 1.65836e-21 0)
(7.81693e-06 -3.67767e-07 -2.45292e-36 -4.012e-06 -4.11385e-36 0)
(7.67356e-06 -3.49888e-07 -1.64735e-21 -3.91242e-06 -1.65168e-21 0)
(7.54723e-06 -3.27425e-07 1.62022e-21 -3.82516e-06 1.65258e-21 0)
(7.4377e-06 -3.01204e-07 2.32659e-35 -3.75204e-06 1.69432e-35 0)
(7.34544e-06 -2.71548e-07 -1.5769e-21 -3.69497e-06 -1.6619e-21 0)
(7.2702e-06 -2.3821e-07 -1.39788e-35 -3.65593e-06 -1.29168e-35 0)
(7.21432e-06 -2.00441e-07 1.54876e-21 -3.63777e-06 1.68155e-21 0)
(7.17655e-06 -1.56047e-07 1.54065e-21 -3.64328e-06 1.69619e-21 0)
(7.16628e-06 -1.04993e-07 -1.6629e-35 -3.67899e-06 -1.44962e-35 0)
(7.17471e-06 -3.61191e-08 -8.31299e-36 -3.74851e-06 -1.472e-35 -4.90391e-65)
(9.85836e-06 5.13177e-07 4.85088e-22 -4.71982e-06 8.38378e-22 0)