/*--------------------------------*- C++ -*----------------------------------*\
  =========                 |
  \\      /  F ield         | OpenFOAM: The Open Source CFD Toolbox
   \\    /   O peration     | Website:  https://openfoam.org
    \\  /    A nd           | Version:  9
     \\/     M anipulation  |
\*---------------------------------------------------------------------------*/
FoamFile
{
    format      ascii;
    class       volScalarField;
    location    "15";
    object      epsilonEq;
}
// * * * * * * * * * * * * * * * * * * * * * * * * * * * * * * * * * * * * * //

dimensions      [0 0 0 0 0 0 0];

internalField   nonuniform List<scalar> 
1000
(
1.02298e-05
9.71339e-06
9.55924e-06
9.6389e-06
9.64803e-06
9.62923e-06
9.56279e-06
9.46115e-06
9.3476e-06
9.20528e-06
1.19226e-05
1.08442e-05
1.02999e-05
1.01424e-05
9.99328e-06
9.8674e-06
9.72143e-06
9.56625e-06
9.39103e-06
9.23579e-06
1.35667e-05
1.19226e-05
1.09667e-05
1.05383e-05
1.0209e-05
9.95663e-06
9.71845e-06
9.49615e-06
9.26339e-06
9.07656e-06
1.50975e-05
1.29291e-05
1.15597e-05
1.0834e-05
1.03059e-05
9.91186e-06
9.57296e-06
9.27941e-06
8.99122e-06
8.77117e-06
1.66003e-05
1.38607e-05
1.20926e-05
1.10408e-05
1.02915e-05
9.74026e-06
9.29218e-06
8.92288e-06
8.58236e-06
8.32706e-06
1.80047e-05
1.4731e-05
1.25412e-05
1.11544e-05
1.01679e-05
9.451e-06
8.88991e-06
8.4442e-06
8.05465e-06
7.76327e-06
1.90279e-05
1.54509e-05
1.28178e-05
1.11151e-05
9.9024e-06
9.03298e-06
8.37123e-06
7.85935e-06
7.43124e-06
7.10746e-06
2.00454e-05
1.5965e-05
1.28717e-05
1.08914e-05
9.49241e-06
8.50878e-06
7.77784e-06
7.22431e-06
6.77706e-06
6.43179e-06
2.10946e-05
1.59676e-05
1.24966e-05
1.03049e-05
8.86202e-06
7.86278e-06
7.1373e-06
6.58947e-06
6.15388e-06
5.80442e-06
2.21641e-05
1.50731e-05
1.15617e-05
9.50295e-06
8.23658e-06
7.3518e-06
6.70362e-06
6.19803e-06
5.78921e-06
5.44166e-06
2.76209e-08
8.32463e-08
3.7315e-07
7.70523e-07
1.20649e-06
1.65658e-06
2.09379e-06
2.5106e-06
2.89359e-06
3.2489e-06
9.82308e-08
5.1562e-07
1.09773e-06
1.67005e-06
2.17748e-06
2.62827e-06
3.02175e-06
3.37412e-06
3.6768e-06
3.96128e-06
4.24673e-07
1.22437e-06
1.95803e-06
2.62191e-06
3.17523e-06
3.63534e-06
4.00966e-06
4.32394e-06
4.57009e-06
4.80303e-06
9.7469e-07
2.08993e-06
2.91668e-06
3.61682e-06
4.17424e-06
4.62181e-06
4.96971e-06
5.24836e-06
5.44806e-06
5.64023e-06
1.75615e-06
3.06486e-06
3.94537e-06
4.65119e-06
5.18302e-06
5.59521e-06
5.90204e-06
6.13697e-06
6.28912e-06
6.43988e-06
2.76599e-06
4.1021e-06
4.98325e-06
5.6693e-06
6.15659e-06
6.51935e-06
6.77563e-06
6.96054e-06
7.06416e-06
7.17137e-06
3.98282e-06
5.18413e-06
6.00206e-06
6.64075e-06
7.06853e-06
7.37242e-06
7.57193e-06
7.70271e-06
7.7575e-06
7.81867e-06
5.37861e-06
6.29593e-06
6.97728e-06
7.53485e-06
7.88777e-06
8.12517e-06
8.26506e-06
8.33997e-06
8.35013e-06
8.3626e-06
6.91115e-06
7.42667e-06
7.89814e-06
8.33721e-06
8.59741e-06
8.76039e-06
8.83656e-06
8.85543e-06
8.82303e-06
8.79336e-06
8.54823e-06
8.56793e-06
8.7575e-06
9.03729e-06
9.18311e-06
9.25986e-06
9.26733e-06
9.22449e-06
9.16358e-06
9.06676e-06
3.56899e-06
3.84419e-06
4.09943e-06
4.33024e-06
4.53893e-06
4.7267e-06
4.89527e-06
5.04591e-06
5.18012e-06
5.29894e-06
5.40345e-06
5.49435e-06
5.57226e-06
5.63756e-06
5.69042e-06
5.73112e-06
5.7595e-06
5.77649e-06
5.78186e-06
5.77851e-06
4.18143e-06
4.34186e-06
4.50381e-06
4.65431e-06
4.79549e-06
4.92672e-06
5.04799e-06
5.15926e-06
5.26089e-06
5.35297e-06
5.43591e-06
5.50989e-06
5.57517e-06
5.63192e-06
5.68017e-06
5.71994e-06
5.75065e-06
5.77196e-06
5.781e-06
5.77589e-06
4.9333e-06
4.98471e-06
5.05057e-06
5.1141e-06
5.17872e-06
5.2431e-06
5.30678e-06
5.36866e-06
5.42849e-06
5.48546e-06
5.53942e-06
5.58993e-06
5.63681e-06
5.6798e-06
5.71846e-06
5.75225e-06
5.77963e-06
5.79887e-06
5.80409e-06
5.79184e-06
5.69606e-06
5.65654e-06
5.6396e-06
5.62617e-06
5.62013e-06
5.62058e-06
5.62744e-06
5.63902e-06
5.65514e-06
5.67432e-06
5.69618e-06
5.71972e-06
5.74441e-06
5.7695e-06
5.79407e-06
5.81705e-06
5.83611e-06
5.84899e-06
5.84865e-06
5.83195e-06
6.43002e-06
6.31562e-06
6.22746e-06
6.14787e-06
6.07964e-06
6.02205e-06
5.97615e-06
5.93956e-06
5.91281e-06
5.89393e-06
5.88263e-06
5.87755e-06
5.87797e-06
5.88277e-06
5.89072e-06
5.90036e-06
5.90906e-06
5.91436e-06
5.90945e-06
5.89175e-06
7.10351e-06
6.92947e-06
6.78234e-06
6.64726e-06
6.52696e-06
6.41904e-06
6.32701e-06
6.24714e-06
6.18104e-06
6.12632e-06
6.08294e-06
6.04943e-06
6.02503e-06
6.0085e-06
5.99855e-06
5.99363e-06
5.99128e-06
5.9892e-06
5.98198e-06
5.9673e-06
7.70043e-06
7.48149e-06
7.28956e-06
7.10872e-06
6.94697e-06
6.79605e-06
6.66409e-06
6.54565e-06
6.44377e-06
6.35594e-06
6.28244e-06
6.22183e-06
6.1734e-06
6.13596e-06
6.1083e-06
6.08899e-06
6.0761e-06
6.06766e-06
6.0604e-06
6.05202e-06
8.20422e-06
7.95384e-06
7.7346e-06
7.51605e-06
7.32394e-06
7.13959e-06
6.97596e-06
6.82606e-06
6.6936e-06
6.57656e-06
6.47547e-06
6.38938e-06
6.31783e-06
6.25992e-06
6.2148e-06
6.18133e-06
6.15846e-06
6.14466e-06
6.13928e-06
6.13981e-06
8.61334e-06
8.33481e-06
8.11583e-06
7.87089e-06
7.65552e-06
7.44396e-06
7.25228e-06
7.07533e-06
6.91629e-06
6.7741e-06
6.64911e-06
6.54078e-06
6.44882e-06
6.37262e-06
6.31179e-06
6.26559e-06
6.23403e-06
6.21606e-06
6.21394e-06
6.22478e-06
8.91845e-06
8.62025e-06
8.41556e-06
8.17271e-06
7.94793e-06
7.72461e-06
7.51334e-06
7.31477e-06
7.13191e-06
6.9657e-06
6.81705e-06
6.68619e-06
6.57327e-06
6.47814e-06
6.40091e-06
6.34134e-06
6.30055e-06
6.27811e-06
6.27932e-06
6.30113e-06
9.03749e-06
8.75796e-06
8.55549e-06
8.32683e-06
8.10232e-06
7.87912e-06
7.66387e-06
7.45865e-06
7.26685e-06
7.09e-06
6.92968e-06
6.78665e-06
6.66164e-06
6.555e-06
6.46752e-06
6.39946e-06
6.35307e-06
6.32841e-06
6.33318e-06
6.36425e-06
8.80598e-06
8.66209e-06
8.47645e-06
8.27776e-06
8.07492e-06
7.87015e-06
7.66966e-06
7.47569e-06
7.292e-06
7.12048e-06
6.96318e-06
6.82133e-06
6.69619e-06
6.58858e-06
6.49985e-06
6.43086e-06
6.38459e-06
6.36166e-06
6.37156e-06
6.41073e-06
8.61938e-06
8.51006e-06
8.36779e-06
8.19753e-06
8.02088e-06
7.83581e-06
7.65154e-06
7.46994e-06
7.29566e-06
7.13083e-06
6.97805e-06
6.83895e-06
6.7152e-06
6.60813e-06
6.5195e-06
6.4507e-06
6.40536e-06
6.38423e-06
6.39786e-06
6.44254e-06
8.39692e-06
8.33108e-06
8.22429e-06
8.08171e-06
7.93005e-06
7.76507e-06
7.59811e-06
7.43063e-06
7.26799e-06
7.11243e-06
6.96696e-06
6.83345e-06
6.71392e-06
6.61001e-06
6.52375e-06
6.45705e-06
6.41337e-06
6.39464e-06
6.41211e-06
6.45982e-06
8.14331e-06
8.1118e-06
8.03852e-06
7.92505e-06
7.80009e-06
7.6577e-06
7.51052e-06
7.35977e-06
7.21136e-06
7.06769e-06
6.93208e-06
6.80668e-06
6.69371e-06
6.59512e-06
6.51289e-06
6.44981e-06
6.40768e-06
6.39381e-06
6.40255e-06
6.46143e-06
7.87328e-06
7.87241e-06
7.82928e-06
7.74317e-06
7.64339e-06
7.52335e-06
7.39623e-06
7.26314e-06
7.13028e-06
7.00016e-06
6.87632e-06
6.76101e-06
6.65669e-06
6.56529e-06
6.48926e-06
6.43054e-06
6.39325e-06
6.3794e-06
6.39769e-06
6.44384e-06
7.59163e-06
7.61602e-06
7.59925e-06
7.53872e-06
7.46286e-06
7.36502e-06
7.25825e-06
7.14363e-06
7.02746e-06
6.91228e-06
6.80175e-06
6.69818e-06
6.60412e-06
6.52151e-06
6.4528e-06
6.39977e-06
6.36638e-06
6.3534e-06
6.37035e-06
6.41375e-06
7.30413e-06
7.34946e-06
7.35565e-06
7.31826e-06
7.26442e-06
7.18779e-06
7.10092e-06
7.00492e-06
6.90597e-06
6.80664e-06
6.71054e-06
6.62001e-06
6.53755e-06
6.46504e-06
6.40477e-06
6.3583e-06
6.32906e-06
6.31793e-06
6.33281e-06
6.37039e-06
7.01332e-06
7.07527e-06
7.10097e-06
7.08423e-06
7.05059e-06
6.99416e-06
6.92669e-06
6.84933e-06
6.76799e-06
6.6852e-06
6.60446e-06
6.52803e-06
6.45831e-06
6.39704e-06
6.34626e-06
6.30722e-06
6.28275e-06
6.27322e-06
6.28532e-06
6.31591e-06
6.72051e-06
6.79548e-06
6.83765e-06
6.83924e-06
6.82407e-06
6.78672e-06
6.73805e-06
6.67919e-06
6.61569e-06
6.54995e-06
6.48528e-06
6.42383e-06
6.3678e-06
6.31875e-06
6.27839e-06
6.24766e-06
6.22857e-06
6.22116e-06
6.2301e-06
6.25254e-06
6.42523e-06
6.51019e-06
6.56623e-06
6.58417e-06
6.58607e-06
6.56694e-06
6.53664e-06
6.49626e-06
6.45085e-06
6.40266e-06
6.35473e-06
6.30901e-06
6.26751e-06
6.23156e-06
6.2025e-06
6.18092e-06
6.16797e-06
6.16317e-06
6.16907e-06
6.18309e-06
6.12609e-06
6.2188e-06
6.28674e-06
6.31961e-06
6.33764e-06
6.33622e-06
6.32415e-06
6.30238e-06
6.27544e-06
6.24532e-06
6.21476e-06
6.18549e-06
6.15925e-06
6.13716e-06
6.12017e-06
6.10854e-06
6.10256e-06
6.10121e-06
6.10469e-06
6.11054e-06
5.8202e-06
5.91932e-06
5.99802e-06
6.04518e-06
6.07909e-06
6.09544e-06
6.10193e-06
6.09931e-06
6.09148e-06
6.08016e-06
6.06769e-06
6.05557e-06
6.04526e-06
6.03765e-06
6.0334e-06
6.03243e-06
6.03425e-06
6.0373e-06
6.03944e-06
6.03812e-06
5.50473e-06
5.61e-06
5.69927e-06
5.76097e-06
5.81127e-06
5.84613e-06
5.87206e-06
5.88952e-06
5.90177e-06
5.91013e-06
5.91656e-06
5.92228e-06
5.92845e-06
5.93581e-06
5.94471e-06
5.95489e-06
5.96523e-06
5.97368e-06
5.97596e-06
5.96909e-06
5.17474e-06
5.28734e-06
5.38838e-06
5.46615e-06
5.5345e-06
5.58958e-06
5.63663e-06
5.67577e-06
5.70953e-06
5.73883e-06
5.76517e-06
5.78946e-06
5.81264e-06
5.83524e-06
5.85746e-06
5.87894e-06
5.8982e-06
5.91286e-06
5.91697e-06
5.90677e-06
4.8284e-06
4.95108e-06
5.06638e-06
5.16296e-06
5.25197e-06
5.32976e-06
5.40018e-06
5.46298e-06
5.51991e-06
5.57148e-06
5.61872e-06
5.66223e-06
5.70268e-06
5.74049e-06
5.77578e-06
5.8082e-06
5.83625e-06
5.85747e-06
5.86501e-06
5.85413e-06
4.45885e-06
4.59698e-06
4.73143e-06
4.85161e-06
4.96559e-06
5.06993e-06
5.16704e-06
5.25628e-06
5.33862e-06
5.41418e-06
5.48353e-06
5.54698e-06
5.60494e-06
5.65772e-06
5.7054e-06
5.74776e-06
5.78361e-06
5.81081e-06
5.82287e-06
5.81414e-06
4.07347e-06
4.23421e-06
4.3939e-06
4.54316e-06
4.68677e-06
4.82144e-06
4.94824e-06
5.06616e-06
5.17552e-06
5.2761e-06
5.36808e-06
5.45154e-06
5.52667e-06
5.59362e-06
5.65248e-06
5.70317e-06
5.74497e-06
5.77645e-06
5.79269e-06
5.78809e-06
3.66456e-06
3.85996e-06
4.05491e-06
4.24158e-06
4.42153e-06
4.59171e-06
4.75215e-06
4.90161e-06
5.04001e-06
5.16691e-06
5.2823e-06
5.38608e-06
5.47824e-06
5.55877e-06
5.62754e-06
5.68448e-06
5.72906e-06
5.76097e-06
5.77796e-06
5.77766e-06
3.27998e-06
3.51986e-06
3.75681e-06
3.98471e-06
4.20334e-06
4.40967e-06
4.60339e-06
4.78318e-06
4.94892e-06
5.10017e-06
5.23692e-06
5.35904e-06
5.46643e-06
5.55888e-06
5.63594e-06
5.69724e-06
5.74189e-06
5.77024e-06
5.78151e-06
5.77977e-06
5.14819e-06
5.4968e-06
6.09293e-06
6.74942e-06
7.40186e-06
7.9752e-06
8.43863e-06
8.77033e-06
8.97533e-06
9.01676e-06
4.87605e-06
5.20109e-06
5.7509e-06
6.37099e-06
7.00906e-06
7.59399e-06
8.09419e-06
8.47767e-06
8.74347e-06
8.847e-06
4.63227e-06
4.94232e-06
5.45362e-06
6.03411e-06
6.6418e-06
7.21127e-06
7.71596e-06
8.12892e-06
8.45107e-06
8.64906e-06
4.40928e-06
4.70923e-06
5.18869e-06
5.73412e-06
6.3135e-06
6.86626e-06
7.36639e-06
7.78824e-06
8.12604e-06
8.38163e-06
4.20002e-06
4.4931e-06
4.94554e-06
5.45799e-06
6.00726e-06
6.5392e-06
7.0301e-06
7.45957e-06
7.8082e-06
8.09679e-06
4.00355e-06
4.29227e-06
4.72248e-06
5.20574e-06
5.72592e-06
6.23437e-06
6.7083e-06
7.13412e-06
7.48294e-06
7.79296e-06
3.81625e-06
4.10197e-06
4.51338e-06
4.97064e-06
5.46353e-06
5.94891e-06
6.4048e-06
6.82341e-06
7.16717e-06
7.48415e-06
3.63747e-06
3.9208e-06
4.31598e-06
4.74984e-06
5.21681e-06
5.67854e-06
6.11413e-06
6.52105e-06
6.85717e-06
7.17446e-06
3.46604e-06
3.74689e-06
4.12754e-06
4.54011e-06
4.98289e-06
5.42161e-06
5.83668e-06
6.22917e-06
6.55531e-06
6.86711e-06
3.30199e-06
3.5795e-06
3.94626e-06
4.33867e-06
4.75813e-06
5.17383e-06
5.56804e-06
5.94415e-06
6.25926e-06
6.56256e-06
3.14568e-06
3.41829e-06
3.77083e-06
4.14328e-06
4.5398e-06
4.93242e-06
5.30557e-06
5.66385e-06
5.96687e-06
6.25965e-06
2.99833e-06
3.26367e-06
3.60039e-06
3.9518e-06
4.32471e-06
4.69353e-06
5.04516e-06
5.38455e-06
5.67482e-06
5.95605e-06
2.86244e-06
3.11679e-06
3.43412e-06
3.7617e-06
4.10907e-06
4.45272e-06
4.78203e-06
5.10166e-06
5.37863e-06
5.64792e-06
2.74174e-06
2.9794e-06
3.27168e-06
3.57093e-06
3.88946e-06
4.20577e-06
4.51153e-06
4.81062e-06
5.07398e-06
5.33139e-06
2.64336e-06
2.85432e-06
3.11089e-06
3.37381e-06
3.65823e-06
3.94433e-06
4.22528e-06
4.50354e-06
4.75364e-06
5.0001e-06
2.57571e-06
2.74287e-06
2.94952e-06
3.16688e-06
3.411e-06
3.66368e-06
3.91852e-06
4.176e-06
4.4138e-06
4.65087e-06
2.55747e-06
2.64774e-06
2.77545e-06
2.93117e-06
3.12743e-06
3.34458e-06
3.57423e-06
3.81341e-06
4.04235e-06
4.27402e-06
2.59192e-06
2.55096e-06
2.5752e-06
2.66073e-06
2.8054e-06
2.98697e-06
3.19403e-06
3.41893e-06
3.64403e-06
3.87546e-06
2.72546e-06
2.42884e-06
2.28786e-06
2.28769e-06
2.3869e-06
2.54404e-06
2.74121e-06
2.96468e-06
3.19843e-06
3.44135e-06
2.77902e-06
2.12698e-06
1.89365e-06
1.82686e-06
1.90383e-06
2.05397e-06
2.25848e-06
2.49683e-06
2.75356e-06
3.02101e-06
)
;

boundaryField
{
    left
    {
        type            calculated;
        value           nonuniform List<scalar> 
30
(
5.08965e-06
4.82058e-06
4.57971e-06
4.35929e-06
4.15289e-06
3.95956e-06
3.776e-06
3.60175e-06
3.43586e-06
3.27864e-06
3.13074e-06
2.99367e-06
2.87016e-06
2.76435e-06
2.68374e-06
2.63937e-06
2.65356e-06
2.75321e-06
3.03116e-06
3.46173e-06
2.36836e-05
1.47974e-05
1.11857e-05
9.26649e-06
8.09291e-06
7.25732e-06
6.63267e-06
6.13694e-06
5.73233e-06
5.38321e-06
)
;
    }
    right
    {
        type            calculated;
        value           nonuniform List<scalar> 
30
(
5.77753e-06
5.7759e-06
5.79129e-06
5.83107e-06
5.89067e-06
5.96626e-06
6.05119e-06
6.13939e-06
6.22483e-06
6.30188e-06
6.36528e-06
6.41253e-06
6.44457e-06
6.462e-06
6.46199e-06
6.44574e-06
6.41578e-06
6.3721e-06
6.31725e-06
6.25345e-06
6.18356e-06
6.11061e-06
6.03787e-06
5.96861e-06
5.90621e-06
5.85362e-06
5.81386e-06
5.78807e-06
5.77789e-06
5.77865e-06
)
;
    }
    down
    {
        type            calculated;
        value           nonuniform List<scalar> 
30
(
2.11955e-08
2.85772e-08
2.71743e-07
6.54644e-07
1.09548e-06
1.55616e-06
2.00617e-06
2.43521e-06
2.829e-06
3.19431e-06
3.52328e-06
3.80992e-06
4.07322e-06
4.30998e-06
4.52354e-06
4.71492e-06
4.88647e-06
5.03938e-06
5.17544e-06
5.29569e-06
5.40133e-06
5.4931e-06
5.57165e-06
5.63738e-06
5.69048e-06
5.73124e-06
5.75953e-06
5.77641e-06
5.7818e-06
5.77991e-06
)
;
    }
    up
    {
        type            calculated;
        value           nonuniform List<scalar> 
30
(
2.73727e-06
2.10176e-06
1.88074e-06
1.81267e-06
1.88753e-06
2.03541e-06
2.23853e-06
2.47647e-06
2.73296e-06
3.00151e-06
3.26131e-06
3.5031e-06
3.74236e-06
3.97216e-06
4.19277e-06
4.4008e-06
4.59615e-06
4.77736e-06
4.94438e-06
5.09675e-06
5.23446e-06
5.35741e-06
5.46549e-06
5.55848e-06
5.63592e-06
5.69742e-06
5.74209e-06
5.77033e-06
5.7814e-06
5.78064e-06
)
;
    }
    hole
    {
        type            calculated;
        value           nonuniform List<scalar> 
20
(
1.02926e-05
1.20776e-05
1.38162e-05
1.54288e-05
1.70664e-05
1.86303e-05
1.96824e-05
2.07152e-05
2.21232e-05
2.38027e-05
9.35693e-09
8.98568e-09
2.03087e-07
6.91884e-07
1.45358e-06
2.48195e-06
3.74239e-06
5.20117e-06
6.80909e-06
8.52904e-06
)
;
    }
    frontAndBack
    {
        type            empty;
    }
}


// ************************************************************************* //
