/*--------------------------------*- C++ -*----------------------------------*\
  =========                 |
  \\      /  F ield         | OpenFOAM: The Open Source CFD Toolbox
   \\    /   O peration     | Website:  https://openfoam.org
    \\  /    A nd           | Version:  9
     \\/     M anipulation  |
\*---------------------------------------------------------------------------*/
FoamFile
{
    format      ascii;
    class       pointVectorField;
    location    "15";
    object      pointD;
}
// * * * * * * * * * * * * * * * * * * * * * * * * * * * * * * * * * * * * * //

dimensions      [0 1 0 0 0 0 0];

internalField   nonuniform List<vector> 
2142
(
(1.11331e-05 3.27141e-06 -9.3909e-20)
(1.03209e-05 3.78387e-06 0)
(9.75227e-06 4.14986e-06 0)
(9.33773e-06 4.44792e-06 0)
(9.03907e-06 4.69199e-06 0)
(8.82699e-06 4.9023e-06 0)
(8.6804e-06 5.08722e-06 0)
(8.5845e-06 5.25441e-06 0)
(8.5278e-06 5.40835e-06 0)
(8.50192e-06 5.55217e-06 0)
(8.50633e-06 5.70831e-06 0)
(1.01791e-05 3.00004e-06 -1.00799e-19)
(9.31507e-06 3.40643e-06 0)
(8.71748e-06 3.69068e-06 0)
(8.28436e-06 3.92479e-06 0)
(7.97317e-06 4.11582e-06 0)
(7.75188e-06 4.28123e-06 0)
(7.59755e-06 4.42679e-06 0)
(7.49449e-06 4.55893e-06 0)
(7.43019e-06 4.68066e-06 0)
(7.396e-06 4.79569e-06 0)
(7.24776e-06 4.80117e-06 0)
(9.1879e-06 2.72931e-06 -1.03286e-19)
(8.29291e-06 3.01988e-06 0)
(7.68278e-06 3.21657e-06 0)
(7.24284e-06 3.38395e-06 0)
(6.92797e-06 3.52128e-06 0)
(6.70428e-06 3.64222e-06 0)
(6.54753e-06 3.74952e-06 0)
(6.44133e-06 3.84792e-06 0)
(6.37277e-06 3.93878e-06 0)
(6.33252e-06 4.02562e-06 0)
(6.19964e-06 4.01639e-06 0)
(8.15609e-06 2.46654e-06 -1.06171e-19)
(7.26085e-06 2.63171e-06 0)
(6.6561e-06 2.73847e-06 0)
(6.22201e-06 2.83843e-06 0)
(5.91308e-06 2.92326e-06 0)
(5.69439e-06 3.00171e-06 0)
(5.54109e-06 3.0734e-06 0)
(5.43648e-06 3.14096e-06 0)
(5.36764e-06 3.20406e-06 0)
(5.3251e-06 3.26538e-06 0)
(5.21031e-06 3.24622e-06 0)
(7.0879e-06 2.2192e-06 -1.12321e-19)
(6.22587e-06 2.25076e-06 0)
(5.6433e-06 2.26865e-06 0)
(5.22824e-06 2.30242e-06 0)
(4.93538e-06 2.33761e-06 0)
(4.72954e-06 2.37701e-06 0)
(4.58587e-06 2.41693e-06 0)
(4.48771e-06 2.4575e-06 0)
(4.42259e-06 2.49677e-06 0)
(4.38114e-06 2.53616e-06 0)
(4.28531e-06 2.51149e-06 0)
(6.00257e-06 1.9809e-06 -1.10382e-19)
(5.19049e-06 1.88331e-06 0)
(4.64724e-06 1.81667e-06 0)
(4.26504e-06 1.78899e-06 0)
(3.99919e-06 1.77992e-06 0)
(3.8145e-06 1.7858e-06 0)
(3.68674e-06 1.79939e-06 0)
(3.59977e-06 1.81816e-06 0)
(3.54196e-06 1.83849e-06 0)
(3.50446e-06 1.86044e-06 0)
(3.42754e-06 1.83457e-06 0)
(4.89514e-06 1.73923e-06 -8.85796e-20)
(4.15248e-06 1.52981e-06 0)
(3.66743e-06 1.38806e-06 0)
(3.33354e-06 1.30912e-06 0)
(3.10643e-06 1.26495e-06 0)
(2.95137e-06 1.24558e-06 0)
(2.84554e-06 1.24012e-06 0)
(2.77404e-06 1.24348e-06 0)
(2.7266e-06 1.25065e-06 0)
(2.69534e-06 1.26036e-06 0)
(2.63658e-06 1.23731e-06 0)
(3.76392e-06 1.49062e-06 -5.26462e-20)
(3.1165e-06 1.1878e-06 0)
(2.70606e-06 9.87476e-07 0)
(2.43699e-06 8.73898e-07 0)
(2.25964e-06 8.08287e-07 0)
(2.14165e-06 7.74868e-07 0)
(2.06248e-06 7.59307e-07 0)
(2.00951e-06 7.54559e-07 0)
(1.97442e-06 7.54728e-07 0)
(1.95089e-06 7.57641e-07 0)
(1.909e-06 7.40663e-07 0)
(2.61294e-06 1.23012e-06 -7.96749e-21)
(2.07672e-06 8.49342e-07 0)
(1.76448e-06 6.18909e-07 0)
(1.57694e-06 4.94971e-07 0)
(1.4587e-06 4.27144e-07 0)
(1.38303e-06 3.93202e-07 0)
(1.33314e-06 3.77178e-07 0)
(1.30006e-06 3.71314e-07 0)
(1.27801e-06 3.69928e-07 0)
(1.26279e-06 3.70669e-07 0)
(1.23612e-06 3.61436e-07 0)
(1.52164e-06 9.19317e-07 3.43749e-20)
(1.0368e-06 4.98374e-07 0)
(8.55822e-07 2.95829e-07 0)
(7.63607e-07 1.98264e-07 0)
(7.08713e-07 1.51799e-07 0)
(6.74696e-07 1.30551e-07 0)
(6.5237e-07 1.21785e-07 0)
(6.37484e-07 1.19289e-07 0)
(6.27338e-07 1.19307e-07 0)
(6.19983e-07 1.20258e-07 0)
(6.06848e-07 1.1763e-07 0)
(5.0758e-07 3.71625e-07 2.6072e-20)
(0 0 0)
(0 0 0)
(0 0 0)
(0 0 0)
(0 0 0)
(0 0 0)
(0 0 0)
(0 0 0)
(0 0 0)
(0 0 0)
(1.11331e-05 3.27141e-06 -9.3909e-20)
(1.03209e-05 3.78387e-06 0)
(9.75227e-06 4.14986e-06 0)
(9.33773e-06 4.44792e-06 0)
(9.03907e-06 4.69199e-06 0)
(8.82699e-06 4.9023e-06 0)
(8.6804e-06 5.08722e-06 0)
(8.5845e-06 5.25441e-06 0)
(8.5278e-06 5.40835e-06 0)
(8.50192e-06 5.55217e-06 0)
(8.50633e-06 5.70831e-06 0)
(1.01791e-05 3.00004e-06 -1.00799e-19)
(9.31507e-06 3.40643e-06 0)
(8.71748e-06 3.69068e-06 0)
(8.28436e-06 3.92479e-06 0)
(7.97317e-06 4.11582e-06 0)
(7.75188e-06 4.28123e-06 0)
(7.59755e-06 4.42679e-06 0)
(7.49449e-06 4.55893e-06 0)
(7.43019e-06 4.68066e-06 0)
(7.396e-06 4.79569e-06 0)
(7.24776e-06 4.80117e-06 0)
(9.1879e-06 2.72931e-06 -1.03286e-19)
(8.29291e-06 3.01988e-06 0)
(7.68278e-06 3.21657e-06 0)
(7.24284e-06 3.38395e-06 0)
(6.92797e-06 3.52128e-06 0)
(6.70428e-06 3.64222e-06 0)
(6.54753e-06 3.74952e-06 0)
(6.44133e-06 3.84792e-06 0)
(6.37277e-06 3.93878e-06 0)
(6.33252e-06 4.02562e-06 0)
(6.19964e-06 4.01639e-06 0)
(8.15609e-06 2.46654e-06 -1.06171e-19)
(7.26085e-06 2.63171e-06 0)
(6.6561e-06 2.73847e-06 0)
(6.22201e-06 2.83843e-06 0)
(5.91308e-06 2.92326e-06 0)
(5.69439e-06 3.00171e-06 0)
(5.54109e-06 3.0734e-06 0)
(5.43648e-06 3.14096e-06 0)
(5.36764e-06 3.20406e-06 0)
(5.3251e-06 3.26538e-06 0)
(5.21031e-06 3.24622e-06 0)
(7.0879e-06 2.2192e-06 -1.12321e-19)
(6.22587e-06 2.25076e-06 0)
(5.6433e-06 2.26865e-06 0)
(5.22824e-06 2.30242e-06 0)
(4.93538e-06 2.33761e-06 0)
(4.72954e-06 2.37701e-06 0)
(4.58587e-06 2.41693e-06 0)
(4.48771e-06 2.4575e-06 0)
(4.42259e-06 2.49677e-06 0)
(4.38114e-06 2.53616e-06 0)
(4.28531e-06 2.51149e-06 0)
(6.00257e-06 1.9809e-06 -1.10382e-19)
(5.19049e-06 1.88331e-06 0)
(4.64724e-06 1.81667e-06 0)
(4.26504e-06 1.78899e-06 0)
(3.99919e-06 1.77992e-06 0)
(3.8145e-06 1.7858e-06 0)
(3.68674e-06 1.79939e-06 0)
(3.59977e-06 1.81816e-06 0)
(3.54196e-06 1.83849e-06 0)
(3.50446e-06 1.86044e-06 0)
(3.42754e-06 1.83457e-06 0)
(4.89514e-06 1.73923e-06 -8.85796e-20)
(4.15248e-06 1.52981e-06 0)
(3.66743e-06 1.38806e-06 0)
(3.33354e-06 1.30912e-06 0)
(3.10643e-06 1.26495e-06 0)
(2.95137e-06 1.24558e-06 0)
(2.84554e-06 1.24012e-06 0)
(2.77404e-06 1.24348e-06 0)
(2.7266e-06 1.25065e-06 0)
(2.69534e-06 1.26036e-06 0)
(2.63658e-06 1.23731e-06 0)
(3.76392e-06 1.49062e-06 -5.26462e-20)
(3.1165e-06 1.1878e-06 0)
(2.70606e-06 9.87476e-07 0)
(2.43699e-06 8.73898e-07 0)
(2.25964e-06 8.08287e-07 0)
(2.14165e-06 7.74868e-07 0)
(2.06248e-06 7.59307e-07 0)
(2.00951e-06 7.54559e-07 0)
(1.97442e-06 7.54728e-07 0)
(1.95089e-06 7.57641e-07 0)
(1.909e-06 7.40663e-07 0)
(2.61294e-06 1.23012e-06 -7.96749e-21)
(2.07672e-06 8.49342e-07 0)
(1.76448e-06 6.18909e-07 0)
(1.57694e-06 4.94971e-07 0)
(1.4587e-06 4.27144e-07 0)
(1.38303e-06 3.93202e-07 0)
(1.33314e-06 3.77178e-07 0)
(1.30006e-06 3.71314e-07 0)
(1.27801e-06 3.69928e-07 0)
(1.26279e-06 3.70669e-07 0)
(1.23612e-06 3.61436e-07 0)
(1.52164e-06 9.19317e-07 3.43749e-20)
(1.0368e-06 4.98374e-07 0)
(8.55822e-07 2.95829e-07 0)
(7.63607e-07 1.98264e-07 0)
(7.08713e-07 1.51799e-07 0)
(6.74696e-07 1.30551e-07 0)
(6.5237e-07 1.21785e-07 0)
(6.37484e-07 1.19289e-07 0)
(6.27338e-07 1.19307e-07 0)
(6.19983e-07 1.20258e-07 0)
(6.06848e-07 1.1763e-07 0)
(5.0758e-07 3.71625e-07 2.6072e-20)
(0 0 0)
(0 0 0)
(0 0 0)
(0 0 0)
(0 0 0)
(0 0 0)
(0 0 0)
(0 0 0)
(0 0 0)
(0 0 0)
(1.80567e-05 5.36061e-06 -2.66313e-21)
(1.81855e-05 5.87851e-06 -1.4224e-21)
(1.81698e-05 6.5444e-06 -1.55268e-21)
(1.81592e-05 7.16218e-06 -1.67532e-21)
(1.81701e-05 7.73084e-06 -1.7878e-21)
(1.82084e-05 8.25616e-06 -1.89193e-21)
(1.82764e-05 8.74495e-06 -1.98948e-21)
(1.83738e-05 9.2041e-06 -2.08211e-21)
(1.84994e-05 9.63936e-06 -2.10852e-21)
(1.86504e-05 1.00562e-05 -1.56473e-21)
(1.88255e-05 1.04567e-05 -5.14467e-22)
(1.76555e-05 5.15984e-06 -4.03216e-21)
(1.76004e-05 5.85511e-06 0)
(1.75545e-05 6.51675e-06 0)
(1.753e-05 7.1254e-06 0)
(1.75331e-05 7.68131e-06 0)
(1.75658e-05 8.1913e-06 0)
(1.76279e-05 8.66288e-06 0)
(1.77179e-05 9.10357e-06 0)
(1.7834e-05 9.51952e-06 0)
(1.79736e-05 9.91658e-06 0)
(1.81452e-05 1.02995e-05 0)
(1.71092e-05 5.07471e-06 -4.1645e-21)
(1.69945e-05 5.78527e-06 0)
(1.69013e-05 6.44077e-06 0)
(1.68417e-05 7.03666e-06 0)
(1.68178e-05 7.57629e-06 0)
(1.6829e-05 8.06815e-06 0)
(1.68725e-05 8.52043e-06 0)
(1.69454e-05 8.94108e-06 0)
(1.70448e-05 9.33649e-06 0)
(1.71671e-05 9.71288e-06 0)
(1.73341e-05 1.00791e-05 0)
(1.65303e-05 4.93709e-06 -4.93019e-21)
(1.63435e-05 5.67085e-06 0)
(1.6194e-05 6.31789e-06 0)
(1.60896e-05 6.89631e-06 0)
(1.60299e-05 7.41444e-06 0)
(1.60116e-05 7.88353e-06 0)
(1.60298e-05 8.31266e-06 0)
(1.60798e-05 8.71018e-06 0)
(1.61579e-05 9.08265e-06 0)
(1.62592e-05 9.43644e-06 0)
(1.64214e-05 9.7863e-06 0)
(1.59084e-05 4.75964e-06 -7.69691e-21)
(1.56373e-05 5.51351e-06 0)
(1.54254e-05 6.14837e-06 0)
(1.52712e-05 6.70502e-06 0)
(1.51713e-05 7.19709e-06 0)
(1.51194e-05 7.63909e-06 0)
(1.51088e-05 8.04119e-06 0)
(1.51331e-05 8.41223e-06 0)
(1.51875e-05 8.7589e-06 0)
(1.5266e-05 9.08756e-06 0)
(1.54238e-05 9.42113e-06 0)
(1.52378e-05 4.5509e-06 -1.38076e-20)
(1.48727e-05 5.31398e-06 0)
(1.45944e-05 5.93025e-06 0)
(1.43887e-05 6.45988e-06 0)
(1.42476e-05 6.92115e-06 0)
(1.41615e-05 7.3319e-06 0)
(1.41214e-05 7.70333e-06 0)
(1.41195e-05 8.0447e-06 0)
(1.41498e-05 8.36283e-06 0)
(1.42055e-05 8.66395e-06 0)
(1.43602e-05 8.98141e-06 0)
(1.45161e-05 4.31863e-06 -2.41542e-20)
(1.40514e-05 5.07416e-06 0)
(1.37055e-05 5.66298e-06 0)
(1.34488e-05 6.15964e-06 0)
(1.32676e-05 6.58566e-06 0)
(1.31486e-05 6.96156e-06 0)
(1.30804e-05 7.29926e-06 0)
(1.30535e-05 7.60832e-06 0)
(1.30609e-05 7.8956e-06 0)
(1.30949e-05 8.16706e-06 0)
(1.32481e-05 8.46877e-06 0)
(1.37431e-05 4.0691e-06 -3.88967e-20)
(1.31783e-05 4.79664e-06 0)
(1.27664e-05 5.34723e-06 0)
(1.24613e-05 5.80427e-06 0)
(1.22431e-05 6.19063e-06 0)
(1.2094e-05 6.52851e-06 0)
(1.20002e-05 6.83001e-06 0)
(1.19507e-05 7.10473e-06 0)
(1.19374e-05 7.35941e-06 0)
(1.19518e-05 7.59957e-06 0)
(1.21053e-05 7.8861e-06 0)
(1.29199e-05 3.80816e-06 -5.73506e-20)
(1.22602e-05 4.48544e-06 0)
(1.17872e-05 4.98604e-06 0)
(1.14384e-05 5.39657e-06 0)
(1.11874e-05 5.73908e-06 0)
(1.10122e-05 6.03628e-06 0)
(1.08963e-05 6.29977e-06 0)
(1.08274e-05 6.53883e-06 0)
(1.07962e-05 6.75978e-06 0)
(1.07939e-05 6.96759e-06 0)
(1.09492e-05 7.23929e-06 0)
(1.20488e-05 3.54088e-06 -7.80743e-20)
(1.1305e-05 4.14564e-06 0)
(1.07788e-05 4.58447e-06 0)
(1.03929e-05 4.94178e-06 0)
(1.01147e-05 5.23665e-06 0)
(9.91817e-06 5.4911e-06 0)
(9.78448e-06 5.71546e-06 0)
(9.69988e-06 5.91832e-06 0)
(9.65413e-06 6.10528e-06 0)
(9.63834e-06 6.28e-06 0)
(9.79634e-06 6.53675e-06 0)
(1.80567e-05 5.36061e-06 -2.66313e-21)
(1.81855e-05 5.87851e-06 -1.4224e-21)
(1.81698e-05 6.5444e-06 -1.55268e-21)
(1.81592e-05 7.16218e-06 -1.67532e-21)
(1.81701e-05 7.73084e-06 -1.7878e-21)
(1.82084e-05 8.25616e-06 -1.89193e-21)
(1.82764e-05 8.74495e-06 -1.98948e-21)
(1.83738e-05 9.2041e-06 -2.08211e-21)
(1.84994e-05 9.63936e-06 -2.10852e-21)
(1.86504e-05 1.00562e-05 -1.56473e-21)
(1.88255e-05 1.04567e-05 -5.14467e-22)
(1.76555e-05 5.15984e-06 -4.03216e-21)
(1.76004e-05 5.85511e-06 0)
(1.75545e-05 6.51675e-06 0)
(1.753e-05 7.1254e-06 0)
(1.75331e-05 7.68131e-06 0)
(1.75658e-05 8.1913e-06 0)
(1.76279e-05 8.66288e-06 0)
(1.77179e-05 9.10357e-06 0)
(1.7834e-05 9.51952e-06 0)
(1.79736e-05 9.91658e-06 0)
(1.81452e-05 1.02995e-05 0)
(1.71092e-05 5.07471e-06 -4.1645e-21)
(1.69945e-05 5.78527e-06 0)
(1.69013e-05 6.44077e-06 0)
(1.68417e-05 7.03666e-06 0)
(1.68178e-05 7.57629e-06 0)
(1.6829e-05 8.06815e-06 0)
(1.68725e-05 8.52043e-06 0)
(1.69454e-05 8.94108e-06 0)
(1.70448e-05 9.33649e-06 0)
(1.71671e-05 9.71288e-06 0)
(1.73341e-05 1.00791e-05 0)
(1.65303e-05 4.93709e-06 -4.93019e-21)
(1.63435e-05 5.67085e-06 0)
(1.6194e-05 6.31789e-06 0)
(1.60896e-05 6.89631e-06 0)
(1.60299e-05 7.41444e-06 0)
(1.60116e-05 7.88353e-06 0)
(1.60298e-05 8.31266e-06 0)
(1.60798e-05 8.71018e-06 0)
(1.61579e-05 9.08265e-06 0)
(1.62592e-05 9.43644e-06 0)
(1.64214e-05 9.7863e-06 0)
(1.59084e-05 4.75964e-06 -7.69691e-21)
(1.56373e-05 5.51351e-06 0)
(1.54254e-05 6.14837e-06 0)
(1.52712e-05 6.70502e-06 0)
(1.51713e-05 7.19709e-06 0)
(1.51194e-05 7.63909e-06 0)
(1.51088e-05 8.04119e-06 0)
(1.51331e-05 8.41223e-06 0)
(1.51875e-05 8.7589e-06 0)
(1.5266e-05 9.08756e-06 0)
(1.54238e-05 9.42113e-06 0)
(1.52378e-05 4.5509e-06 -1.38076e-20)
(1.48727e-05 5.31398e-06 0)
(1.45944e-05 5.93025e-06 0)
(1.43887e-05 6.45988e-06 0)
(1.42476e-05 6.92115e-06 0)
(1.41615e-05 7.3319e-06 0)
(1.41214e-05 7.70333e-06 0)
(1.41195e-05 8.0447e-06 0)
(1.41498e-05 8.36283e-06 0)
(1.42055e-05 8.66395e-06 0)
(1.43602e-05 8.98141e-06 0)
(1.45161e-05 4.31863e-06 -2.41542e-20)
(1.40514e-05 5.07416e-06 0)
(1.37055e-05 5.66298e-06 0)
(1.34488e-05 6.15964e-06 0)
(1.32676e-05 6.58566e-06 0)
(1.31486e-05 6.96156e-06 0)
(1.30804e-05 7.29926e-06 0)
(1.30535e-05 7.60832e-06 0)
(1.30609e-05 7.8956e-06 0)
(1.30949e-05 8.16706e-06 0)
(1.32481e-05 8.46877e-06 0)
(1.37431e-05 4.0691e-06 -3.88967e-20)
(1.31783e-05 4.79664e-06 0)
(1.27664e-05 5.34723e-06 0)
(1.24613e-05 5.80427e-06 0)
(1.22431e-05 6.19063e-06 0)
(1.2094e-05 6.52851e-06 0)
(1.20002e-05 6.83001e-06 0)
(1.19507e-05 7.10473e-06 0)
(1.19374e-05 7.35941e-06 0)
(1.19518e-05 7.59957e-06 0)
(1.21053e-05 7.8861e-06 0)
(1.29199e-05 3.80816e-06 -5.73506e-20)
(1.22602e-05 4.48544e-06 0)
(1.17872e-05 4.98604e-06 0)
(1.14384e-05 5.39657e-06 0)
(1.11874e-05 5.73908e-06 0)
(1.10122e-05 6.03628e-06 0)
(1.08963e-05 6.29977e-06 0)
(1.08274e-05 6.53883e-06 0)
(1.07962e-05 6.75978e-06 0)
(1.07939e-05 6.96759e-06 0)
(1.09492e-05 7.23929e-06 0)
(1.20488e-05 3.54088e-06 -7.80743e-20)
(1.1305e-05 4.14564e-06 0)
(1.07788e-05 4.58447e-06 0)
(1.03929e-05 4.94178e-06 0)
(1.01147e-05 5.23665e-06 0)
(9.91817e-06 5.4911e-06 0)
(9.78448e-06 5.71546e-06 0)
(9.69988e-06 5.91832e-06 0)
(9.65413e-06 6.10528e-06 0)
(9.63834e-06 6.28e-06 0)
(9.79634e-06 6.53675e-06 0)
(1.90245e-05 1.08459e-05 4.77704e-22)
(1.9244e-05 1.12291e-05 1.36925e-21)
(1.94806e-05 1.16065e-05 2.17185e-21)
(1.97326e-05 1.19799e-05 2.88695e-21)
(1.99985e-05 1.2351e-05 3.52255e-21)
(2.02767e-05 1.2721e-05 4.08497e-21)
(2.05658e-05 1.30908e-05 4.58083e-21)
(2.08646e-05 1.34614e-05 5.0157e-21)
(2.1172e-05 1.38335e-05 5.39479e-21)
(2.14871e-05 1.42077e-05 5.72229e-21)
(2.18088e-05 1.45846e-05 6.00199e-21)
(2.21362e-05 1.49647e-05 6.23666e-21)
(2.24685e-05 1.53482e-05 6.42849e-21)
(2.28049e-05 1.57355e-05 6.57899e-21)
(2.31445e-05 1.61267e-05 6.68944e-21)
(2.34865e-05 1.65219e-05 6.76068e-21)
(2.38299e-05 1.69209e-05 6.7945e-21)
(2.41738e-05 1.73231e-05 6.7934e-21)
(2.45169e-05 1.77277e-05 6.76173e-21)
(2.46303e-05 1.79798e-05 -1.59453e-21)
(1.83575e-05 1.0677e-05 0)
(1.85957e-05 1.1052e-05 0)
(1.88477e-05 1.14221e-05 0)
(1.91122e-05 1.17891e-05 0)
(1.93881e-05 1.21547e-05 0)
(1.96742e-05 1.25198e-05 0)
(1.99696e-05 1.28856e-05 0)
(2.02732e-05 1.32528e-05 0)
(2.05842e-05 1.36222e-05 0)
(2.09018e-05 1.39943e-05 0)
(2.12252e-05 1.43696e-05 0)
(2.15538e-05 1.47487e-05 0)
(2.18867e-05 1.51317e-05 0)
(2.22235e-05 1.5519e-05 0)
(2.25633e-05 1.59107e-05 0)
(2.29056e-05 1.63068e-05 0)
(2.32498e-05 1.67072e-05 0)
(2.35952e-05 1.71114e-05 0)
(2.39411e-05 1.75184e-05 0)
(2.42857e-05 1.79261e-05 -9.99923e-21)
(1.75668e-05 1.04489e-05 0)
(1.78338e-05 1.08212e-05 0)
(1.81108e-05 1.11888e-05 0)
(1.83969e-05 1.15538e-05 0)
(1.86913e-05 1.19178e-05 0)
(1.89933e-05 1.22818e-05 0)
(1.93024e-05 1.26469e-05 0)
(1.96179e-05 1.30138e-05 0)
(1.99391e-05 1.33834e-05 0)
(2.02657e-05 1.37562e-05 0)
(2.05969e-05 1.41326e-05 0)
(2.09324e-05 1.45131e-05 0)
(2.12717e-05 1.4898e-05 0)
(2.16143e-05 1.52875e-05 0)
(2.19597e-05 1.5682e-05 0)
(2.23076e-05 1.60813e-05 0)
(2.26574e-05 1.64855e-05 0)
(2.30087e-05 1.6894e-05 0)
(2.33608e-05 1.73064e-05 0)
(2.37101e-05 1.77204e-05 -1.00822e-20)
(1.66795e-05 1.0153e-05 0)
(1.69825e-05 1.05288e-05 0)
(1.72915e-05 1.08998e-05 0)
(1.76057e-05 1.1268e-05 0)
(1.7925e-05 1.16352e-05 0)
(1.82491e-05 1.20024e-05 0)
(1.85776e-05 1.23708e-05 0)
(1.89104e-05 1.27412e-05 0)
(1.92471e-05 1.31143e-05 0)
(1.95874e-05 1.34908e-05 0)
(1.99312e-05 1.38711e-05 0)
(2.02781e-05 1.42558e-05 0)
(2.0628e-05 1.46451e-05 0)
(2.09804e-05 1.50393e-05 0)
(2.13353e-05 1.54388e-05 0)
(2.16923e-05 1.58437e-05 0)
(2.2051e-05 1.62539e-05 0)
(2.24111e-05 1.66695e-05 0)
(2.2772e-05 1.70901e-05 0)
(2.31287e-05 1.75142e-05 -1.02078e-20)
(1.57116e-05 9.78903e-06 0)
(1.60563e-05 1.01741e-05 0)
(1.64029e-05 1.05539e-05 0)
(1.67506e-05 1.09304e-05 0)
(1.71001e-05 1.13055e-05 0)
(1.74511e-05 1.16802e-05 0)
(1.78039e-05 1.20558e-05 0)
(1.81585e-05 1.24333e-05 0)
(1.85149e-05 1.28133e-05 0)
(1.88732e-05 1.31966e-05 0)
(1.92334e-05 1.35838e-05 0)
(1.95954e-05 1.39753e-05 0)
(1.99592e-05 1.43716e-05 0)
(2.03247e-05 1.47731e-05 0)
(2.0692e-05 1.518e-05 0)
(2.10608e-05 1.55927e-05 0)
(2.1431e-05 1.60114e-05 0)
(2.18023e-05 1.64364e-05 0)
(2.21742e-05 1.68678e-05 0)
(2.25406e-05 1.73046e-05 -1.03729e-20)
(1.4681e-05 9.35494e-06 0)
(1.50717e-05 9.75524e-06 0)
(1.54601e-05 1.01497e-05 0)
(1.58454e-05 1.05396e-05 0)
(1.62289e-05 1.09274e-05 0)
(1.66107e-05 1.13141e-05 0)
(1.69915e-05 1.17011e-05 0)
(1.73714e-05 1.20893e-05 0)
(1.77509e-05 1.24798e-05 0)
(1.81303e-05 1.28732e-05 0)
(1.85097e-05 1.32702e-05 0)
(1.88896e-05 1.36714e-05 0)
(1.927e-05 1.40773e-05 0)
(1.96511e-05 1.44884e-05 0)
(2.0033e-05 1.49051e-05 0)
(2.04157e-05 1.53279e-05 0)
(2.07993e-05 1.57572e-05 0)
(2.11836e-05 1.61937e-05 0)
(2.15682e-05 1.66378e-05 0)
(2.19466e-05 1.70892e-05 -1.05779e-20)
(1.36043e-05 8.8523e-06 0)
(1.40437e-05 9.27361e-06 0)
(1.44768e-05 9.68815e-06 0)
(1.49026e-05 1.00966e-05 0)
(1.53231e-05 1.05017e-05 0)
(1.57385e-05 1.09046e-05 0)
(1.61499e-05 1.13069e-05 0)
(1.65578e-05 1.17097e-05 0)
(1.69629e-05 1.2114e-05 0)
(1.73657e-05 1.25207e-05 0)
(1.77668e-05 1.29306e-05 0)
(1.81666e-05 1.33443e-05 0)
(1.85655e-05 1.37624e-05 0)
(1.89639e-05 1.41856e-05 0)
(1.93621e-05 1.46143e-05 0)
(1.97603e-05 1.50493e-05 0)
(2.01587e-05 1.54911e-05 0)
(2.05574e-05 1.59408e-05 0)
(2.09561e-05 1.63992e-05 0)
(2.13484e-05 1.68663e-05 -1.08243e-20)
(1.24978e-05 8.28392e-06 0)
(1.29872e-05 8.73159e-06 0)
(1.34666e-05 9.17132e-06 0)
(1.39345e-05 9.60305e-06 0)
(1.43938e-05 1.003e-05 0)
(1.48446e-05 1.04534e-05 0)
(1.52885e-05 1.08749e-05 0)
(1.57262e-05 1.12958e-05 0)
(1.61587e-05 1.17174e-05 0)
(1.65867e-05 1.21405e-05 0)
(1.70111e-05 1.25661e-05 0)
(1.74323e-05 1.2995e-05 0)
(1.78512e-05 1.34279e-05 0)
(1.82682e-05 1.38655e-05 0)
(1.86839e-05 1.43084e-05 0)
(1.90986e-05 1.47575e-05 0)
(1.95127e-05 1.52135e-05 0)
(1.99266e-05 1.56778e-05 0)
(2.03404e-05 1.61514e-05 0)
(2.07482e-05 1.6635e-05 -1.11141e-20)
(1.13779e-05 7.65512e-06 0)
(1.19168e-05 8.13394e-06 0)
(1.24427e-05 8.60324e-06 0)
(1.29532e-05 9.06258e-06 0)
(1.34519e-05 9.51524e-06 0)
(1.39391e-05 9.96276e-06 0)
(1.44165e-05 1.0407e-05 0)
(1.48851e-05 1.08494e-05 0)
(1.53461e-05 1.12913e-05 0)
(1.58003e-05 1.17339e-05 0)
(1.62489e-05 1.21781e-05 0)
(1.66927e-05 1.26249e-05 0)
(1.71323e-05 1.3075e-05 0)
(1.75688e-05 1.35292e-05 0)
(1.80026e-05 1.39884e-05 0)
(1.84344e-05 1.44533e-05 0)
(1.88649e-05 1.49251e-05 0)
(1.92946e-05 1.54051e-05 0)
(1.9724e-05 1.58946e-05 0)
(2.01487e-05 1.63948e-05 -1.14493e-20)
(1.02592e-05 6.97349e-06 0)
(1.0845e-05 7.4869e-06 0)
(1.14155e-05 7.98888e-06 0)
(1.19684e-05 8.47964e-06 0)
(1.25064e-05 8.96159e-06 0)
(1.30304e-05 9.43672e-06 0)
(1.35418e-05 9.9069e-06 0)
(1.40419e-05 1.03738e-05 0)
(1.45319e-05 1.0839e-05 0)
(1.50131e-05 1.13037e-05 0)
(1.54865e-05 1.1769e-05 0)
(1.59532e-05 1.2236e-05 0)
(1.64142e-05 1.27055e-05 0)
(1.68704e-05 1.31785e-05 0)
(1.73227e-05 1.36557e-05 0)
(1.7772e-05 1.41382e-05 0)
(1.82191e-05 1.4627e-05 0)
(1.86647e-05 1.51235e-05 0)
(1.91099e-05 1.56292e-05 0)
(1.95524e-05 1.61461e-05 -1.18319e-20)
(9.26575e-06 6.35323e-06 0)
(9.88667e-06 6.89644e-06 0)
(1.04906e-05 7.42509e-06 0)
(1.10762e-05 7.94244e-06 0)
(1.16453e-05 8.44987e-06 0)
(1.21987e-05 8.94945e-06 0)
(1.27377e-05 9.44295e-06 0)
(1.32636e-05 9.93205e-06 0)
(1.37776e-05 1.04183e-05 0)
(1.42809e-05 1.0903e-05 0)
(1.47748e-05 1.13874e-05 0)
(1.52603e-05 1.18725e-05 0)
(1.57387e-05 1.23593e-05 0)
(1.6211e-05 1.28486e-05 0)
(1.66781e-05 1.33412e-05 0)
(1.71413e-05 1.38383e-05 0)
(1.76014e-05 1.43407e-05 0)
(1.80596e-05 1.48498e-05 0)
(1.85171e-05 1.53671e-05 0)
(1.89741e-05 1.58952e-05 -1.21394e-20)
(1.90245e-05 1.08459e-05 4.77704e-22)
(1.9244e-05 1.12291e-05 1.36925e-21)
(1.94806e-05 1.16065e-05 2.17185e-21)
(1.97326e-05 1.19799e-05 2.88695e-21)
(1.99985e-05 1.2351e-05 3.52255e-21)
(2.02767e-05 1.2721e-05 4.08497e-21)
(2.05658e-05 1.30908e-05 4.58083e-21)
(2.08646e-05 1.34614e-05 5.0157e-21)
(2.1172e-05 1.38335e-05 5.39479e-21)
(2.14871e-05 1.42077e-05 5.72229e-21)
(2.18088e-05 1.45846e-05 6.00199e-21)
(2.21362e-05 1.49647e-05 6.23666e-21)
(2.24685e-05 1.53482e-05 6.42849e-21)
(2.28049e-05 1.57355e-05 6.57899e-21)
(2.31445e-05 1.61267e-05 6.68944e-21)
(2.34865e-05 1.65219e-05 6.76068e-21)
(2.38299e-05 1.69209e-05 6.7945e-21)
(2.41738e-05 1.73231e-05 6.7934e-21)
(2.45169e-05 1.77277e-05 6.76173e-21)
(2.46303e-05 1.79798e-05 -1.59453e-21)
(1.83575e-05 1.0677e-05 0)
(1.85957e-05 1.1052e-05 0)
(1.88477e-05 1.14221e-05 0)
(1.91122e-05 1.17891e-05 0)
(1.93881e-05 1.21547e-05 0)
(1.96742e-05 1.25198e-05 0)
(1.99696e-05 1.28856e-05 0)
(2.02732e-05 1.32528e-05 0)
(2.05842e-05 1.36222e-05 0)
(2.09018e-05 1.39943e-05 0)
(2.12252e-05 1.43696e-05 0)
(2.15538e-05 1.47487e-05 0)
(2.18867e-05 1.51317e-05 0)
(2.22235e-05 1.5519e-05 0)
(2.25633e-05 1.59107e-05 0)
(2.29056e-05 1.63068e-05 0)
(2.32498e-05 1.67072e-05 0)
(2.35952e-05 1.71114e-05 0)
(2.39411e-05 1.75184e-05 0)
(2.42857e-05 1.79261e-05 -9.99923e-21)
(1.75668e-05 1.04489e-05 0)
(1.78338e-05 1.08212e-05 0)
(1.81108e-05 1.11888e-05 0)
(1.83969e-05 1.15538e-05 0)
(1.86913e-05 1.19178e-05 0)
(1.89933e-05 1.22818e-05 0)
(1.93024e-05 1.26469e-05 0)
(1.96179e-05 1.30138e-05 0)
(1.99391e-05 1.33834e-05 0)
(2.02657e-05 1.37562e-05 0)
(2.05969e-05 1.41326e-05 0)
(2.09324e-05 1.45131e-05 0)
(2.12717e-05 1.4898e-05 0)
(2.16143e-05 1.52875e-05 0)
(2.19597e-05 1.5682e-05 0)
(2.23076e-05 1.60813e-05 0)
(2.26574e-05 1.64855e-05 0)
(2.30087e-05 1.6894e-05 0)
(2.33608e-05 1.73064e-05 0)
(2.37101e-05 1.77204e-05 -1.00822e-20)
(1.66795e-05 1.0153e-05 0)
(1.69825e-05 1.05288e-05 0)
(1.72915e-05 1.08998e-05 0)
(1.76057e-05 1.1268e-05 0)
(1.7925e-05 1.16352e-05 0)
(1.82491e-05 1.20024e-05 0)
(1.85776e-05 1.23708e-05 0)
(1.89104e-05 1.27412e-05 0)
(1.92471e-05 1.31143e-05 0)
(1.95874e-05 1.34908e-05 0)
(1.99312e-05 1.38711e-05 0)
(2.02781e-05 1.42558e-05 0)
(2.0628e-05 1.46451e-05 0)
(2.09804e-05 1.50393e-05 0)
(2.13353e-05 1.54388e-05 0)
(2.16923e-05 1.58437e-05 0)
(2.2051e-05 1.62539e-05 0)
(2.24111e-05 1.66695e-05 0)
(2.2772e-05 1.70901e-05 0)
(2.31287e-05 1.75142e-05 -1.02078e-20)
(1.57116e-05 9.78903e-06 0)
(1.60563e-05 1.01741e-05 0)
(1.64029e-05 1.05539e-05 0)
(1.67506e-05 1.09304e-05 0)
(1.71001e-05 1.13055e-05 0)
(1.74511e-05 1.16802e-05 0)
(1.78039e-05 1.20558e-05 0)
(1.81585e-05 1.24333e-05 0)
(1.85149e-05 1.28133e-05 0)
(1.88732e-05 1.31966e-05 0)
(1.92334e-05 1.35838e-05 0)
(1.95954e-05 1.39753e-05 0)
(1.99592e-05 1.43716e-05 0)
(2.03247e-05 1.47731e-05 0)
(2.0692e-05 1.518e-05 0)
(2.10608e-05 1.55927e-05 0)
(2.1431e-05 1.60114e-05 0)
(2.18023e-05 1.64364e-05 0)
(2.21742e-05 1.68678e-05 0)
(2.25406e-05 1.73046e-05 -1.03729e-20)
(1.4681e-05 9.35494e-06 0)
(1.50717e-05 9.75524e-06 0)
(1.54601e-05 1.01497e-05 0)
(1.58454e-05 1.05396e-05 0)
(1.62289e-05 1.09274e-05 0)
(1.66107e-05 1.13141e-05 0)
(1.69915e-05 1.17011e-05 0)
(1.73714e-05 1.20893e-05 0)
(1.77509e-05 1.24798e-05 0)
(1.81303e-05 1.28732e-05 0)
(1.85097e-05 1.32702e-05 0)
(1.88896e-05 1.36714e-05 0)
(1.927e-05 1.40773e-05 0)
(1.96511e-05 1.44884e-05 0)
(2.0033e-05 1.49051e-05 0)
(2.04157e-05 1.53279e-05 0)
(2.07993e-05 1.57572e-05 0)
(2.11836e-05 1.61937e-05 0)
(2.15682e-05 1.66378e-05 0)
(2.19466e-05 1.70892e-05 -1.05779e-20)
(1.36043e-05 8.8523e-06 0)
(1.40437e-05 9.27361e-06 0)
(1.44768e-05 9.68815e-06 0)
(1.49026e-05 1.00966e-05 0)
(1.53231e-05 1.05017e-05 0)
(1.57385e-05 1.09046e-05 0)
(1.61499e-05 1.13069e-05 0)
(1.65578e-05 1.17097e-05 0)
(1.69629e-05 1.2114e-05 0)
(1.73657e-05 1.25207e-05 0)
(1.77668e-05 1.29306e-05 0)
(1.81666e-05 1.33443e-05 0)
(1.85655e-05 1.37624e-05 0)
(1.89639e-05 1.41856e-05 0)
(1.93621e-05 1.46143e-05 0)
(1.97603e-05 1.50493e-05 0)
(2.01587e-05 1.54911e-05 0)
(2.05574e-05 1.59408e-05 0)
(2.09561e-05 1.63992e-05 0)
(2.13484e-05 1.68663e-05 -1.08243e-20)
(1.24978e-05 8.28392e-06 0)
(1.29872e-05 8.73159e-06 0)
(1.34666e-05 9.17132e-06 0)
(1.39345e-05 9.60305e-06 0)
(1.43938e-05 1.003e-05 0)
(1.48446e-05 1.04534e-05 0)
(1.52885e-05 1.08749e-05 0)
(1.57262e-05 1.12958e-05 0)
(1.61587e-05 1.17174e-05 0)
(1.65867e-05 1.21405e-05 0)
(1.70111e-05 1.25661e-05 0)
(1.74323e-05 1.2995e-05 0)
(1.78512e-05 1.34279e-05 0)
(1.82682e-05 1.38655e-05 0)
(1.86839e-05 1.43084e-05 0)
(1.90986e-05 1.47575e-05 0)
(1.95127e-05 1.52135e-05 0)
(1.99266e-05 1.56778e-05 0)
(2.03404e-05 1.61514e-05 0)
(2.07482e-05 1.6635e-05 -1.11141e-20)
(1.13779e-05 7.65512e-06 0)
(1.19168e-05 8.13394e-06 0)
(1.24427e-05 8.60324e-06 0)
(1.29532e-05 9.06258e-06 0)
(1.34519e-05 9.51524e-06 0)
(1.39391e-05 9.96276e-06 0)
(1.44165e-05 1.0407e-05 0)
(1.48851e-05 1.08494e-05 0)
(1.53461e-05 1.12913e-05 0)
(1.58003e-05 1.17339e-05 0)
(1.62489e-05 1.21781e-05 0)
(1.66927e-05 1.26249e-05 0)
(1.71323e-05 1.3075e-05 0)
(1.75688e-05 1.35292e-05 0)
(1.80026e-05 1.39884e-05 0)
(1.84344e-05 1.44533e-05 0)
(1.88649e-05 1.49251e-05 0)
(1.92946e-05 1.54051e-05 0)
(1.9724e-05 1.58946e-05 0)
(2.01487e-05 1.63948e-05 -1.14493e-20)
(1.02592e-05 6.97349e-06 0)
(1.0845e-05 7.4869e-06 0)
(1.14155e-05 7.98888e-06 0)
(1.19684e-05 8.47964e-06 0)
(1.25064e-05 8.96159e-06 0)
(1.30304e-05 9.43672e-06 0)
(1.35418e-05 9.9069e-06 0)
(1.40419e-05 1.03738e-05 0)
(1.45319e-05 1.0839e-05 0)
(1.50131e-05 1.13037e-05 0)
(1.54865e-05 1.1769e-05 0)
(1.59532e-05 1.2236e-05 0)
(1.64142e-05 1.27055e-05 0)
(1.68704e-05 1.31785e-05 0)
(1.73227e-05 1.36557e-05 0)
(1.7772e-05 1.41382e-05 0)
(1.82191e-05 1.4627e-05 0)
(1.86647e-05 1.51235e-05 0)
(1.91099e-05 1.56292e-05 0)
(1.95524e-05 1.61461e-05 -1.18319e-20)
(9.26575e-06 6.35323e-06 0)
(9.88667e-06 6.89644e-06 0)
(1.04906e-05 7.42509e-06 0)
(1.10762e-05 7.94244e-06 0)
(1.16453e-05 8.44987e-06 0)
(1.21987e-05 8.94945e-06 0)
(1.27377e-05 9.44295e-06 0)
(1.32636e-05 9.93205e-06 0)
(1.37776e-05 1.04183e-05 0)
(1.42809e-05 1.0903e-05 0)
(1.47748e-05 1.13874e-05 0)
(1.52603e-05 1.18725e-05 0)
(1.57387e-05 1.23593e-05 0)
(1.6211e-05 1.28486e-05 0)
(1.66781e-05 1.33412e-05 0)
(1.71413e-05 1.38383e-05 0)
(1.76014e-05 1.43407e-05 0)
(1.80596e-05 1.48498e-05 0)
(1.85171e-05 1.53671e-05 0)
(1.89741e-05 1.58952e-05 -1.21394e-20)
(7.79418e-06 5.31729e-06 0)
(8.54213e-06 5.92766e-06 0)
(9.17514e-06 6.48347e-06 0)
(9.79088e-06 7.02418e-06 0)
(1.03891e-05 7.55455e-06 0)
(1.0971e-05 8.07548e-06 0)
(1.1537e-05 8.5887e-06 0)
(1.20884e-05 9.09572e-06 0)
(1.26261e-05 9.598e-06 0)
(1.31513e-05 1.00969e-05 0)
(1.36651e-05 1.05936e-05 0)
(1.41686e-05 1.10891e-05 0)
(1.46631e-05 1.15846e-05 0)
(1.51496e-05 1.20808e-05 0)
(1.56292e-05 1.25785e-05 0)
(1.6103e-05 1.30786e-05 0)
(1.65722e-05 1.35818e-05 0)
(1.70378e-05 1.40892e-05 0)
(1.75012e-05 1.46018e-05 0)
(1.79639e-05 1.51207e-05 0)
(1.8427e-05 1.56487e-05 -1.22204e-20)
(7.26368e-06 5.00571e-06 0)
(7.98699e-06 5.60831e-06 0)
(8.61561e-06 6.16523e-06 0)
(9.22916e-06 6.70989e-06 0)
(9.82692e-06 7.24588e-06 0)
(1.04096e-05 7.77367e-06 0)
(1.09774e-05 8.29448e-06 0)
(1.15312e-05 8.80945e-06 0)
(1.20717e-05 9.31973e-06 0)
(1.25999e-05 9.8264e-06 0)
(1.31167e-05 1.03305e-05 0)
(1.36232e-05 1.08328e-05 0)
(1.41204e-05 1.13343e-05 0)
(1.46094e-05 1.18357e-05 0)
(1.50912e-05 1.23377e-05 0)
(1.5567e-05 1.28409e-05 0)
(1.60377e-05 1.3346e-05 0)
(1.65049e-05 1.38537e-05 0)
(1.69695e-05 1.4365e-05 0)
(1.74334e-05 1.48806e-05 0)
(1.78979e-05 1.54024e-05 -1.21822e-20)
(6.79278e-06 4.70562e-06 0)
(7.4893e-06 5.30006e-06 0)
(8.10689e-06 5.85572e-06 0)
(8.71266e-06 6.40212e-06 0)
(9.30475e-06 6.94194e-06 0)
(9.88363e-06 7.47507e-06 0)
(1.04491e-05 8.00224e-06 0)
(1.10016e-05 8.52419e-06 0)
(1.15416e-05 9.04172e-06 0)
(1.20699e-05 9.55562e-06 0)
(1.25873e-05 1.00667e-05 0)
(1.30945e-05 1.05755e-05 0)
(1.35927e-05 1.10829e-05 0)
(1.40826e-05 1.15894e-05 0)
(1.45654e-05 1.20955e-05 0)
(1.5042e-05 1.26017e-05 0)
(1.55136e-05 1.31086e-05 0)
(1.59814e-05 1.36166e-05 0)
(1.64468e-05 1.41263e-05 0)
(1.69115e-05 1.46381e-05 0)
(1.73769e-05 1.5153e-05 -1.21594e-20)
(6.37283e-06 4.41948e-06 0)
(7.04091e-06 5.00377e-06 0)
(7.6436e-06 5.55606e-06 0)
(8.23745e-06 6.1024e-06 0)
(8.81993e-06 6.64446e-06 0)
(9.39127e-06 7.18157e-06 0)
(9.9508e-06 7.71393e-06 0)
(1.04988e-05 8.24188e-06 0)
(1.10355e-05 8.76584e-06 0)
(1.15613e-05 9.2863e-06 0)
(1.20769e-05 9.80376e-06 0)
(1.2583e-05 1.03187e-05 0)
(1.30803e-05 1.08316e-05 0)
(1.35698e-05 1.13429e-05 0)
(1.40522e-05 1.1853e-05 0)
(1.45287e-05 1.23621e-05 0)
(1.50003e-05 1.28705e-05 0)
(1.54682e-05 1.33787e-05 0)
(1.59338e-05 1.38866e-05 0)
(1.6399e-05 1.43943e-05 0)
(1.68647e-05 1.49021e-05 -1.21529e-20)
(5.9966e-06 4.14818e-06 0)
(6.6356e-06 4.72128e-06 0)
(7.22049e-06 5.26854e-06 0)
(7.7993e-06 5.81316e-06 0)
(8.36907e-06 6.35587e-06 0)
(8.92982e-06 6.89549e-06 0)
(9.48058e-06 7.43176e-06 0)
(1.00214e-05 7.96458e-06 0)
(1.05522e-05 8.49399e-06 0)
(1.10733e-05 9.02019e-06 0)
(1.15851e-05 9.54339e-06 0)
(1.20882e-05 1.00639e-05 0)
(1.25831e-05 1.05818e-05 0)
(1.30708e-05 1.10976e-05 0)
(1.35518e-05 1.16112e-05 0)
(1.40273e-05 1.2123e-05 0)
(1.44982e-05 1.26329e-05 0)
(1.49655e-05 1.31409e-05 0)
(1.54307e-05 1.36468e-05 0)
(1.58955e-05 1.41505e-05 0)
(1.6361e-05 1.46513e-05 -1.21634e-20)
(5.65658e-06 3.89177e-06 0)
(6.26669e-06 4.45282e-06 0)
(6.83195e-06 4.99375e-06 0)
(7.39356e-06 5.53528e-06 0)
(7.94833e-06 6.07729e-06 0)
(8.49616e-06 6.61814e-06 0)
(9.03584e-06 7.15713e-06 0)
(9.56723e-06 7.69372e-06 0)
(1.00901e-05 8.22761e-06 0)
(1.06045e-05 8.75867e-06 0)
(1.11107e-05 9.28685e-06 0)
(1.16092e-05 9.81217e-06 0)
(1.21005e-05 1.03347e-05 0)
(1.25851e-05 1.08544e-05 0)