/*--------------------------------*- C++ -*----------------------------------*\
  =========                 |
  \\      /  F ield         | OpenFOAM: The Open Source CFD Toolbox
   \\    /   O peration     | Website:  https://openfoam.org
    \\  /    A nd           | Version:  9
     \\/     M anipulation  |
\*---------------------------------------------------------------------------*/
FoamFile
{
    format      ascii;
    class       volSymmTensorField;
    location    "15";
    object      sigma;
}
// * * * * * * * * * * * * * * * * * * * * * * * * * * * * * * * * * * * * * //

dimensions      [1 -1 -2 0 0 0 0];

internalField   nonuniform List<symmTensor> 
1000
(
(1.83787e+06 -1.26369e+06 -6.01611e-10 1.07021e+06 -8.81609e-10 249489)
(2.15672e+06 -974999 -3.90084e-10 580472 -6.07479e-10 205662)
(2.31949e+06 -747730 -2.31646e-10 356059 -4.17694e-10 187740)
(2.38895e+06 -576415 -1.20249e-10 174874 -2.77743e-10 170007)
(2.41522e+06 -437751 -3.31967e-11 70136.8 -1.71825e-10 159617)
(2.40597e+06 -329623 3.04792e-11 -8559.52 -9.20858e-11 150419)
(2.3824e+06 -241494 8.04562e-11 -59106.1 -3.00146e-11 143892)
(2.34538e+06 -171472 1.17627e-10 -95678.1 1.73446e-11 138260)
(2.30713e+06 -113207 1.47665e-10 -119713 5.53857e-11 134035)
(2.25619e+06 -64726.4 1.69815e-10 -142721 8.57727e-11 129174)
(2.32392e+06 -1.4087e+06 -6.21136e-10 1.08889e+06 -9.38549e-10 274160)
(2.54298e+06 -1.00782e+06 -3.53914e-10 609250 -5.99875e-10 228236)
(2.63202e+06 -719606 -1.67553e-10 407039 -3.78599e-10 210378)
(2.64186e+06 -513450 -4.28075e-11 235366 -2.21755e-10 191394)
(2.62199e+06 -354900 5.01973e-11 138862 -1.07541e-10 180052)
(2.57483e+06 -236806 1.14706e-10 63788.5 -2.48345e-11 169572)
(2.52032e+06 -144248 1.63038e-10 15567.1 3.72822e-11 161865)
(2.45771e+06 -73973.1 1.96631e-10 -22424.6 8.28117e-11 154774)
(2.39558e+06 -16943.6 2.2248e-10 -45570.3 1.17919e-10 149456)
(2.3268e+06 28667.6 2.40026e-10 -76886.7 1.4586e-10 142581)
(2.84535e+06 -1.49394e+06 -5.81831e-10 1.05394e+06 -9.4522e-10 293503)
(2.94022e+06 -1.00532e+06 -2.94474e-10 627630 -5.668e-10 250499)
(2.93554e+06 -668834 -9.05186e-11 463067 -3.2588e-10 233540)
(2.87529e+06 -435915 4.13851e-11 312999 -1.5976e-10 214246)
(2.8029e+06 -263623 1.35763e-10 230558 -4.25207e-11 202305)
(2.71422e+06 -140026 1.97927e-10 163291 3.94168e-11 190846)
(2.62696e+06 -46749.5 2.42115e-10 119805 9.86974e-11 182131)
(2.53754e+06 21296.1 2.70468e-10 82407.1 1.40423e-10 173748)
(2.45356e+06 74271.3 2.90667e-10 60221.1 1.70895e-10 167406)
(2.36608e+06 117305 3.03767e-10 23950.7 1.96126e-10 158917)
(3.40237e+06 -1.52168e+06 -5.3888e-10 980155 -9.09619e-10 312261)
(3.33432e+06 -967384 -2.13581e-10 641030 -5.10002e-10 272451)
(3.22277e+06 -598951 -3.78922e-12 524509 -2.62533e-10 256862)
(3.08573e+06 -348856 1.28641e-10 406447 -9.52352e-11 238142)
(2.95582e+06 -170240 2.19174e-10 342147 1.92355e-11 225782)
(2.82334e+06 -46191.6 2.756e-10 285409 9.65605e-11 213513)
(2.70213e+06 43851 3.13023e-10 247075 1.50244e-10 203728)
(2.58653e+06 107177 3.34688e-10 210682 1.86524e-10 194103)
(2.48146e+06 153924 3.47946e-10 187802 2.1118e-10 186531)
(2.37853e+06 191955 3.55627e-10 148875 2.32107e-10 176855)
(3.94605e+06 -1.46865e+06 -4.31564e-10 835592 -8.12013e-10 321320)
(3.71138e+06 -890560 -1.11323e-10 641565 -4.27465e-10 292422)
(3.48935e+06 -509641 9.20308e-11 585339 -1.88022e-10 279345)
(3.27048e+06 -254560 2.1701e-10 510925 -2.93686e-11 262295)
(3.07935e+06 -79102.9 2.97406e-10 469694 7.51871e-11 249837)
(2.90202e+06 38773.1 3.43895e-10 426132 1.43128e-10 236959)
(2.74706e+06 120606 3.71498e-10 393389 1.87893e-10 226103)
(2.6065e+06 175815 3.84538e-10 357967 2.1659e-10 215244)
(2.48247e+06 213832 3.89563e-10 332864 2.34133e-10 206314)
(2.36608e+06 244799 3.90828e-10 291283 2.49562e-10 195521)
(4.46373e+06 -1.35784e+06 -2.91778e-10 700312 -6.79489e-10 331098)
(4.0781e+06 -764798 1.97365e-11 636606 -3.12828e-10 311846)
(3.73592e+06 -395996 2.0039e-10 656082 -1.00262e-10 302460)
(3.4297e+06 -152924 3.06651e-10 628899 3.76375e-11 287033)
(3.17474e+06 6926.87 3.68847e-10 612839 1.23591e-10 274448)
(2.95237e+06 109981 3.99977e-10 581901 1.7648e-10 260759)
(2.76502e+06 177957 4.14402e-10 553321 2.08874e-10 248633)
(2.60165e+06 221431 4.16832e-10 517484 2.27939e-10 236418)
(2.46115e+06 248627 4.12625e-10 488219 2.3742e-10 225971)
(2.33373e+06 270840 4.06762e-10 443593 2.46483e-10 214108)
(4.93448e+06 -1.12975e+06 -8.51939e-11 585683 -4.75814e-10 342864)
(4.41459e+06 -582369 1.8217e-10 648158 -1.65203e-10 332704)
(3.94294e+06 -252903 3.21963e-10 747510 1.23431e-12 326708)
(3.55023e+06 -45220.8 3.95023e-10 765617 1.03226e-10 312365)
(3.23365e+06 83376 4.29469e-10 770160 1.60949e-10 298950)
(2.97092e+06 161690 4.39613e-10 747379 1.93143e-10 283962)
(2.75597e+06 209924 4.37766e-10 718718 2.10171e-10 270171)
(2.57428e+06 238448 4.28151e-10 679518 2.18197e-10 256393)
(2.42128e+06 253559 4.14427e-10 643561 2.19409e-10 244283)
(2.28578e+06 266194 4.0132e-10 594922 2.21923e-10 231359)
(5.42312e+06 -809009 1.83296e-10 528777 -2.16056e-10 364338)
(4.70987e+06 -353310 3.69153e-10 711016 3.84298e-12 358840)
(4.11084e+06 -83658.8 4.55612e-10 889187 1.10916e-10 355912)
(3.63224e+06 58471.9 4.76244e-10 933670 1.59301e-10 339800)
(3.26145e+06 140701 4.7421e-10 945158 1.81007e-10 323934)
(2.96581e+06 185466 4.58612e-10 918454 1.88704e-10 306321)
(2.73027e+06 210612 4.39191e-10 881672 1.89674e-10 290122)
(2.53599e+06 223339 4.17683e-10 833947 1.87182e-10 274384)
(2.3751e+06 227376 3.95648e-10 788327 1.81523e-10 260466)
(2.2348e+06 231386 3.76334e-10 734527 1.78529e-10 246510)
(5.77304e+06 -348572 3.17389e-10 448008 1.69406e-10 383341)
(4.91736e+06 -58523.6 5.87574e-10 885047 1.96096e-10 395993)
(4.18435e+06 84164.5 5.76554e-10 1.09328e+06 2.04496e-10 388515)
(3.6364e+06 130070 5.27289e-10 1.13761e+06 1.83459e-10 367572)
(3.23576e+06 154649 4.8436e-10 1.12437e+06 1.674e-10 346189)
(2.92652e+06 163351 4.43751e-10 1.0767e+06 1.52535e-10 324661)
(2.68468e+06 167385 4.09739e-10 1.02106e+06 1.41196e-10 305397)
(2.48731e+06 167699 3.79672e-10 959915 1.31787e-10 287582)
(2.32472e+06 164837 3.52771e-10 902923 1.22737e-10 272001)
(2.18328e+06 163501 3.29812e-10 843872 1.16718e-10 257229)
(6.303e+06 356149 5.6679e-10 720098 6.82588e-10 461745)
(5.00607e+06 377356 8.84967e-10 1.34714e+06 4.38354e-10 466709)
(4.17789e+06 240351 6.82439e-10 1.42654e+06 2.68747e-10 433784)
(3.61386e+06 161086 5.50507e-10 1.38584e+06 1.7344e-10 399212)
(3.21037e+06 124657 4.67003e-10 1.29644e+06 1.25607e-10 366912)
(2.90274e+06 107944 4.09525e-10 1.20425e+06 9.9215e-11 339311)
(2.66225e+06 100985 3.68006e-10 1.1188e+06 8.41608e-11 316077)
(2.46584e+06 97743.9 3.35395e-10 1.04138e+06 7.43589e-11 296141)
(2.3034e+06 94739 3.08127e-10 974009 6.6424e-11 279214)
(2.16138e+06 92896.9 2.84681e-10 911882 6.03761e-11 264006)
(-8426.29 2921.75 -3.63409e-11 -4779.99 -1.74856e-11 1674.26)
(6878.04 -10636.2 -4.34888e-11 917.841 -2.66681e-11 3475.06)
(68172.2 -33299.9 -5.60298e-11 -3400.01 -4.16408e-11 8852.33)
(166123 -51425.6 -6.40472e-11 -6974.6 -5.3466e-11 17833.1)
(279899 -62592.1 -6.67168e-11 -8827.01 -6.05977e-11 28513.4)
(399262 -68945.8 -6.59457e-11 -9724.15 -6.44948e-11 39837.6)
(516186 -71427.4 -6.26951e-11 -9863.36 -6.58099e-11 51014.7)
(627890 -71601.8 -5.81156e-11 -9491.11 -6.55993e-11 61747.5)
(730307 -69688.4 -4.97166e-11 -9305.71 -6.1712e-11 70296.6)
(825765 -68217 -3.49736e-11 -7705.23 -5.28648e-11 75291.7)
(11225.9 -11477.7 -4.40787e-11 -642.711 -2.71906e-11 3766.53)
(90205.6 -61691 -6.70064e-11 37931.2 -6.14724e-11 13905.3)
(204817 -117039 -9.72638e-11 39564.1 -9.83803e-11 24604.1)
(326333 -159320 -1.20953e-10 27567.9 -1.26215e-10 35022.2)
(448510 -185305 -1.34157e-10 16090.2 -1.43099e-10 45663.8)
(564600 -199865 -1.40174e-10 5684.66 -1.52338e-10 55888.7)
(672282 -205094 -1.4024e-10 -2345.5 -1.55375e-10 65557.8)
(771923 -204750 -1.27715e-10 -8020.56 -1.47594e-10 70651.5)
(859809 -199105 -1.11655e-10 -12894.2 -1.35882e-10 74483.7)
(943163 -194603 -9.68328e-11 -13339.9 -1.25818e-10 78650.5)
(34637 -56115.2 -6.57199e-11 38200.7 -5.78948e-11 8641.4)
(172765 -153829 -1.15713e-10 81709.9 -1.24038e-10 24473.3)
(330935 -222343 -1.53696e-10 75691.9 -1.6952e-10 38665.8)
(476138 -268242 -1.81313e-10 46311.7 -1.99378e-10 50001.7)
(609787 -293517 -1.95937e-10 19161.4 -2.15444e-10 60553.1)
(727485 -305414 -1.96669e-10 -4474.38 -2.18273e-10 67485.8)
(830860 -306888 -1.83178e-10 -22350.4 -2.08458e-10 70298.2)
(922991 -302015 -1.67218e-10 -35285.8 -1.95969e-10 73281.6)
(1.00003e+06 -291343 -1.49737e-10 -45052.1 -1.81287e-10 76005.4)
(1.07461e+06 -282372 -1.3347e-10 -47878.9 -1.68737e-10 79486.1)
(82986.3 -126036 -9.49044e-11 127276 -1.06506e-10 19549.4)
(284407 -264189 -1.72895e-10 138335 -1.99021e-10 38673.2)
(478504 -336187 -2.14232e-10 114807 -2.46397e-10 54948)
(644190 -376570 -2.40233e-10 67090.8 -2.72126e-10 66889.7)
(787520 -393303 -2.41833e-10 25247.3 -2.74706e-10 73124.3)
(906851 -396450 -2.2761e-10 -11001.9 -2.62533e-10 74317)
(1.00653e+06 -389729 -2.09842e-10 -38880.6 -2.46462e-10 75756.8)
(1.09202e+06 -377259 -1.90336e-10 -59502.2 -2.28628e-10 77513.7)
(1.15894e+06 -359902 -1.70324e-10 -75083.5 -2.09713e-10 79068.4)
(1.2256e+06 -345233 -1.51752e-10 -81323.1 -1.93672e-10 81789.3)
(165439 -224747 -1.3484e-10 257535 -1.75178e-10 36652.7)
(434150 -384264 -2.33841e-10 200590 -2.80533e-10 56882)
(658201 -448938 -2.7403e-10 145302 -3.22274e-10 73660.1)
(837997 -475868 -2.84508e-10 74234 -3.30649e-10 80869.4)
(985326 -477688 -2.66023e-10 17031.1 -3.1282e-10 80749.3)
(1.10226e+06 -467198 -2.44001e-10 -31022.8 -2.90477e-10 80475.6)
(1.19555e+06 -448793 -2.20131e-10 -67401.1 -2.66246e-10 80652.7)
(1.2726e+06 -426230 -1.95743e-10 -94260.2 -2.41736e-10 81317.1)
(1.32852e+06 -400858 -1.72459e-10 -114295 -2.17939e-10 81855.1)
(1.3866e+06 -379284 -1.50899e-10 -122905 -1.97788e-10 83935)
(292854 -354439 -1.87975e-10 418960 -2.65156e-10 60212.3)
(626905 -505936 -2.92907e-10 270266 -3.63133e-10 79767.1)
(874738 -550318 -3.22639e-10 174335 -3.8828e-10 94699.7)
(1.0615e+06 -556951 -3.02598e-10 77592.4 -3.65745e-10 91331.2)
(1.20659e+06 -539825 -2.73071e-10 5726.71 -3.33896e-10 89454.5)
(1.31601e+06 -513298 -2.42448e-10 -52484.8 -3.00419e-10 87707)
(1.3991e+06 -481737 -2.12061e-10 -95691.4 -2.67569e-10 86669.8)
(1.4647e+06 -448208 -1.82638e-10 -127287 -2.36232e-10 86299.3)
(1.50776e+06 -414585 -1.56179e-10 -150804 -2.0767e-10 85856.5)
(1.5554e+06 -385757 -1.31657e-10 -160976 -1.83425e-10 87313.7)
(474035 -513602 -2.55842e-10 592468 -3.75027e-10 89627.8)
(861940 -624344 -3.47774e-10 342382 -4.4346e-10 106915)
(1.12423e+06 -634364 -3.38114e-10 202155 -4.25959e-10 109604)
(1.3095e+06 -613809 -3.02148e-10 78487 -3.8248e-10 103034)
(1.4454e+06 -574603 -2.60601e-10 -6983.36 -3.35249e-10 99235.7)
(1.54163e+06 -530741 -2.21345e-10 -73835.6 -2.90436e-10 95947.1)
(1.61034e+06 -485665 -1.84769e-10 -122060 -2.4929e-10 93727.3)
(1.661e+06 -441340 -1.50881e-10 -156933 -2.11705e-10 92334.9)
(1.68925e+06 -400021 -1.21832e-10 -182607 -1.79056e-10 90979.9)
(1.72396e+06 -364169 -9.48322e-11 -193706 -1.51156e-10 91769)
(717245 -696453 -3.3702e-10 760664 -5.00538e-10 124408)
(1.13723e+06 -734917 -3.92676e-10 414349 -5.15762e-10 136483)
(1.40106e+06 -697120 -3.36301e-10 233170 -4.47629e-10 126587)
(1.57495e+06 -643308 -2.81998e-10 84803.7 -3.8029e-10 116697)
(1.69448e+06 -579863 -2.2806e-10 -12090.1 -3.17106e-10 110934)
(1.77201e+06 -518432 -1.80768e-10 -85718.7 -2.61482e-10 106074)
(1.82237e+06 -460515 -1.38953e-10 -137497 -2.12991e-10 102655)
(1.85489e+06 -406586 -1.01763e-10 -174274 -1.70371e-10 100243)
(1.86671e+06 -358894 -7.11753e-11 -201832 -1.34682e-10 97911.7)
(1.88598e+06 -316932 -4.26071e-11 -213092 -1.04029e-10 97994.7)
(1.02654e+06 -891892 -4.27073e-10 904861 -6.33848e-10 163598)
(1.44852e+06 -833083 -4.06896e-10 480916 -5.62019e-10 159322)
(1.69757e+06 -736867 -3.17207e-10 268484 -4.5293e-10 145434)
(1.84886e+06 -645251 -2.43206e-10 100550 -3.60263e-10 132397)
(1.94473e+06 -556358 -1.77074e-10 -4111.11 -2.81366e-10 124796)
(1.99813e+06 -477967 -1.22846e-10 -82363.9 -2.16038e-10 118367)
(2.02662e+06 -408449 -7.70138e-11 -135704 -1.61547e-10 113815)
(2.03773e+06 -346890 -3.82084e-11 -173941 -1.15525e-10 110251)
(2.03241e+06 -294415 -7.13587e-12 -202054 -7.80591e-11 107058)
(2.03307e+06 -247485 2.17438e-11 -216559 -4.53203e-11 105859)
(1.40277e+06 -1.08707e+06 -5.19693e-10 1.01228e+06 -7.66064e-10 206401)
(1.79042e+06 -914832 -4.06736e-10 538653 -5.93827e-10 182768)
(2.00591e+06 -753610 -2.81908e-10 310059 -4.42753e-10 166010)
(2.12239e+06 -621835 -1.88286e-10 130250 -3.25118e-10 150250)
(2.18688e+06 -507422 -1.10895e-10 22490.6 -2.31651e-10 141036)
(2.21095e+06 -413202 -5.11002e-11 -57492.2 -1.5814e-10 133139)
(2.21404e+06 -333784 -2.77834e-12 -110914 -9.92435e-11 127446)
(2.20161e+06 -266788 3.60362e-11 -148333 -5.17096e-11 122890)
(2.17909e+06 -212410 6.57424e-11 -178763 -1.41717e-11 118563)
(2.15843e+06 -165227 9.18088e-11 -189554 1.65066e-11 116786)
(911126 -63286.8 -1.9581e-11 -7698.43 -4.24005e-11 79623.5)
(986246 -56466.2 -4.44213e-12 -5985.71 -3.17487e-11 83692.7)
(1.0551e+06 -50539.6 9.22134e-12 -4765.18 -2.21602e-11 87372.2)
(1.11692e+06 -45159.2 2.15218e-11 -3861.14 -1.34892e-11 90652.2)
(1.17273e+06 -40171.2 3.27076e-11 -2967.93 -5.5844e-12 93624.6)
(1.22267e+06 -35705.5 4.27163e-11 -2315.66 1.50799e-12 96265.6)
(1.26746e+06 -31610.4 5.17489e-11 -1691.7 7.92328e-12 98640.3)
(1.30734e+06 -27917.3 5.98195e-11 -1211.14 1.36759e-11 100746)
(1.34284e+06 -24531.2 6.70625e-11 -786.066 1.88609e-11 102621)
(1.37418e+06 -21429.6 7.3528e-11 -454.438 2.35188e-11 104273)
(1.40172e+06 -18544.5 7.93062e-11 -184.612 2.77188e-11 105723)
(1.42562e+06 -15834.3 8.44491e-11 12.9522 3.15048e-11 106980)
(1.44606e+06 -13246.3 8.90151e-11 147.016 3.49256e-11 108054)
(1.46315e+06 -10741.8 9.30437e-11 215.561 3.80159e-11 108952)
(1.47694e+06 -8289.11 9.65599e-11 216.516 4.08003e-11 109674)
(1.4875e+06 -5885.11 9.95788e-11 160.873 4.32867e-11 110228)
(1.4948e+06 -3564.22 1.02072e-10 45.9239 4.54496e-11 110610)
(1.49915e+06 -1458.63 1.04009e-10 -41.5758 4.72184e-11 110845)
(1.50056e+06 154.381 1.05216e-10 -33.1338 4.84024e-11 110939)
(1.50041e+06 532.976 1.05454e-10 777.512 4.8547e-11 111043)
(1.01026e+06 -181208 -7.89209e-11 -17209.6 -1.10855e-10 81684.1)
(1.06563e+06 -163095 -5.96444e-11 -16777.7 -9.42621e-11 84758.4)
(1.11901e+06 -147145 -4.19728e-11 -15357.3 -7.93802e-11 87831.4)
(1.16664e+06 -132264 -2.58136e-11 -14632.8 -6.5608e-11 90512.6)
(1.21081e+06 -118321 -1.07213e-11 -13275.7 -5.28221e-11 93089.6)
(1.25053e+06 -105722 2.8789e-12 -12383.3 -4.12458e-11 95365.5)
(1.28682e+06 -94060.8 1.54059e-11 -11306.4 -3.06003e-11 97480.9)
(1.31943e+06 -83470.5 2.67267e-11 -10491.4 -2.09437e-11 99363)
(1.34887e+06 -73699.7 3.70807e-11 -9705.46 -1.20915e-11 101072)
(1.37518e+06 -64710.3 4.64898e-11 -9098.37 -4.00046e-12 102591)
(1.39864e+06 -56329.8 5.51063e-11 -8591.48 3.45955e-12 103945)
(1.41934e+06 -48462.1 6.30024e-11 -8222.37 1.03641e-11 105137)
(1.43746e+06 -40976.5 7.02843e-11 -7953.45 1.68094e-11 106182)
(1.45311e+06 -33784 7.70233e-11 -7763.85 2.28607e-11 107088)
(1.46635e+06 -26813.8 8.32781e-11 -7599.15 2.85661e-11 107868)
(1.47733e+06 -20063.8 8.90711e-11 -7346.2 3.39246e-11 108544)
(1.48604e+06 -13614.3 9.43559e-11 -6857.74 3.88653e-11 109133)
(1.49274e+06 -7747.08 9.9006e-11 -5754.59 4.31811e-11 109693)
(1.49716e+06 -2886.68 1.02732e-10 -3543.16 4.65106e-11 110270)
(1.5e+06 -309.075 1.04879e-10 1070.65 4.79215e-11 111048)
(1.12538e+06 -262294 -1.13792e-10 -53000.2 -1.50592e-10 81635.4)
(1.16069e+06 -237609 -9.32975e-11 -51722.6 -1.31447e-10 83910.2)
(1.19869e+06 -215470 -7.39005e-11 -47063.5 -1.14147e-10 86723.9)
(1.23154e+06 -194915 -5.62777e-11 -44017.4 -9.81409e-11 89048.8)
(1.26365e+06 -175335 -3.93342e-11 -39671.1 -8.29935e-11 91491.8)
(1.29249e+06 -157562 -2.40145e-11 -36327 -6.92e-11 93616)
(1.31968e+06 -140935 -9.63919e-12 -32790.2 -5.63241e-11 95667.3)
(1.34435e+06 -125744 3.45884e-12 -29883.8 -4.45386e-11 97490)
(1.36714e+06 -111642 1.56017e-11 -27214.6 -3.36033e-11 99173)
(1.3878e+06 -98622.7 2.67486e-11 -25034 -2.35077e-11 100670)
(1.4066e+06 -86472.2 3.70761e-11 -23214 -1.4101e-11 102016)
(1.42352e+06 -75085.9 4.66462e-11 -21803.2 -5.31072e-12 103204)
(1.43871e+06 -64306.5 5.55771e-11 -20730 2.97079e-12 104253)
(1.45222e+06 -54026.6 6.39479e-11 -19935.9 1.08131e-11 105175)
(1.46413e+06 -44149.8 7.18319e-11 -19297 1.82715e-11 105992)
(1.47454e+06 -34640.1 7.92734e-11 -18585.4 2.53527e-11 106737)
(1.48338e+06 -25520.2 8.62568e-11 -17472.4 3.19968e-11 107451)
(1.49083e+06 -16934.8 9.27373e-11 -15294 3.80479e-11 108227)
(1.49623e+06 -9148.67 9.84833e-11 -11110 4.31667e-11 109150)
(1.50021e+06 -2515.17 1.03411e-10 -3284.74 4.69835e-11 110461)
(1.2601e+06 -319530 -1.30976e-10 -88214.9 -1.72981e-10 82973.8)
(1.27402e+06 -291250 -1.11346e-10 -87419.3 -1.5321e-10 84168.4)
(1.29608e+06 -265177 -9.17304e-11 -80283.4 -1.34941e-10 86564)
(1.31298e+06 -241392 -7.43643e-11 -75970.1 -1.18294e-10 88302.8)
(1.33208e+06 -218244 -5.70076e-11 -69208.9 -1.02165e-10 90461)
(1.34889e+06 -197232 -4.13544e-11 -63930.2 -8.747e-11 92281.4)
(1.36596e+06 -177329 -2.63407e-11 -58236 -7.35334e-11 94153.9)
(1.38163e+06 -159060 -1.25704e-11 -53436.7 -6.06911e-11 95817.2)
(1.39679e+06 -141983 3.72541e-13 -48972.8 -4.86418e-11 97394.5)
(1.41085e+06 -126158 1.23587e-11 -45224.4 -3.74295e-11 98806.4)
(1.42411e+06 -111353 2.35792e-11 -42025.9 -2.68948e-11 100092)
(1.4364e+06 -97471.5 3.40656e-11 -39450.2 -1.69817e-11 101236)
(1.44782e+06 -84349.3 4.39382e-11 -37403.1 -7.5827e-12 102256)
(1.45833e+06 -71864.2 5.32721e-11 -35806.4 1.37127e-12 103164)
(1.46796e+06 -59894.8 6.21484e-11 -34492.9 9.94204e-12 103983)
(1.47674e+06 -48349.7 7.06382e-11 -33176.5 1.81608e-11 104755)
(1.48449e+06 -37170.1 7.87632e-11 -31457 2.6004e-11 105522)
(1.49133e+06 -26283 8.66084e-11 -28584.6 3.34445e-11 106390)
(1.49633e+06 -15782.8 9.40088e-11 -23588.7 4.02295e-11 107437)
(1.5003e+06 -4911.02 1.01603e-10 -14725.8 4.67268e-11 108942)
(1.40477e+06 -349197 -1.29763e-10 -130142 -1.75538e-10 84320.6)
(1.39644e+06 -320795 -1.13288e-10 -129992 -1.57491e-10 84321.8)
(1.40284e+06 -293104 -9.48278e-11 -119469 -1.39865e-10 86399.6)
(1.40343e+06 -268718 -7.94014e-11 -113702 -1.24366e-10 87521.6)
(1.40948e+06 -244220 -6.30043e-11 -104045 -1.0878e-10 89424.5)
(1.41392e+06 -222080 -4.83653e-11 -96414.2 -9.46547e-11 90950)
(1.42057e+06 -200788 -3.39159e-11 -88107.3 -8.09809e-11 92662)
(1.42686e+06 -181138 -2.05743e-11 -80941.7 -6.82915e-11 94183.9)
(1.43394e+06 -162619 -7.83327e-12 -74231.1 -5.62294e-11 95671)
(1.44093e+06 -145364 4.0792e-12 -68479.4 -4.49005e-11 97010.6)
(1.44812e+06 -129155 1.53464e-11 -63514.3 -3.41549e-11 98243)
(1.4552e+06 -113918 2.59676e-11 -59435.2 -2.39592e-11 99340.9)
(1.4622e+06 -99496.4 3.60477e-11 -56144.6 -1.42175e-11 100321)
(1.46903e+06 -85756.9 4.56579e-11 -53559.8 -4.85986e-12 101191)
(1.47562e+06 -72552.1 5.48863e-11 -51499.7 4.18502e-12 101973)
(1.48195e+06 -59718.1 6.38394e-11 -49663.1 1.29883e-11 102708)
(1.48776e+06 -47107.6 7.25827e-11 -47641.8 2.15784e-11 103438)
(1.49311e+06 -34407.7 8.13438e-11 -44710.1 3.00848e-11 104265)
(1.49702e+06 -21607.6 9.00093e-11 -40004.5 3.83307e-11 105252)
(1.50033e+06 -7018.75 9.9799e-11 -31882.7 4.73137e-11 106679)
(1.55687e+06 -352827 -1.1116e-10 -168137 -1.60716e-10 86915.3)
(1.52533e+06 -327962 -1.00305e-10 -170361 -1.46692e-10 85398.9)
(1.51642e+06 -300874 -8.4347e-11 -156902 -1.31096e-10 87086)
(1.50035e+06 -278286 -7.24252e-11 -150487 -1.18266e-10 87435.7)
(1.49335e+06 -254434 -5.82504e-11 -138583 -1.04468e-10 88970.1)
(1.48523e+06 -232961 -4.57844e-11 -129061 -9.20614e-11 90105.9)
(1.48123e+06 -211929 -3.29719e-11 -118591 -7.9708e-11 91564.1)
(1.47785e+06 -192357 -2.10129e-11 -109333 -6.8127e-11 92875.3)
(1.47652e+06 -173741 -9.36892e-12 -100580 -5.69476e-11 94209.2)
(1.47606e+06 -156259 1.66488e-12 -92906.3 -4.63188e-11 95430.3)
(1.47673e+06 -139738 1.22365e-11 -86184.5 -3.61199e-11 96570.7)
(1.47812e+06 -124126 2.23145e-11 -80548.6 -2.63361e-11 97592.5)
(1.48019e+06 -109290 3.19792e-11 -75938 -1.68887e-11 98504.3)
(1.48277e+06 -95092.9 4.12918e-11 -72300 -7.70873e-12 99305.6)
(1.48574e+06 -81373.7 5.03384e-11 -69486.6 1.28338e-12 100012)
(1.489e+06 -67906.1 5.92543e-11 -67245.8 1.01997e-11 100655)
(1.49227e+06 -54473.5 6.81435e-11 -65232.8 1.91199e-11 101269)
(1.49555e+06 -40557 7.73455e-11 -62855.4 2.83187e-11 101937)
(1.498e+06 -26087 8.68017e-11 -59444.3 3.76938e-11 102706)
(1.50025e+06 -8660.63 9.81388e-11 -53634.1 4.87298e-11 103819)
(1.70918e+06 -330412 -7.6141e-11 -199976 -1.29375e-10 90687)
(1.65452e+06 -313044 -7.34167e-11 -206615 -1.21748e-10 87336.2)
(1.6314e+06 -288871 -6.12721e-11 -191358 -1.09485e-10 88507.2)
(1.59918e+06 -270362 -5.42241e-11 -185021 -1.00706e-10 87982.7)
(1.57953e+06 -249287 -4.35633e-11 -171782 -8.99639e-11 89021.2)
(1.55929e+06 -230195 -3.42831e-11 -160641 -8.0341e-11 89729)
(1.54477e+06 -211036 -2.41018e-11 -148313 -7.0328e-11 90877.8)
(1.5319e+06 -192867 -1.43275e-11 -137027 -6.07092e-11 91959.6)
(1.52213e+06 -175351 -4.52934e-12 -126296 -5.11971e-11 93114.3)
(1.51416e+06 -158682 4.97059e-12 -116714 -4.19587e-11 94198)
(1.50816e+06 -142793 1.42359e-11 -108256 -3.29409e-11 95222.6)
(1.50365e+06 -127660 2.32085e-11 -101085 -2.41485e-11 96143.1)
(1.50051e+06 -113195 3.19271e-11 -95193.5 -1.5534e-11 96956.2)
(1.49851e+06 -99267.9 4.04372e-11 -90571.7 -7.03302e-12 97653)
(1.49748e+06 -85716.4 4.88205e-11 -87127.6 1.43754e-12 98239.7)
(1.49726e+06 -72269.6 5.72269e-11 -84693.5 1.00244e-11 98734.1)
(1.49761e+06 -58664.6 6.57925e-11 -83026.1 1.88521e-11 99159.4)
(1.49844e+06 -44229.9 7.49301e-11 -81736.6 2.83111e-11 99570.4)
(1.4992e+06 -28870.5 8.46383e-11 -80373.5 3.83681e-11 100001)
(1.50012e+06 -9715.43 9.67587e-11 -78022.2 5.08327e-11 100622)
(1.85558e+06 -283607 -2.64523e-11 -219778 -8.3804e-11 96072.2)
(1.77938e+06 -277596 -3.40903e-11 -232858 -8.47576e-11 90648.3)
(1.74339e+06 -258841 -2.72038e-11 -218555 -7.70523e-11 90976.5)
(1.69652e+06 -245944 -2.57803e-11 -212855 -7.31443e-11 89559.2)
(1.66476e+06 -229548 -1.97958e-11 -200151 -6.64553e-11 89857.7)
(1.63339e+06 -214174 -1.44213e-11 -188511 -6.02861e-11 90022.7)
(1.60869e+06 -198367 -7.77785e-12 -175569 -5.34184e-11 90696.3)
(1.58676e+06 -182890 -9.53356e-13 -163111 -4.64787e-11 91440.7)
(1.56869e+06 -167685 6.25047e-12 -151020 -3.93498e-11 92326.5)
(1.55334e+06 -152901 1.3555e-11 -139880 -3.21608e-11 93217.9)
(1.54068e+06 -138589 2.09233e-11 -129841 -2.49293e-11 94093.6)
(1.53023e+06 -124764 2.8268e-11 -121153 -1.76779e-11 94896.8)
(1.52179e+06 -111400 3.55743e-11 -113918 -1.03934e-11 95604.6)
(1.51506e+06 -98398.2 4.28589e-11 -108223 -3.02619e-12 96192.8)
(1.50988e+06 -85619.9 5.01807e-11 -104079 4.50172e-12 96652.2)
(1.506e+06 -72783.9 5.76841e-11 -101452 1.23535e-11 96980.4)
(1.50327e+06 -59612.5 6.55212e-11 -100240 2.06869e-11 97186.4)
(1.50145e+06 -45351.2 7.41308e-11 -100312 2.99655e-11 97285.6)
(1.50047e+06 -29901.1 8.3571e-11 -101443 4.02223e-11 97305.7)
(1.49993e+06 -10155.6 9.57268e-11 -103301 5.34391e-11 97313.3)
(1.99111e+06 -216939 3.44881e-11 -223672 -2.78584e-11 103265)
(1.89562e+06 -224370 1.54865e-11 -244156 -3.84699e-11 95725.5)
(1.84771e+06 -214897 1.46635e-11 -237264 -3.70496e-11 94363.7)
(1.78905e+06 -208712 1.01615e-11 -233144 -3.83903e-11 92057.9)
(1.7457e+06 -198955 1.02841e-11 -222427 -3.68378e-11 91426.1)
(1.70474e+06 -188217 1.13944e-11 -210578 -3.45667e-11 91074.4)
(1.67064e+06 -176527 1.41301e-11 -197285 -3.12528e-11 91267)
(1.64053e+06 -164324 1.77615e-11 -183955 -2.72678e-11 91670.4)
(1.6148e+06 -151945 2.21272e-11 -170888 -2.27666e-11 92260.9)
(1.59254e+06 -139576 2.69637e-11 -158662 -1.78811e-11 92915.1)
(1.57353e+06 -127374 3.21333e-11 -147536 -1.27059e-11 93586.1)
(1.55732e+06 -115409 3.75195e-11 -137809 -7.28902e-12 94210.9)
(1.54364e+06 -103700 4.30662e-11 -129665 -1.64524e-12 94752.6)
(1.53219e+06 -92185.5 4.87628e-11 -123276 4.26036e-12 95174.3)
(1.52278e+06 -80749.7 5.46501e-11 -118754 1.05008e-11 95453.3)
(1.51513e+06 -69125.1 6.08535e-11 -116213 1.72439e-11 95565.1)
(1.50921e+06 -57038.3 6.75346e-11 -115707 2.46728e-11 95504.6)
(1.50463e+06 -43717.3 7.51137e-11 -117395 3.32829e-11 95242.5)
(1.50185e+06 -29060.8 8.37205e-11 -121280 4.31809e-11 94802.8)
(1.49974e+06 -9944.75 9.51255e-11 -127716 5.63765e-11 94126.9)
(2.10399e+06 -131338 1.04278e-10 -215800 3.73283e-11 111124)
(2.00697e+06 -147737 7.95902e-11 -232296 2.02021e-11 103902)
(1.9456e+06 -151532 6.81573e-11 -239637 1.33597e-11 99829)
(1.8803e+06 -153020 5.77654e-11 -240949 7.01435e-12 96376.8)
(1.82545e+06 -152199 5.04795e-11 -236711 2.43715e-12 94201.6)
(1.77544e+06 -148692 4.56803e-11 -228445 -4.2078e-13 92830.5)
(1.73184e+06 -143317 4.30552e-11 -217227 -1.84242e-12 92190.1)
(1.69337e+06 -136382 4.21834e-11 -204529 -1.97124e-12 92020.1)
(1.6599e+06 -128368 4.27237e-11 -191161 -1.04254e-12 92202.1)
(1.63072e+06 -119634 4.43262e-11 -178002 7.48575e-13 92581.5)
(1.60547e+06 -110469 4.67426e-11 -165597 3.24331e-12 93064.9)
(1.58366e+06 -101079 4.97579e-11 -154454 6.3219e-12 93558.3)
(1.56493e+06 -91586.9 5.32365e-11 -144932 9.916e-12 93996.7)
(1.54894e+06 -82022.5 5.70968e-11 -137362 1.40128e-11 94317.8)
(1.53544e+06 -72337.8 6.13305e-11 -131999 1.86553e-11 94478.3)
(1.52413e+06 -62325.2 6.60104e-11 -129141 2.39871e-11 94425.7)
(1.51507e+06 -51752.8 7.12842e-11 -129020 3.0194e-11 94137)
(1.50772e+06 -39905.9 7.75067e-11 -132108 3.77582e-11 93533.9)
(1.50313e+06 -26694.6 8.48753e-11 -138660 4.68554e-11 92636)
(1.49947e+06 -9181.01 9.49259e-11 -149724 5.93949e-11 91257.6)
(2.16809e+06 -60674.3 1.58192e-10 -192026 8.66944e-11 118410)
(2.07873e+06 -69387.6 1.39372e-10 -209217 7.53736e-11 111587)
(2.00849e+06 -85598 1.1866e-10 -225986 6.06645e-11 105669)
(1.94108e+06 -93240.7 1.03962e-10 -233210 5.07548e-11 101256)
(1.88144e+06 -98615.6 9.20023e-11 -233385 4.21885e-11 98180.1)
(1.82683e+06 -101009 8.27561e-11 -228961 3.54858e-11 95996.2)
(1.77829e+06 -101055 7.59601e-11 -220641 3.03987e-11 94655.8)
(1.73477e+06 -99164.1 7.11576e-11 -210117 2.67611e-11 93880)
(1.69629e+06 -95706.7 6.80965e-11 -198251 2.44291e-11 93552.7)
(1.66224e+06 -91073.5 6.64167e-11 -186048 2.32095e-11 93507.1)
(1.63234e+06 -85566.7 6.58701e-11 -174177 2.29563e-11 93637.6)
(1.60615e+06 -79440.3 6.62153e-11 -163270 2.35355e-11 93835.9)
(1.58335e+06 -72868.4 6.7286e-11 -153811 2.4863e-11 94021.5)
(1.56358e+06 -65941.6 6.89602e-11 -146258 2.69004e-11 94115.1)
(1.54666e+06 -58673.9 7.11917e-11 -141002 2.96685e-11 94056.7)
(1.53223e+06 -50938.6 7.39948e-11 -138503 3.3274e-11 93770.1)
(1.5205e+06 -42572 7.74876e-11 -139166 3.78882e-11 93214.9)
(1.51079e+06 -33018.6 8.1899e-11 -143729 4.39073e-11 92269.7)
(1.50457e+06 -22215.8 8.7464e-11 -152683 5.15524e-11 90943.9)
(1.49941e+06 -7666.5 9.53393e-11 -167725 6.24653e-11 88931.1)
(2.1354e+06 8796.19 1.97468e-10 -165472 1.26779e-10 121209)
(2.06522e+06 -1270.86 1.80032e-10 -201460 1.1835e-10 112876)
(2.00065e+06 -21100.3 1.57869e-10 -218835 1.01798e-10 107112)
(1.93939e+06 -34086.8 1.40661e-10 -228617 8.91719e-11 102598)
(1.88416e+06 -44310.9 1.26269e-10 -230544 7.79746e-11 99445.9)
(1.83284e+06 -51551.4 1.14435e-10 -227733 6.85332e-11 97148.3)
(1.78648e+06 -56225.1 1.05033e-10 -220891 6.07428e-11 95659.9)
(1.74421e+06 -58752.2 9.76239e-11 -211664 5.44405e-11 94715.8)
(1.70622e+06 -59465.3 9.20053e-11 -200901 4.95208e-11 94210.6)
(1.67204e+06 -58734.8 8.78517e-11 -189609 4.58165e-11 93985.1)
(1.64156e+06 -56852.8 8.49439e-11 -178474 4.32034e-11 93939.8)
(1.61444e+06 -54079.4 8.30531e-11 -168165 4.15586e-11 93967.5)
(1.5905e+06 -50602.7 8.20188e-11 -159208 4.08022e-11 93987.6)
(1.56946e+06 -46549.6 8.17071e-11 -152122 4.08868e-11 93916.4)
(1.55121e+06 -41968.3 8.20612e-11 -147364 4.18255e-11 93689.4)
(1.53547e+06 -36819.3 8.3047e-11 -145492 4.36834e-11 93219.4)
(1.52254e+06 -30987.6 8.47652e-11 -147007 4.66196e-11 92458)
(1.51175e+06 -24125.4 8.73097e-11 -152798 5.09101e-11 91260.8)
(1.50487e+06 -16242.3 9.09108e-11 -163553 5.67778e-11 89626.9)
(1.49915e+06 -5593.91 9.62007e-11 -181214 6.53668e-11 87189.9)
(2.11071e+06 78480.1 2.38175e-10 -134009 1.67115e-10 125049)
(2.04605e+06 62563.2 2.17727e-10 -175829 1.55958e-10 116151)
(1.99136e+06 39150.5 1.94639e-10 -197384 1.38354e-10 110285)
(1.93491e+06 21851.9 1.75313e-10 -211677 1.23805e-10 105363)
(1.88408e+06 7536.52 1.589e-10 -217428 1.10717e-10 101876)
(1.83544e+06 -3852.61 1.44773e-10 -218053 9.91567e-11 99206.9)
(1.79106e+06 -12548.4 1.33067e-10 -214094 8.92066e-11 97384.6)
(1.74991e+06 -19005 1.23305e-10 -207298 8.06825e-11 96124.9)
(1.7125e+06 -23484.5 1.15371e-10 -198508 7.35511e-11 95339.3)
(1.67843e+06 -26337.8 1.08958e-10 -188798 6.76703e-11 94863.2)
(1.64772e+06 -27832.3 1.0388e-10 -178905 6.29499e-11 94597.7)
(1.62012e+06 -28224.9 9.99203e-11 -169567 5.92835e-11 94430.2)
(1.5955e+06 -27714 9.69204e-11 -161379 5.6599e-11 94274.7)
(1.57367e+06 -26454.9 9.47375e-11 -154937 5.48449e-11 94041.1)
(1.55456e+06 -24538.5 9.32918e-11 -150784 5.40199e-11 93655)
(1.53796e+06 -22005.9 9.25075e-11 -149551 5.41499e-11 93022.5)
(1.52422e+06 -18802.5 9.24493e-11 -151880 5.53748e-11 92077.6)
(1.5127e+06 -14838.2 9.30569e-11 -158655 5.78026e-11 90675.4)
(1.50539e+06 -10074 9.462e-11 -170658 6.17173e-11 88814)
(1.49909e+06 -3478.02 9.72471e-11 -190300 6.78075e-11 86033.3)
(2.06708e+06 132505 2.66258e-10 -107582 1.96085e-10 127069)
(2.01106e+06 116217 2.46689e-10 -154146 1.85959e-10 117979)
(1.96559e+06 91696 2.24167e-10 -178323 1.68703e-10 112217)
(1.91544e+06 72351.2 2.0439e-10 -195603 1.53678e-10 107192)
(1.87024e+06 55353.1 1.87044e-10 -203987 1.39596e-10 103605)
(1.82577e+06 40993.9 1.716e-10 -207058 1.26707e-10 100784)
(1.78474e+06 29132.6 1.58347e-10 -205301 1.15203e-10 98798.2)
(1.74609e+06 19450.9 1.46882e-10 -200470 1.04985e-10 97362.1)
(1.71055e+06 11752.7 1.37164e-10 -193397 9.6082e-11 96401)
(1.67779e+06 5750.32 1.28937e-10 -185165 8.84009e-11 95753.3)
(1.64795e+06 1212.79 1.22055e-10 -176524 8.18872e-11 95325.5)
(1.62085e+06 -2096.34 1.16324e-10 -168239 7.64583e-11 95005.6)
(1.59648e+06 -4372.19 1.116e-10 -160933 7.20548e-11 94708.6)