/*--------------------------------*- C++ -*----------------------------------*\
  =========                 |
  \\      /  F ield         | OpenFOAM: The Open Source CFD Toolbox
   \\    /   O peration     | Website:  https://openfoam.org
    \\  /    A nd           | Version:  9
     \\/     M anipulation  |
\*---------------------------------------------------------------------------*/
FoamFile
{
    format      ascii;
    class       volScalarField;
    location    "15";
    object      sigmaEq;
}
// * * * * * * * * * * * * * * * * * * * * * * * * * * * * * * * * * * * * * //

dimensions      [1 -1 -2 0 0 0 0];

internalField   nonuniform List<scalar> 
1000
(
2.58528e+06
2.46327e+06
2.42717e+06
2.43099e+06
2.42331e+06
2.40777e+06
2.38359e+06
2.35174e+06
2.31875e+06
2.27794e+06
3.02467e+06
2.76919e+06
2.64202e+06
2.58647e+06
2.53835e+06
2.49382e+06
2.44769e+06
2.39988e+06
2.3499e+06
2.30234e+06
3.44169e+06
3.06504e+06
2.84171e+06
2.71996e+06
2.62658e+06
2.54883e+06
2.4779e+06
2.41104e+06
2.34512e+06
2.28669e+06
3.85714e+06
3.34512e+06
3.025e+06
2.83247e+06
2.68997e+06
2.57588e+06
2.47817e+06
2.3914e+06
2.30973e+06
2.24061e+06
4.24381e+06
3.6051e+06
3.19292e+06
2.92532e+06
2.72968e+06
2.57656e+06
2.45053e+06
2.34306e+06
2.24634e+06
2.1662e+06
4.60655e+06
3.8499e+06
3.34215e+06
2.99817e+06
2.7468e+06
2.55339e+06
2.39861e+06
2.27061e+06
2.15965e+06
2.0686e+06
4.88426e+06
4.06092e+06
3.45317e+06
3.03773e+06
2.73358e+06
2.50355e+06
2.32327e+06
2.17749e+06
2.05485e+06
1.95409e+06
5.17204e+06
4.23056e+06
3.52171e+06
3.04103e+06
2.69248e+06
2.43368e+06
2.23469e+06
2.07656e+06
1.94658e+06
1.83896e+06
5.39157e+06
4.29895e+06
3.50016e+06
2.96848e+06
2.60352e+06
2.33636e+06
2.13412e+06
1.9739e+06
1.8434e+06
1.73324e+06
5.74964e+06
4.22037e+06
3.3853e+06
2.86593e+06
2.52048e+06
2.26651e+06
2.07272e+06
1.91695e+06
1.78903e+06
1.67821e+06
10202.8
19136.6
87877.4
184980
292796
404619
513532
617498
713483
803957
22431.8
126424
266644
404027
527340
637719
734925
823959
901066
974157
101133
296258
473581
631696
764566
876415
969559
1.04866e+06
1.1113e+06
1.17151e+06
237594
505187
704765
870961
1.00544e+06
1.11487e+06
1.20077e+06
1.27042e+06
1.32096e+06
1.37078e+06
434123
742794
953719
1.12145e+06
1.25081e+06
1.35101e+06
1.42626e+06
1.48464e+06
1.52291e+06
1.56228e+06
690104
999667
1.20882e+06
1.37307e+06
1.49089e+06
1.57829e+06
1.64051e+06
1.68603e+06
1.71171e+06
1.74007e+06
999340
1.27167e+06
1.46676e+06
1.61743e+06
1.71957e+06
1.79146e+06
1.8389e+06
1.87035e+06
1.88325e+06
1.89983e+06
1.35433e+06
1.55594e+06
1.71981e+06
1.84812e+06
1.93036e+06
1.98443e+06
2.01601e+06
2.03268e+06
2.0335e+06
2.03746e+06
1.74381e+06
1.85282e+06
1.96525e+06
2.06179e+06
2.11943e+06
2.15325e+06
2.16769e+06
2.16904e+06
2.15817e+06
2.15017e+06
2.15912e+06
2.15634e+06
2.20107e+06
2.25593e+06
2.28352e+06
2.29389e+06
2.2896e+06
2.2742e+06
2.25437e+06
2.22923e+06
885238
955588
1.02069e+06
1.07948e+06
1.13264e+06
1.18041e+06
1.2233e+06
1.2616e+06
1.29571e+06
1.3259e+06
1.35244e+06
1.37552e+06
1.39528e+06
1.41184e+06
1.42522e+06
1.43551e+06
1.44266e+06
1.44694e+06
1.44829e+06
1.44766e+06
1.03072e+06
1.07323e+06
1.11594e+06
1.15531e+06
1.19227e+06
1.22639e+06
1.25789e+06
1.28668e+06
1.31294e+06
1.33666e+06
1.35798e+06
1.37696e+06
1.39367e+06
1.40818e+06
1.4205e+06
1.43068e+06
1.43861e+06
1.4443e+06
1.44716e+06
1.44707e+06
1.20601e+06
1.222e+06
1.24194e+06
1.26056e+06
1.2795e+06
1.29786e+06
1.31588e+06
1.33309e+06
1.34958e+06
1.36509e+06
1.37965e+06
1.39314e+06
1.40556e+06
1.41686e+06
1.42697e+06
1.43583e+06
1.44313e+06
1.44862e+06
1.45104e+06
1.44997e+06
1.38663e+06
1.3798e+06
1.37968e+06
1.37943e+06
1.3814e+06
1.38436e+06
1.38883e+06
1.39406e+06
1.40018e+06
1.40674e+06
1.41372e+06
1.42085e+06
1.42804e+06
1.43514e+06
1.44196e+06
1.44832e+06
1.45374e+06
1.45784e+06
1.45909e+06
1.45716e+06
1.56159e+06
1.53542e+06
1.51794e+06
1.50117e+06
1.48806e+06
1.47689e+06
1.46868e+06
1.46236e+06
1.45827e+06
1.45579e+06
1.4549e+06
1.45525e+06
1.4567e+06
1.45899e+06
1.46187e+06
1.46505e+06
1.46798e+06
1.47022e+06
1.47027e+06
1.46789e+06
1.72458e+06
1.68219e+06
1.6501e+06
1.61909e+06
1.59306e+06
1.56939e+06
1.54988e+06
1.53301e+06
1.51939e+06
1.50827e+06
1.49968e+06
1.49323e+06
1.48874e+06
1.48593e+06
1.48449e+06
1.48413e+06
1.48429e+06
1.48456e+06
1.48372e+06
1.48153e+06
1.87136e+06
1.81581e+06
1.77228e+06
1.72919e+06
1.69257e+06
1.65807e+06
1.62861e+06
1.60225e+06
1.57987e+06
1.56071e+06
1.54482e+06
1.53182e+06
1.52152e+06
1.51363e+06
1.50786e+06
1.5039e+06
1.50132e+06
1.49973e+06
1.49839e+06
1.49694e+06
1.99816e+06
1.93235e+06
1.88115e+06
1.82789e+06
1.78304e+06
1.73984e+06
1.70218e+06
1.66786e+06
1.63783e+06
1.61146e+06
1.58881e+06
1.56961e+06
1.55369e+06
1.5408e+06
1.53074e+06
1.52322e+06
1.51799e+06
1.51471e+06
1.51325e+06
1.51304e+06
2.10458e+06
2.02927e+06
1.97591e+06
1.91523e+06
1.86362e+06
1.81327e+06
1.76831e+06
1.72709e+06
1.69035e+06
1.65767e+06
1.62908e+06
1.60435e+06
1.58337e+06
1.56594e+06
1.55192e+06
1.5411e+06
1.53347e+06
1.52873e+06
1.52743e+06
1.52876e+06
2.1867e+06
2.10713e+06
2.05368e+06
1.99203e+06
1.93626e+06
1.88184e+06
1.83116e+06
1.78408e+06
1.74116e+06
1.70241e+06
1.66796e+06
1.63772e+06
1.61163e+06
1.58958e+06
1.57153e+06
1.55735e+06
1.54725e+06
1.54101e+06
1.53992e+06
1.54297e+06
2.22371e+06
2.14897e+06
2.09375e+06
2.03427e+06
1.97747e+06
1.92209e+06
1.86963e+06
1.82023e+06
1.77456e+06
1.73278e+06
1.69511e+06
1.66161e+06
1.63234e+06
1.60728e+06
1.58653e+06
1.57004e+06
1.55828e+06
1.5511e+06
1.55034e+06
1.55484e+06
2.17182e+06
2.127e+06
2.07612e+06
2.0237e+06
1.97203e+06
1.92094e+06
1.87185e+06
1.82495e+06
1.78101e+06
1.74028e+06
1.70312e+06
1.6697e+06
1.6402e+06
1.61471e+06
1.59346e+06
1.57653e+06
1.56455e+06
1.55749e+06
1.5576e+06
1.56356e+06
2.13139e+06
2.09404e+06
2.0534e+06
2.0073e+06
1.96149e+06
1.9147e+06
1.86911e+06
1.82481e+06
1.78281e+06
1.7434e+06
1.70708e+06
1.67409e+06
1.64473e+06
1.61919e+06
1.59778e+06
1.58071e+06
1.56875e+06
1.5619e+06
1.56266e+06
1.56959e+06
2.08005e+06
2.05268e+06
2.02067e+06
1.98108e+06
1.94118e+06
1.89905e+06
1.85745e+06
1.81637e+06
1.77698e+06
1.73962e+06
1.70488e+06
1.67308e+06
1.64458e+06
1.61966e+06
1.59869e+06
1.582e+06
1.57031e+06
1.5639e+06
1.56538e+06
1.57286e+06
2.02039e+06
2.00135e+06
1.97764e+06
1.94499e+06
1.91145e+06
1.87461e+06
1.83763e+06
1.80041e+06
1.76429e+06
1.72964e+06
1.69714e+06
1.66716e+06
1.64013e+06
1.61638e+06
1.59629e+06
1.58039e+06
1.56898e+06
1.56371e+06
1.56303e+06
1.57333e+06
1.95565e+06
1.94429e+06
1.92813e+06
1.90218e+06
1.87477e+06
1.84332e+06
1.81114e+06
1.77812e+06
1.74567e+06
1.71421e+06
1.68446e+06
1.65684e+06
1.63182e+06
1.60975e+06
1.59112e+06
1.57624e+06
1.56604e+06
1.56074e+06
1.56254e+06
1.56984e+06
1.88734e+06
1.88263e+06
1.87319e+06
1.85362e+06
1.83213e+06
1.8061e+06
1.77886e+06
1.75029e+06
1.72184e+06
1.69395e+06
1.66737e+06
1.64254e+06
1.61997e+06
1.60001e+06
1.58314e+06
1.56968e+06
1.56049e+06
1.55558e+06
1.55724e+06
1.5641e+06
1.81688e+06
1.81792e+06
1.81445e+06
1.80078e+06
1.78484e+06
1.76409e+06
1.74177e+06
1.71776e+06
1.69351e+06
1.66946e+06
1.64638e+06
1.6247e+06
1.60494e+06
1.58743e+06
1.57266e+06
1.56087e+06
1.55283e+06
1.54855e+06
1.55e+06
1.55591e+06
1.74503e+06
1.75092e+06
1.75264e+06
1.74439e+06
1.73363e+06
1.71799e+06
1.70052e+06
1.68114e+06
1.66124e+06
1.64124e+06
1.62192e+06
1.60369e+06
1.58704e+06
1.57231e+06
1.55991e+06
1.55004e+06
1.54334e+06
1.53975e+06
1.5409e+06
1.54567e+06
1.67219e+06
1.68215e+06
1.68841e+06
1.68508e+06
1.67915e+06
1.66843e+06
1.65573e+06
1.641e+06
1.62555e+06
1.60978e+06
1.59442e+06
1.57988e+06
1.56662e+06
1.55493e+06
1.54515e+06
1.53745e+06
1.53228e+06
1.52952e+06
1.53036e+06
1.53382e+06
1.59837e+06
1.61176e+06
1.62197e+06
1.62316e+06
1.62179e+06
1.61584e+06
1.60786e+06
1.59782e+06
1.58691e+06
1.57553e+06
1.56433e+06
1.55369e+06
1.54403e+06
1.5356e+06
1.52869e+06
1.52337e+06
1.51993e+06
1.51817e+06
1.51877e+06
1.52092e+06
1.52331e+06
1.53965e+06
1.5534e+06
1.55883e+06
1.56184e+06
1.56057e+06
1.55733e+06
1.55205e+06
1.54582e+06
1.53897e+06
1.53211e+06
1.52556e+06
1.5197e+06
1.51473e+06
1.51087e+06
1.50814e+06
1.50663e+06
1.50607e+06
1.5066e+06
1.50755e+06
1.44647e+06
1.46548e+06
1.48255e+06
1.4921e+06
1.49947e+06
1.50294e+06
1.50454e+06
1.50418e+06
1.50279e+06
1.50067e+06
1.49833e+06
1.49606e+06
1.49416e+06
1.49281e+06
1.49216e+06
1.49217e+06
1.49277e+06
1.49362e+06
1.49432e+06
1.49429e+06
1.36719e+06
1.38886e+06
1.40923e+06
1.423e+06
1.43489e+06
1.44331e+06
1.44998e+06
1.45478e+06
1.45849e+06
1.46133e+06
1.46371e+06
1.46588e+06
1.46808e+06
1.47046e+06
1.4731e+06
1.47596e+06
1.47882e+06
1.48127e+06
1.48243e+06
1.48174e+06
1.28456e+06
1.30918e+06
1.33316e+06
1.35153e+06
1.36833e+06
1.38211e+06
1.39425e+06
1.40459e+06
1.41374e+06
1.42182e+06
1.42916e+06
1.43594e+06
1.44235e+06
1.44851e+06
1.45447e+06
1.46018e+06
1.46533e+06
1.4695e+06
1.47143e+06
1.4705e+06
1.19792e+06
1.2262e+06
1.2544e+06
1.27805e+06
1.30041e+06
1.32015e+06
1.33831e+06
1.35467e+06
1.36966e+06
1.38331e+06
1.39585e+06
1.40739e+06
1.41808e+06
1.428e+06
1.4372e+06
1.44562e+06
1.45299e+06
1.45885e+06
1.46181e+06
1.46105e+06
1.10634e+06
1.13949e+06
1.17303e+06
1.20304e+06
1.23192e+06
1.25848e+06
1.2834e+06
1.3064e+06
1.3277e+06
1.34729e+06
1.36529e+06
1.38173e+06
1.39672e+06
1.41032e+06
1.42257e+06
1.43344e+06
1.44272e+06
1.45003e+06
1.45408e+06
1.45389e+06
1.01045e+06
1.05024e+06
1.0906e+06
1.12832e+06
1.16487e+06
1.19919e+06
1.23161e+06
1.26181e+06
1.28986e+06
1.31566e+06
1.33926e+06
1.36065e+06
1.37989e+06
1.39699e+06
1.41199e+06
1.4249e+06
1.4356e+06
1.44385e+06
1.44872e+06
1.44924e+06
910509
959560
1.00891e+06
1.0561e+06
1.10172e+06
1.14486e+06
1.18558e+06
1.22353e+06
1.25868e+06
1.29091e+06
1.32021e+06
1.34656e+06
1.36995e+06
1.39038e+06
1.40782e+06
1.42225e+06
1.43358e+06
1.4418e+06
1.44648e+06
1.44736e+06
813363
874220
934389
992230
1.04774e+06
1.10012e+06
1.1493e+06
1.19495e+06
1.23702e+06
1.27542e+06
1.31013e+06
1.34113e+06
1.36838e+06
1.39184e+06
1.41138e+06
1.42692e+06
1.43821e+06
1.44537e+06
1.4482e+06
1.4479e+06
1.58461e+06
1.6381e+06
1.73987e+06
1.85376e+06
1.97034e+06
2.07263e+06
2.15363e+06
2.20763e+06
2.23523e+06
2.2296e+06
1.49856e+06
1.54901e+06
1.6446e+06
1.75472e+06
1.87231e+06
1.98136e+06
2.07465e+06
2.1441e+06
2.18806e+06
2.19583e+06
1.421e+06
1.46901e+06
1.55832e+06
1.662e+06
1.77495e+06
1.88244e+06
1.97851e+06
2.05662e+06
2.11583e+06
2.14931e+06
1.34993e+06
1.39648e+06
1.4811e+06
1.57968e+06
1.68898e+06
1.79524e+06
1.89251e+06
1.97462e+06
2.03859e+06
2.08667e+06
1.28324e+06
1.32858e+06
1.40882e+06
1.50197e+06
1.60643e+06
1.7098e+06
1.80668e+06
1.89236e+06
1.96055e+06
2.01865e+06
1.22056e+06
1.26516e+06
1.34198e+06
1.4305e+06
1.53037e+06
1.63028e+06
1.72492e+06
1.81128e+06
1.88063e+06
1.9453e+06
1.16062e+06
1.20463e+06
1.27846e+06
1.36268e+06
1.45803e+06
1.55432e+06
1.64633e+06
1.73255e+06
1.80204e+06
1.86991e+06
1.10314e+06
1.14669e+06
1.21799e+06
1.2984e+06
1.38945e+06
1.48189e+06
1.57064e+06
1.65548e+06
1.72433e+06
1.79353e+06
1.04774e+06
1.09059e+06
1.1596e+06
1.2365e+06
1.3235e+06
1.41211e+06
1.4975e+06
1.5803e+06
1.64801e+06
1.71703e+06
994828
1.03607e+06
1.1029e+06
1.17648e+06
1.25955e+06
1.34427e+06
1.42615e+06
1.50635e+06
1.57263e+06
1.64062e+06
943437
982847
1.04741e+06
1.11765e+06
1.19683e+06
1.27759e+06
1.3559e+06
1.43314e+06
1.49776e+06
1.56414e+06
893663
930862
992821
1.0595e+06
1.13461e+06
1.21122e+06
1.28584e+06
1.35984e+06
1.42263e+06
1.48712e+06
845848
880834
938865
1.00139e+06
1.07201e+06
1.14417e+06
1.21492e+06
1.28548e+06
1.34634e+06
1.4088e+06
800667
832529
885310
942714
1.00813e+06
1.07536e+06
1.14198e+06
1.20894e+06
1.26781e+06
1.32826e+06
759486
786353
831717
882345
941424
1.00312e+06
1.06535e+06
1.12865e+06
1.18563e+06
1.2443e+06
724257
742561
777444
819100
870461
925919
983523
1.04323e+06
1.0986e+06
1.1559e+06
698894
701877
720779
749442
791471
840273
893466
950152
1.00471e+06
1.06156e+06
685978
660694
657384
671545
702670
744551
794012
848701
903704
961417
695995
613570
575401
572551
595138
632549
680282
735252
793455
854611
699645
526353
467108
449957
468947
506188
557017
616330
680154
747776
)
;

boundaryField
{
    left
    {
        type            calculated;
        value           nonuniform List<scalar> 
30
(
1.5713e+06
1.48548e+06
1.4081e+06
1.3371e+06
1.27052e+06
1.208e+06
1.14835e+06
1.09131e+06
1.03669e+06
984683
934504
886305
840481
797803
759744
728889
710301
712702
762397
877984
6.0736e+06
4.11714e+06
3.27416e+06
2.79981e+06
2.48246e+06
2.24317e+06
2.05649e+06
1.90369e+06
1.77693e+06
1.66551e+06
)
;
    }
    right
    {
        type            calculated;
        value           nonuniform List<scalar> 
30
(
1.44736e+06
1.44708e+06
1.44981e+06
1.45689e+06
1.46757e+06
1.48123e+06
1.49671e+06
1.51293e+06
1.52879e+06
1.54321e+06
1.55515e+06
1.56409e+06
1.57018e+06
1.5735e+06
1.5735e+06
1.5704e+06
1.56471e+06
1.55644e+06
1.5461e+06
1.53413e+06
1.52111e+06
1.50762e+06
1.49427e+06
1.48165e+06
1.47037e+06
1.46093e+06
1.45382e+06
1.44924e+06
1.44743e+06
1.44756e+06
)
;
    }
    down
    {
        type            calculated;
        value           nonuniform List<scalar> 
30
(
7740.64
5655.25
65518.1
160626
270150
384610
496417
603019
701058
793464
876693
949222
1.01585e+06
1.07577e+06
1.12982e+06
1.17825e+06
1.22167e+06
1.26037e+06
1.29481e+06
1.32524e+06
1.35198e+06
1.37521e+06
1.39509e+06
1.41173e+06
1.42517e+06
1.43549e+06
1.44265e+06
1.44692e+06
1.44829e+06
1.44781e+06
)
;
    }
    up
    {
        type            calculated;
        value           nonuniform List<scalar> 
30
(
678067
520169
465254
448342
466941
503683
554151
613269
676997
744692
810413
871587
932126
990278
1.0461e+06
1.09875e+06
1.14819e+06
1.19405e+06
1.23633e+06
1.27489e+06
1.30975e+06
1.34087e+06
1.36822e+06
1.39176e+06
1.41136e+06
1.42693e+06
1.43824e+06
1.44539e+06
1.44819e+06
1.44799e+06
)
;
    }
    hole
    {
        type            calculated;
        value           nonuniform List<scalar> 
20
(
2.48744e+06
2.81827e+06
3.23083e+06
3.72287e+06
4.21903e+06
4.53572e+06
4.86012e+06
5.22549e+06
4.98168e+06
4.86673e+06
3696.54
3622.05
50792.5
173615
364915
622852
938421
1.30285e+06
1.70356e+06
2.13115e+06
)
;
    }
    frontAndBack
    {
        type            empty;
    }
}


// ************************************************************************* //
