/*--------------------------------*- C++ -*----------------------------------*\
  =========                 |
  \\      /  F ield         | OpenFOAM: The Open Source CFD Toolbox
   \\    /   O peration     | Website:  https://openfoam.org
    \\  /    A nd           | Version:  9
     \\/     M anipulation  |
\*---------------------------------------------------------------------------*/
FoamFile
{
    format      ascii;
    class       volVectorField;
    location    "1";
    object      D;
}
// * * * * * * * * * * * * * * * * * * * * * * * * * * * * * * * * * * * * * //

dimensions      [0 1 0 0 0 0 0];

internalField   nonuniform List<vector> 
1000
(
(6.76306e-07 2.28385e-07 0)
(6.31091e-07 2.52098e-07 0)
(5.982e-07 2.72063e-07 0)
(5.74432e-07 2.87666e-07 0)
(5.57472e-07 3.01137e-07 0)
(5.45505e-07 3.12726e-07 0)
(5.37404e-07 3.23169e-07 0)
(5.32261e-07 3.32677e-07 0)
(5.29361e-07 3.41547e-07 0)
(5.28341e-07 3.49954e-07 0)
(6.09475e-07 2.05968e-07 0)
(5.62525e-07 2.23188e-07 0)
(5.28599e-07 2.38298e-07 0)
(5.04189e-07 2.4996e-07 0)
(4.86792e-07 2.60206e-07 0)
(4.74475e-07 2.69013e-07 0)
(4.66034e-07 2.77001e-07 0)
(4.60509e-07 2.84303e-07 0)
(4.57167e-07 2.91075e-07 0)
(4.55514e-07 2.97681e-07 0)
(5.41222e-07 1.83501e-07 0)
(4.9384e-07 1.93804e-07 0)
(4.59803e-07 2.03857e-07 0)
(4.35443e-07 2.11531e-07 0)
(4.18138e-07 2.18604e-07 0)
(4.05883e-07 2.24744e-07 0)
(3.97427e-07 2.30435e-07 0)
(3.9179e-07 2.35703e-07 0)
(3.88233e-07 2.40577e-07 0)
(3.86237e-07 2.45461e-07 0)
(4.71892e-07 1.61341e-07 0)
(4.25441e-07 1.64577e-07 0)
(3.92282e-07 1.69556e-07 0)
(3.68716e-07 1.73323e-07 0)
(3.52075e-07 1.77378e-07 0)
(3.40329e-07 1.8104e-07 0)
(3.32219e-07 1.84649e-07 0)
(3.26758e-07 1.88095e-07 0)
(3.23249e-07 1.91308e-07 0)
(3.21125e-07 1.94654e-07 0)
(4.01655e-07 1.39818e-07 0)
(3.5754e-07 1.36119e-07 0)
(3.26295e-07 1.36226e-07 0)
(3.04327e-07 1.36341e-07 0)
(2.88961e-07 1.37668e-07 0)
(2.78195e-07 1.39157e-07 0)
(2.70792e-07 1.40993e-07 0)
(2.65788e-07 1.42908e-07 0)
(2.62548e-07 1.44752e-07 0)
(2.60487e-07 1.46798e-07 0)
(3.30812e-07 1.1908e-07 0)
(2.90327e-07 1.08863e-07 0)
(2.62061e-07 1.04568e-07 0)
(2.42528e-07 1.01492e-07 0)
(2.29069e-07 1.00555e-07 0)
(2.19752e-07 1.00303e-07 0)
(2.13402e-07 1.0077e-07 0)
(2.09114e-07 1.01523e-07 0)
(2.06334e-07 1.02349e-07 0)
(2.04492e-07 1.03406e-07 0)
(2.59088e-07 9.91079e-08 0)
(2.23644e-07 8.30939e-08 0)
(1.99508e-07 7.52065e-08 0)
(1.83306e-07 6.9695e-08 0)
(1.72404e-07 6.71656e-08 0)
(1.64988e-07 6.57512e-08 0)
(1.60002e-07 6.53406e-08 0)
(1.56645e-07 6.53549e-08 0)
(1.5447e-07 6.55459e-08 0)
(1.52967e-07 6.59536e-08 0)
(1.86986e-07 7.93316e-08 0)
(1.57761e-07 5.87067e-08 0)
(1.38998e-07 4.86247e-08 0)
(1.26992e-07 4.1847e-08 0)
(1.19194e-07 3.86522e-08 0)
(1.13998e-07 3.6803e-08 0)
(1.10564e-07 3.60772e-08 0)
(1.08253e-07 3.58082e-08 0)
(1.06752e-07 3.57507e-08 0)
(1.05663e-07 3.58562e-08 0)
(1.12881e-07 5.78007e-08 0)
(9.22234e-08 3.49923e-08 0)
(8.03439e-08 2.50886e-08 0)
(7.32921e-08 1.89123e-08 0)
(6.90129e-08 1.62513e-08 0)
(6.62097e-08 1.4772e-08 0)
(6.4397e-08 1.42452e-08 0)
(6.31541e-08 1.40565e-08 0)
(6.23338e-08 1.40266e-08 0)
(6.16858e-08 1.40794e-08 0)
(3.89124e-08 3.02204e-08 0)
(2.93223e-08 1.28758e-08 0)
(2.56638e-08 6.77834e-09 0)
(2.37297e-08 3.70795e-09 0)
(2.26062e-08 2.6464e-09 0)
(2.18207e-08 2.16266e-09 0)
(2.13065e-08 2.08959e-09 0)
(2.09285e-08 2.12299e-09 0)
(2.06693e-08 2.19469e-09 0)
(2.04399e-08 2.2747e-09 0)
(1.19275e-06 3.70007e-07 0)
(1.19078e-06 4.15851e-07 0)
(1.18941e-06 4.5857e-07 0)
(1.18946e-06 4.97685e-07 0)
(1.19124e-06 5.33597e-07 0)
(1.19491e-06 5.6675e-07 0)
(1.20048e-06 5.97661e-07 0)
(1.20783e-06 6.26776e-07 0)
(1.21689e-06 6.54448e-07 0)
(1.22745e-06 6.81071e-07 0)
(1.15532e-06 3.66917e-07 0)
(1.15002e-06 4.12622e-07 0)
(1.1464e-06 4.54815e-07 0)
(1.1448e-06 4.93137e-07 0)
(1.14538e-06 5.28081e-07 0)
(1.14805e-06 5.6012e-07 0)
(1.15271e-06 5.8982e-07 0)
(1.15915e-06 6.17654e-07 0)
(1.16727e-06 6.4399e-07 0)
(1.17677e-06 6.69276e-07 0)
(1.11563e-06 3.60713e-07 0)
(1.10638e-06 4.06294e-07 0)
(1.0997e-06 4.47621e-07 0)
(1.09568e-06 4.84701e-07 0)
(1.09435e-06 5.18283e-07 0)
(1.09541e-06 5.48904e-07 0)
(1.09866e-06 5.77171e-07 0)
(1.10378e-06 6.03564e-07 0)
(1.11063e-06 6.28465e-07 0)
(1.1188e-06 6.52334e-07 0)
(1.07274e-06 3.51722e-07 0)
(1.05906e-06 3.97076e-07 0)
(1.04882e-06 4.37345e-07 0)
(1.04193e-06 4.72909e-07 0)
(1.03826e-06 5.04852e-07 0)
(1.03733e-06 5.33794e-07 0)
(1.03884e-06 5.60398e-07 0)
(1.04236e-06 5.85147e-07 0)
(1.04773e-06 6.08438e-07 0)
(1.0544e-06 6.30727e-07 0)
(1.02616e-06 3.40029e-07 0)
(1.00762e-06 3.84795e-07 0)
(9.93571e-07 4.23673e-07 0)
(9.83661e-07 4.57371e-07 0)
(9.77516e-07 4.87357e-07 0)
(9.74478e-07 5.14333e-07 0)
(9.74152e-07 5.39026e-07 0)
(9.75991e-07 5.61918e-07 0)
(9.79818e-07 5.83427e-07 0)
(9.84957e-07 6.03977e-07 0)
(9.75825e-07 3.25904e-07 0)
(9.52153e-07 3.69464e-07 0)
(9.34214e-07 4.06549e-07 0)
(9.21288e-07 4.38065e-07 0)
(9.12691e-07 4.6583e-07 0)
(9.07579e-07 4.90605e-07 0)
(9.05442e-07 5.13185e-07 0)
(9.05639e-07 5.34035e-07 0)
(9.07952e-07 5.53603e-07 0)
(9.11607e-07 5.72259e-07 0)
(9.2186e-07 3.0956e-07 0)
(8.92985e-07 3.51085e-07 0)
(8.71243e-07 3.85868e-07 0)
(8.5544e-07 4.14852e-07 0)
(8.44543e-07 4.40141e-07 0)
(8.37506e-07 4.62511e-07 0)
(8.33694e-07 4.82807e-07 0)
(8.32377e-07 5.01472e-07 0)
(8.33286e-07 5.18971e-07 0)
(8.35584e-07 5.35614e-07 0)
(8.64548e-07 2.91302e-07 0)
(8.30648e-07 3.29828e-07 0)
(8.05349e-07 3.61745e-07 0)
(7.86919e-07 3.87852e-07 0)
(7.73964e-07 4.10441e-07 0)
(7.65224e-07 4.30245e-07 0)
(7.59935e-07 4.48138e-07 0)
(7.57291e-07 4.64512e-07 0)
(7.56957e-07 4.79858e-07 0)
(7.58077e-07 4.94384e-07 0)
(8.04248e-07 2.71442e-07 0)
(7.65777e-07 3.0596e-07 0)
(7.37331e-07 3.34423e-07 0)
(7.16634e-07 3.57314e-07 0)
(7.0194e-07 3.77004e-07 0)
(6.91781e-07 3.94123e-07 0)
(6.8526e-07 4.09533e-07 0)
(6.81516e-07 4.23574e-07 0)
(6.80117e-07 4.36705e-07 0)
(6.80275e-07 4.49088e-07 0)
(7.41364e-07 2.50341e-07 0)
(6.99039e-07 2.79882e-07 0)
(6.68012e-07 3.04336e-07 0)
(6.45503e-07 3.23706e-07 0)
(6.29451e-07 3.40341e-07 0)
(6.18195e-07 3.54703e-07 0)
(6.10722e-07 3.67615e-07 0)
(6.06126e-07 3.79321e-07 0)
(6.03877e-07 3.90273e-07 0)
(6.03352e-07 4.00374e-07 0)
(1.24007e-06 7.06683e-07 0)
(1.25456e-06 7.32104e-07 0)
(1.27016e-06 7.57118e-07 0)
(1.28675e-06 7.81844e-07 0)
(1.30424e-06 8.06406e-07 0)
(1.32253e-06 8.30876e-07 0)
(1.34155e-06 8.55339e-07 0)
(1.3612e-06 8.79848e-07 0)
(1.38144e-06 9.0446e-07 0)
(1.40218e-06 9.29215e-07 0)
(1.42338e-06 9.54153e-07 0)
(1.44496e-06 9.79304e-07 0)
(1.46689e-06 1.00469e-06 0)
(1.4891e-06 1.03034e-06 0)
(1.51156e-06 1.05627e-06 0)
(1.5342e-06 1.08247e-06 0)
(1.55698e-06 1.10896e-06 0)
(1.57985e-06 1.1357e-06 0)
(1.60276e-06 1.16265e-06 0)
(1.62568e-06 1.18973e-06 0)
(1.18992e-06 6.93919e-07 0)
(1.2062e-06 7.18918e-07 0)
(1.22335e-06 7.43536e-07 0)
(1.24123e-06 7.6791e-07 0)
(1.25982e-06 7.92174e-07 0)
(1.27903e-06 8.16391e-07 0)
(1.29883e-06 8.40648e-07 0)
(1.31913e-06 8.64993e-07 0)
(1.33991e-06 8.89483e-07 0)
(1.36111e-06 9.14155e-07 0)
(1.38269e-06 9.39047e-07 0)
(1.4046e-06 9.64187e-07 0)
(1.42681e-06 9.896e-07 0)
(1.44928e-06 1.01531e-06 0)
(1.47197e-06 1.04132e-06 0)
(1.49484e-06 1.06765e-06 0)
(1.51787e-06 1.09429e-06 0)
(1.541e-06 1.12122e-06 0)
(1.56422e-06 1.14839e-06 0)
(1.58746e-06 1.17574e-06 0)
(1.13268e-06 6.76246e-07 0)
(1.15126e-06 7.01291e-07 0)
(1.17047e-06 7.25965e-07 0)
(1.19013e-06 7.50388e-07 0)
(1.21029e-06 7.74719e-07 0)
(1.23086e-06 7.99009e-07 0)
(1.25185e-06 8.23356e-07 0)
(1.2732e-06 8.47806e-07 0)
(1.2949e-06 8.72419e-07 0)
(1.31692e-06 8.97231e-07 0)
(1.33922e-06 9.22282e-07 0)
(1.36179e-06 9.476e-07 0)
(1.38459e-06 9.73213e-07 0)
(1.40761e-06 9.99141e-07 0)
(1.43082e-06 1.0254e-06 0)
(1.4542e-06 1.052e-06 0)
(1.47772e-06 1.07894e-06 0)
(1.50135e-06 1.10622e-06 0)
(1.52508e-06 1.13381e-06 0)
(1.54882e-06 1.16168e-06 0)
(1.06919e-06 6.54051e-07 0)
(1.09051e-06 6.79501e-07 0)
(1.11221e-06 7.04597e-07 0)
(1.13407e-06 7.29394e-07 0)
(1.1562e-06 7.54098e-07 0)
(1.17852e-06 7.78738e-07 0)
(1.20107e-06 8.03433e-07 0)
(1.22382e-06 8.28226e-07 0)
(1.24677e-06 8.53181e-07 0)
(1.26992e-06 8.78339e-07 0)
(1.29325e-06 9.03741e-07 0)
(1.31675e-06 9.29419e-07 0)
(1.34042e-06 9.55402e-07 0)
(1.36424e-06 9.81714e-07 0)
(1.38821e-06 1.00838e-06 0)
(1.41231e-06 1.0354e-06 0)
(1.43653e-06 1.06281e-06 0)
(1.46085e-06 1.0906e-06 0)
(1.48524e-06 1.11879e-06 0)
(1.50965e-06 1.14734e-06 0)
(1.00084e-06 6.26912e-07 0)
(1.02521e-06 6.53178e-07 0)
(1.04975e-06 6.79111e-07 0)
(1.0741e-06 7.04649e-07 0)
(1.09851e-06 7.30071e-07 0)
(1.12287e-06 7.55378e-07 0)
(1.14727e-06 7.8071e-07 0)
(1.17168e-06 8.0611e-07 0)
(1.19615e-06 8.31653e-07 0)
(1.22066e-06 8.57382e-07 0)
(1.24524e-06 8.83345e-07 0)
(1.2699e-06 9.09577e-07 0)
(1.29463e-06 9.36113e-07 0)
(1.31945e-06 9.62981e-07 0)
(1.34435e-06 9.90209e-07 0)
(1.36934e-06 1.01782e-06 0)
(1.39441e-06 1.04584e-06 0)
(1.41955e-06 1.0743e-06 0)
(1.44475e-06 1.10322e-06 0)
(1.46995e-06 1.13263e-06 0)
(9.28726e-07 5.94987e-07 0)
(9.56386e-07 6.2245e-07 0)
(9.84006e-07 6.49608e-07 0)
(1.01109e-06 6.76236e-07 0)
(1.03802e-06 7.02698e-07 0)
(1.06463e-06 7.28973e-07 0)
(1.0911e-06 7.5522e-07 0)
(1.11738e-06 7.81486e-07 0)
(1.14355e-06 8.07855e-07 0)
(1.16963e-06 8.34378e-07 0)
(1.19565e-06 8.61108e-07 0)
(1.22162e-06 8.88087e-07 0)
(1.24758e-06 9.15355e-07 0)
(1.27354e-06 9.42947e-07 0)
(1.29951e-06 9.70899e-07 0)
(1.32551e-06 9.99244e-07 0)
(1.35155e-06 1.02802e-06 0)
(1.37762e-06 1.05727e-06 0)
(1.40372e-06 1.08706e-06 0)
(1.42981e-06 1.11741e-06 0)
(8.54051e-07 5.58336e-07 0)
(8.85118e-07 5.87381e-07 0)
(9.1597e-07 6.1614e-07 0)
(9.45937e-07 6.44212e-07 0)
(9.75525e-07 6.72031e-07 0)
(1.00456e-06 6.99572e-07 0)
(1.03324e-06 7.27004e-07 0)
(1.06154e-06 7.54391e-07 0)
(1.08957e-06 7.81821e-07 0)
(1.11735e-06 8.09358e-07 0)
(1.14492e-06 8.3706e-07 0)
(1.17234e-06 8.64978e-07 0)
(1.19964e-06 8.93158e-07 0)
(1.22684e-06 9.21642e-07 0)
(1.25398e-06 9.50473e-07 0)
(1.28108e-06 9.79693e-07 0)
(1.30816e-06 1.00935e-06 0)
(1.33524e-06 1.03951e-06 0)
(1.36232e-06 1.07025e-06 0)
(1.38939e-06 1.10162e-06 0)
(7.77933e-07 5.17286e-07 0)
(8.12417e-07 5.48275e-07 0)
(8.46539e-07 5.78937e-07 0)
(8.79459e-07 6.08779e-07 0)
(9.11778e-07 6.38241e-07 0)
(9.43325e-07 6.67333e-07 0)
(9.74308e-07 6.96215e-07 0)
(1.00474e-06 7.2497e-07 0)
(1.03472e-06 7.53691e-07 0)
(1.06429e-06 7.82454e-07 0)
(1.09353e-06 8.11326e-07 0)
(1.12248e-06 8.40365e-07 0)
(1.15119e-06 8.69626e-07 0)
(1.17971e-06 8.99158e-07 0)
(1.20808e-06 9.29011e-07 0)
(1.23633e-06 9.59235e-07 0)
(1.26451e-06 9.89893e-07 0)
(1.29265e-06 1.02105e-06 0)
(1.32075e-06 1.05281e-06 0)
(1.34886e-06 1.08524e-06 0)
(7.01513e-07 4.72221e-07 0)
(7.39326e-07 5.05533e-07 0)
(7.76631e-07 5.38333e-07 0)
(8.12519e-07 5.70248e-07 0)
(8.47562e-07 6.01588e-07 0)
(8.8165e-07 6.3246e-07 0)
(9.14967e-07 6.63004e-07 0)
(9.47561e-07 6.93334e-07 0)
(9.79534e-07 7.23549e-07 0)
(1.01095e-06 7.53735e-07 0)
(1.04189e-06 7.83966e-07 0)
(1.07241e-06 8.14309e-07 0)
(1.10259e-06 8.44822e-07 0)
(1.13246e-06 8.75561e-07 0)
(1.1621e-06 9.0658e-07 0)
(1.19155e-06 9.37937e-07 0)
(1.22086e-06 9.69698e-07 0)
(1.25007e-06 1.00194e-06 0)
(1.27923e-06 1.03477e-06 0)
(1.3084e-06 1.06827e-06 0)
(6.25683e-07 4.2383e-07 0)
(6.66651e-07 4.59703e-07 0)
(7.06806e-07 4.9471e-07 0)
(7.45593e-07 5.28918e-07 0)
(7.83308e-07 5.62389e-07 0)
(8.19951e-07 5.95283e-07 0)
(8.55637e-07 6.27723e-07 0)
(8.90438e-07 6.59835e-07 0)
(9.24449e-07 6.91732e-07 0)
(9.57751e-07 7.23511e-07 0)
(9.90428e-07 7.55259e-07 0)
(1.02256e-06 7.87051e-07 0)
(1.05421e-06 8.18952e-07 0)
(1.08546e-06 8.51025e-07 0)
(1.11638e-06 8.83328e-07 0)
(1.14703e-06 9.15921e-07 0)
(1.17746e-06 9.48873e-07 0)
(1.20776e-06 9.82259e-07 0)
(1.23796e-06 1.0162e-06 0)
(1.26819e-06 1.05077e-06 0)
(5.67192e-07 3.87541e-07 0)
(6.09911e-07 4.25273e-07 0)
(6.51564e-07 4.61527e-07 0)
(6.91923e-07 4.97041e-07 0)
(7.31157e-07 5.31814e-07 0)
(7.69268e-07 5.65998e-07 0)
(8.06361e-07 5.99704e-07 0)
(8.42492e-07 6.33045e-07 0)
(8.77753e-07 6.66123e-07 0)
(9.1222e-07 6.9903e-07 0)
(9.45976e-07 7.3185e-07 0)
(9.791e-07 7.64653e-07 0)
(1.01167e-06 7.97505e-07 0)
(1.04376e-06 8.30464e-07 0)
(1.07544e-06 8.63587e-07 0)
(1.10679e-06 8.96929e-07 0)
(1.13787e-06 9.30555e-07 0)
(1.16878e-06 9.64533e-07 0)
(1.19957e-06 9.98968e-07 0)
(1.23039e-06 1.03393e-06 0)
(5.28165e-07 3.65811e-07 0)
(5.7089e-07 4.03538e-07 0)
(6.12557e-07 4.40087e-07 0)
(6.53049e-07 4.76001e-07 0)
(6.92483e-07 5.11267e-07 0)
(7.30846e-07 5.45992e-07 0)
(7.68223e-07 5.80264e-07 0)
(8.04656e-07 6.14173e-07 0)
(8.40222e-07 6.47804e-07 0)
(8.74986e-07 6.81236e-07 0)
(9.09023e-07 7.14539e-07 0)
(9.42405e-07 7.47777e-07 0)
(9.75206e-07 7.81007e-07 0)
(1.0075e-06 8.14281e-07 0)
(1.03936e-06 8.4765e-07 0)
(1.07085e-06 8.81162e-07 0)
(1.10206e-06 9.1487e-07 0)
(1.13308e-06 9.48831e-07 0)
(1.16396e-06 9.83129e-07 0)
(1.19488e-06 1.01781e-06 0)
(4.93713e-07 3.44943e-07 0)
(5.3567e-07 3.82558e-07 0)
(5.76913e-07 4.1921e-07 0)
(6.17095e-07 4.55366e-07 0)
(6.5637e-07 4.90987e-07 0)
(6.94661e-07 5.26139e-07 0)
(7.32042e-07 5.60889e-07 0)
(7.68529e-07 5.95299e-07 0)
(8.04185e-07 6.29434e-07 0)
(8.3906e-07 6.63356e-07 0)
(8.73218e-07 6.97122e-07 0)
(9.06723e-07 7.30783e-07 0)
(9.39643e-07 7.64387e-07 0)
(9.72046e-07 7.97976e-07 0)
(1.004e-06 8.3159e-07 0)
(1.03559e-06 8.65269e-07 0)
(1.06687e-06 8.99052e-07 0)
(1.09795e-06 9.32983e-07 0)
(1.1289e-06 9.67112e-07 0)
(1.1599e-06 1.00147e-06 0)
(4.62831e-07 3.24839e-07 0)
(5.03786e-07 3.62149e-07 0)
(5.44289e-07 3.98767e-07 0)
(5.83875e-07 4.35064e-07 0)
(6.22707e-07 4.70956e-07 0)
(6.60665e-07 5.06469e-07 0)
(6.9781e-07 5.4164e-07 0)
(7.34133e-07 5.76503e-07 0)
(7.69683e-07 6.11105e-07 0)
(8.04496e-07 6.45487e-07 0)
(8.38626e-07 6.79692e-07 0)
(8.72125e-07 7.13757e-07 0)
(9.05054e-07 7.4772e-07 0)
(9.37475e-07 7.81613e-07 0)
(9.69455e-07 8.15464e-07 0)
(1.00107e-06 8.49302e-07 0)
(1.03238e-06 8.83149e-07 0)
(1.06349e-06 9.17038e-07 0)
(1.09447e-06 9.50987e-07 0)
(1.12551e-06 9.85005e-07 0)
(4.35168e-07 3.05711e-07 0)
(4.74894e-07 3.42603e-07 0)
(5.14404e-07 3.79068e-07 0)
(5.53149e-07 4.15385e-07 0)
(5.91304e-07 4.51434e-07 0)
(6.28709e-07 4.8721e-07 0)
(6.65412e-07 5.22715e-07 0)
(7.01384e-07 5.57961e-07 0)
(7.36659e-07 5.92968e-07 0)
(7.71259e-07 6.27761e-07 0)
(8.05225e-07 6.62365e-07 0)
(8.38601e-07 6.96804e-07 0)
(8.71438e-07 7.31102e-07 0)
(9.03793e-07 7.65278e-07 0)
(9.35726e-07 7.99352e-07 0)
(9.67301e-07 8.33335e-07 0)
(9.98595e-07 8.67239e-07 0)
(1.02968e-06 9.01074e-07 0)
(1.06068e-06 9.34816e-07 0)
(1.09174e-06 9.68479e-07 0)
(4.1019e-07 2.87548e-07 0)
(4.48563e-07 3.23918e-07 0)
(4.86915e-07 3.60126e-07 0)
(5.24652e-07 3.96365e-07 0)
(5.61952e-07 4.3248e-07 0)
(5.9863e-07 4.68435e-07 0)
(6.34722e-07 5.042e-07 0)
(6.70184e-07 5.3976e-07 0)
(7.05037e-07 5.75115e-07 0)
(7.39289e-07 6.10267e-07 0)
(7.72972e-07 6.45227e-07 0)
(8.06119e-07 6.80002e-07 0)
(8.38775e-07 7.14603e-07 0)
(8.70987e-07 7.49039e-07 0)
(9.02807e-07 7.83313e-07 0)
(9.34301e-07 8.17426e-07 0)
(9.65527e-07 8.51374e-07 0)
(9.96581e-07 8.85135e-07 0)
(1.02752e-06 9.18682e-07 0)
(1.05852e-06 9.52011e-07 0)
(3.87467e-07 2.70362e-07 0)
(4.2441e-07 3.06149e-07 0)
(4.61486e-07 3.42025e-07 0)
(4.98091e-07 3.78102e-07 0)
(5.344e-07 4.14199e-07 0)
(5.70214e-07 4.50251e-07 0)
(6.05562e-07 4.86198e-07 0)
(6.40384e-07 5.22003e-07 0)
(6.74692e-07 5.57641e-07 0)
(7.08484e-07 5.93097e-07 0)
(7.41781e-07 6.28361e-07 0)
(7.74609e-07 6.6343e-07 0)
(8.07002e-07 6.98298e-07 0)
(8.39002e-07 7.32961e-07 0)
(8.70654e-07 7.67411e-07 0)
(9.02014e-07 8.01636e-07 0)
(9.33136e-07 8.35612e-07 0)
(9.64107e-07 8.69312e-07 0)
(9.94972e-07 9.02672e-07 0)
(1.0259e-06 9.35666e-07 0)
(3.66575e-07 2.54113e-07 0)
(4.02049e-07 2.89277e-07 0)
(4.37777e-07 3.24766e-07 0)
(4.73169e-07 3.60616e-07 0)
(5.08391e-07 3.96627e-07 0)
(5.43239e-07 4.32707e-07 0)
(5.77736e-07 4.68769e-07 0)
(6.11815e-07 5.04753e-07 0)
(6.45479e-07 5.40613e-07 0)
(6.78717e-07 5.76316e-07 0)
(7.11543e-07 6.11834e-07 0)
(7.43974e-07 6.47149e-07 0)
(7.76036e-07 6.82244e-07 0)
(8.07764e-07 7.171e-07 0)
(8.39195e-07 7.51699e-07 0)
(8.70379e-07 7.86015e-07 0)
(9.01361e-07 8.20013e-07 0)
(9.32217e-07 8.53646e-07 0)
(9.62985e-07 8.86833e-07 0)
(9.93814e-07 9.1953e-07 0)
(3.47135e-07 2.38752e-07 0)
(3.81126e-07 2.73282e-07 0)
(4.15465e-07 3.0835e-07 0)
(4.49588e-07 3.43928e-07 0)
(4.83653e-07 3.79798e-07 0)
(5.1746e-07 4.15846e-07 0)
(5.51027e-07 4.51962e-07 0)
(5.84283e-07 4.88065e-07 0)
(6.17224e-07 5.24088e-07 0)
(6.49834e-07 5.59981e-07 0)
(6.82119e-07 5.95701e-07 0)
(7.14089e-07 6.31215e-07 0)
(7.45764e-07 6.66493e-07 0)
(7.7717e-07 7.01507e-07 0)
(8.08338e-07 7.36226e-07 0)
(8.3931e-07 7.70613e-07 0)
(8.70121e-07 8.04621e-07 0)
(9.00835e-07 8.38194e-07 0)
(9.31482e-07 8.71229e-07 0)
(9.62184e-07 9.03669e-07 0)
(3.28797e-07 2.24221e-07 0)
(3.61305e-07 2.58125e-07 0)
(3.94233e-07 2.92756e-07 0)
(4.27053e-07 3.28031e-07 0)
(4.59915e-07 3.6372e-07 0)
(4.92629e-07 3.99689e-07 0)
(5.25208e-07 4.35807e-07 0)
(5.5758e-07 4.71973e-07 0)
(5.8974e-07 5.08104e-07 0)
(6.21664e-07 5.44133e-07 0)
(6.53354e-07 5.80004e-07 0)
(6.84813e-07 6.15669e-07 0)
(7.16055e-07 6.51088e-07 0)
(7.47099e-07 6.86222e-07 0)
(7.7797e-07 7.2103e-07 0)
(8.08699e-07 7.55467e-07 0)
(8.39314e-07 7.89477e-07 0)
(8.69865e-07 8.22995e-07 0)
(9.00372e-07 8.55905e-07 0)
(9.30927e-07 8.88141e-07 0)
(3.11241e-07 2.10464e-07 0)
(3.42271e-07 2.43765e-07 0)
(3.73776e-07 2.77959e-07 0)
(4.05274e-07 3.12915e-07 0)
(4.36902e-07 3.48395e-07 0)
(4.68486e-07 3.84246e-07 0)
(5.00037e-07 4.2032e-07 0)
(5.31485e-07 4.56501e-07 0)
(5.62821e-07 4.92689e-07 0)
(5.94018e-07 5.28804e-07 0)
(6.25073e-07 5.64775e-07 0)
(6.55985e-07 6.00544e-07 0)
(6.86761e-07 6.36061e-07 0)
(7.17415e-07 6.71276e-07 0)
(7.47961e-07 7.06143e-07 0)
(7.78425e-07 7.40609e-07 0)
(8.08825e-07 7.74612e-07 0)
(8.39196e-07 8.08082e-07 0)
(8.69549e-07 8.40898e-07 0)
(8.99943e-07 8.72988e-07 0)
(2.94165e-07 1.97434e-07 0)
(3.2372e-07 2.30166e-07 0)
(3.53798e-07 2.63932e-07 0)
(3.8396e-07 2.98564e-07 0)
(4.14337e-07 3.33814e-07 0)
(4.44771e-07 3.69518e-07 0)
(4.75269e-07 4.0551e-07 0)
(5.05767e-07 4.41662e-07 0)
(5.36251e-07 4.7786e-07 0)
(5.66696e-07 5.14011e-07 0)
(5.97092e-07 5.50035e-07 0)
(6.27434e-07 5.85863e-07 0)
(6.57723e-07 6.21434e-07 0)
(6.87966e-07 6.56694e-07 0)
(7.18172e-07 6.91588e-07 0)
(7.48355e-07 7.26062e-07 0)
(7.78528e-07 7.60049e-07 0)
(8.08708e-07 7.93479e-07 0)
(8.38899e-07 8.26231e-07 0)
(8.69123e-07 8.58237e-07 0)
(2.77277e-07 1.85085e-07 0)
(3.05357e-07 2.1729e-07 0)
(3.34002e-07 2.50646e-07 0)
(3.62823e-07 2.84955e-07 0)
(3.9194e-07 3.19964e-07 0)
(4.21212e-07 3.55495e-07 0)
(4.50646e-07 3.91372e-07 0)
(4.80182e-07 4.27455e-07 0)
(5.09805e-07 4.6362e-07 0)
(5.39487e-07 4.99763e-07 0)
(5.69214e-07 5.35794e-07 0)
(5.98977e-07 5.71636e-07 0)
(6.28771e-07 6.07221e-07 0)
(6.58595e-07 6.42488e-07 0)
(6.88453e-07 6.7738e-07 0)
(7.1835e-07 7.11839e-07 0)
(7.48289e-07 7.458e-07 0)
(7.78274e-07 7.79196e-07 0)
(8.08299e-07 8.11916e-07 0)
(8.38354e-07 8.43897e-07 0)
(2.6029e-07 1.734e-07 0)
(2.86888e-07 2.05121e-07 0)
(3.14094e-07 2.38087e-07 0)
(3.41569e-07 2.72076e-07 0)
(3.69424e-07 3.06832e-07 0)
(3.97535e-07 3.42168e-07 0)
(4.25907e-07 3.779e-07 0)
(4.54485e-07 4.13877e-07 0)
(4.8325e-07 4.49968e-07 0)
(5.12173e-07 4.86059e-07 0)
(5.41238e-07 5.22053e-07 0)
(5.70428e-07 5.57866e-07 0)
(5.99732e-07 5.93425e-07 0)
(6.29143e-07 6.28664e-07 0)
(6.58656e-07 6.63523e-07 0)
(6.88269e-07 6.97944e-07 0)
(7.17976e-07 7.31868e-07 0)
(7.47769e-07 7.65234e-07 0)
(7.77631e-07 7.97947e-07 0)
(8.07523e-07 8.29958e-07 0)
(2.42905e-07 1.62347e-07 0)
(2.68005e-07 1.93627e-07 0)
(2.93763e-07 2.26221e-07 0)
(3.19892e-07 2.59896e-07 0)
(3.4649e-07 2.94391e-07 0)
(3.7345e-07 3.29512e-07 0)
(4.00775e-07 3.65068e-07 0)
(4.28412e-07 4.00905e-07 0)
(4.56341e-07 4.36882e-07 0)
(4.84529e-07 4.72881e-07 0)
(5.12954e-07 5.08797e-07 0)
(5.41593e-07 5.44542e-07 0)
(5.70429e-07 5.80037e-07 0)
(5.99446e-07 6.15214e-07 0)
(6.28633e-07 6.50011e-07 0)
(6.57976e-07 6.84374e-07 0)
(6.87462e-07 7.18247e-07 0)
(7.17072e-07 7.51582e-07 0)
(7.46781e-07 7.84307e-07 0)
(7.76526e-07 8.16393e-07 0)
(2.24814e-07 1.51963e-07 0)
(2.48391e-07 1.82831e-07 0)
(2.72691e-07 2.15065e-07 0)
(2.97477e-07 2.48421e-07 0)
(3.22831e-07 2.82637e-07 0)
(3.48663e-07 3.17517e-07 0)
(3.7497e-07 3.52865e-07 0)
(4.01702e-07 3.88523e-07 0)
(4.28833e-07 4.24345e-07 0)
(4.56326e-07 4.60209e-07 0)
(4.84153e-07 4.96005e-07 0)
(5.12283e-07 5.31642e-07 0)
(5.4069e-07 5.67037e-07 0)
(5.69351e-07 6.0212e-07 0)
(5.98243e-07 6.36829e-07 0)
(6.27345e-07 6.7111e-07 0)
(6.56634e-07 7.04918e-07 0)
(6.8608e-07 7.38217e-07 0)
(7.15651e-07 7.70964e-07 0)
(7.4527e-07 8.03154e-07 0)
(2.05657e-07 1.42193e-07 0)
(2.27684e-07 1.72676e-07 0)
(2.50517e-07 2.04554e-07 0)
(2.7397e-07 2.37585e-07 0)
(2.98106e-07 2.71506e-07 0)
(3.22849e-07 3.06119e-07 0)
(3.48186e-07 3.41228e-07 0)
(3.74067e-07 3.7667e-07 0)
(4.0046e-07 4.12299e-07 0)
(4.27321e-07 4.4799e-07 0)
(4.54615e-07 4.8363e-07 0)
(4.823e-07 5.19123e-07 0)
(5.10342e-07 5.54387e-07 0)
(5.38706e-07 5.89348e-07 0)
(5.67358e-07 6.23945e-07 0)
(5.96265e-07 6.58127e-07 0)
(6.25395e-07 6.91856e-07 0)
(6.5471e-07 7.25108e-07 0)
(6.84169e-07 7.57874e-07 0)
(7.1369e-07 7.90179e-07 0)
(1.85079e-07 1.33193e-07 0)
(2.05525e-07 1.63279e-07 0)
(2.26888e-07 1.94778e-07 0)
(2.4903e-07 2.27449e-07 0)
(2.71989e-07 2.61033e-07 0)
(2.95696e-07 2.95334e-07 0)
(3.20131e-07 3.30153e-07 0)
(3.45238e-07 3.65331e-07 0)
(3.70975e-07 4.00717e-07 0)
(3.97291e-07 4.36187e-07 0)
(4.24138e-07 4.71626e-07 0)
(4.51467e-07 5.06938e-07 0)
(4.79229e-07 5.42036e-07 0)
(5.07378e-07 5.76848e-07 0)
(5.35867e-07 6.11312e-07 0)
(5.6465e-07 6.45378e-07 0)
(5.93682e-07 6.79014e-07 0)
(6.22913e-07 7.12209e-07 0)
(6.52296e-07 7.4498e-07 0)
(6.81752e-07 7.77387e-07 0)
(1.62557e-07 1.24746e-07 0)
(1.81401e-07 1.54431e-07 0)
(2.01309e-07 1.85531e-07 0)
(2.22183e-07 2.17818e-07 0)
(2.44032e-07 2.51036e-07 0)
(2.66791e-07 2.84989e-07 0)
(2.90421e-07 3.19485e-07 0)
(3.14862e-07 3.54361e-07 0)
(3.40058e-07 3.8947e-07 0)
(3.65947e-07 4.24684e-07 0)
(3.9247e-07 4.59892e-07 0)
(4.19564e-07 4.94994e-07 0)
(4.47169e-07 5.29904e-07 0)
(4.75222e-07 5.64548e-07 0)
(5.03663e-07 5.98865e-07 0)
(5.32429e-07 6.32806e-07 0)
(5.61459e-07 6.66342e-07 0)
(5.90687e-07 6.99469e-07 0)
(6.20054e-07 7.32226e-07 0)
(6.49482e-07 7.64703e-07 0)
(1.37796e-07 1.17346e-07 0)
(1.55027e-07 1.46533e-07 0)
(1.73515e-07 1.77136e-07 0)
(1.93182e-07 2.08941e-07 0)
(2.1401e-07 2.41697e-07 0)
(2.35923e-07 2.75215e-07 0)
(2.58867e-07 3.09301e-07 0)
(2.82768e-07 3.43796e-07 0)
(3.07556e-07 3.78555e-07 0)
(3.33155e-07 4.13449e-07 0)
(3.59493e-07 4.48367e-07 0)
(3.86492e-07 4.8321e-07 0)
(4.14079e-07 5.17892e-07 0)
(4.42177e-07 5.5234e-07 0)
(4.70708e-07 5.86491e-07 0)
(4.99592e-07 6.203e-07 0)
(5.28747e-07 6.53737e-07 0)
(5.58084e-07 6.868e-07 0)
(5.87525e-07 7.19529e-07 0)
(6.16974e-07 7.52025e-07 0)
(1.97578e-08 2.16569e-09 0)
(5.96941e-08 1.32559e-08 0)
(1.0217e-07 3.38722e-08 0)
(1.47713e-07 6.26433e-08 0)
(1.97199e-07 9.87917e-08 0)
(2.50893e-07 1.41034e-07 0)
(3.09009e-07 1.88e-07 0)
(3.71443e-07 2.38251e-07 0)
(4.38006e-07 2.90335e-07 0)
(5.08349e-07 3.43061e-07 0)
(1.86095e-08 1.92993e-09 0)
(5.62654e-08 1.18864e-08 0)
(9.62139e-08 3.06e-08 0)
(1.38863e-07 5.69597e-08 0)
(1.8501e-07 9.03796e-08 0)
(2.34902e-07 1.2978e-07 0)
(2.88757e-07 1.73971e-07 0)
(3.46479e-07 2.21682e-07 0)
(4.07854e-07 2.71519e-07 0)
(4.72513e-07 3.22536e-07 0)
(1.7577e-08 1.65417e-09 0)
(5.31887e-08 1.05025e-08 0)
(9.09003e-08 2.74363e-08 0)
(1.30982e-07 5.15437e-08 0)
(1.74145e-07 8.23851e-08 0)
(2.20599e-07 1.19046e-07 0)
(2.70577e-07 1.60487e-07 0)
(3.24038e-07 2.05617e-07 0)
(3.80901e-07 2.53168e-07 0)
(4.40767e-07 3.02465e-07 0)
(1.66323e-08 1.33627e-09 0)
(5.03862e-08 9.11513e-09 0)
(8.61184e-08 2.44411e-08 0)
(1.23973e-07 4.65446e-08 0)
(1.64586e-07 7.5094e-08 0)
(2.08109e-07 1.09301e-07 0)
(2.5476e-07 1.48237e-07 0)
(3.04472e-07 1.90926e-07 0)
(3.57253e-07 2.36167e-07 0)
(4.12621e-07 2.83375e-07 0)
(1.5749e-08 9.72825e-10 0)
(4.77702e-08 7.67581e-09 0)
(8.16857e-08 2.14767e-08 0)
(1.17523e-07 4.17123e-08 0)
(1.55851e-07 6.81306e-08 0)
(1.9677e-07 1.00044e-07 0)
(2.40496e-07 1.36623e-07 0)
(2.86935e-07 1.77002e-07 0)
(3.36189e-07 2.2008e-07 0)
(3.87623e-07 2.65264e-07 0)
(1.492e-08 5.69763e-10 0)
(4.5319e-08 6.19393e-09 0)
(7.75621e-08 1.8559e-08 0)
(1.11571e-07 3.70794e-08 0)
(1.47858e-07 6.15607e-08 0)
(1.86465e-07 9.13883e-08 0)
(2.27599e-07 1.25805e-07 0)
(2.71126e-07 1.64014e-07 0)
(3.17234e-07 2.05013e-07 0)
(3.65187e-07 2.48169e-07 0)
(1.41286e-08 1.25048e-10 0)
(4.29808e-08 4.6477e-09 0)
(7.36483e-08 1.56258e-08 0)
(1.05959e-07 3.25315e-08 0)
(1.40377e-07 5.52126e-08 0)
(1.76895e-07 8.31115e-08 0)
(2.15713e-07 1.15535e-07 0)
(2.56659e-07 1.51737e-07 0)
(2.9998e-07 1.90813e-07 0)
(3.44869e-07 2.32061e-07 0)
(1.33685e-08 -3.55831e-10 0)
(4.07358e-08 3.04346e-09 0)
(6.99068e-08 1.2679e-08 0)
(1.00624e-07 2.80652e-08 0)
(1.33311e-07 4.90796e-08 0)
(1.67912e-07 7.52038e-08 0)
(2.04624e-07 1.05793e-07 0)
(2.43244e-07 1.40137e-07 0)
(2.84057e-07 1.77418e-07 0)
(3.26232e-07 2.1688e-07 0)
(1.26301e-08 -8.73091e-10 0)
(3.85551e-08 1.37237e-09 0)
(6.62836e-08 9.69057e-09 0)
(9.54802e-08 2.36279e-08 0)
(1.26536e-07 4.3082e-08 0)
(1.59354e-07 6.75628e-08 0)
(1.94125e-07 9.64663e-08 0)
(2.30626e-07 1.29103e-07 0)
(2.6916e-07 1.64733e-07 0)
(3.08909e-07 2.02553e-07 0)
(1.19078e-08 -1.42344e-09 0)
(3.6422e-08 -3.62695e-10 0)
(6.27473e-08 6.65763e-09 0)
(9.04762e-08 1.92085e-08 0)
(1.19969e-07 3.7199e-08 0)
(1.51098e-07 6.01564e-08 0)
(1.84046e-07 8.75066e-08 0)
(2.18585e-07 1.18576e-07 0)
(2.55017e-07 1.52685e-07 0)
(2.92564e-07 1.89007e-07 0)
(1.11958e-08 -2.00664e-09 0)
(3.43198e-08 -2.16617e-09 0)
(5.92664e-08 3.56629e-09 0)
(8.55599e-08 1.47815e-08 0)
(1.13533e-07 3.1392e-08 0)
(1.43035e-07 5.29342e-08 0)
(1.74239e-07 7.88544e-08 0)
(2.06925e-07 1.08489e-07 0)
(2.41385e-07 1.41208e-07 0)
(2.76898e-07 1.76173e-07 0)
(1.04904e-08 -2.62183e-09 0)
(3.2238e-08 -4.03855e-09 0)
(5.58199e-08 4.12278e-10 0)
(8.06929e-08 1.03392e-08 0)
(1.07164e-07 2.56479e-08 0)
(1.35067e-07 4.58756e-08 0)
(1.64571e-07 7.04797e-08 0)
(1.9547e-07 9.8804e-08 0)
(2.28042e-07 1.30253e-07 0)
(2.61638e-07 1.63995e-07 0)
(9.78941e-09 -3.27062e-09 0)
(3.01722e-08 -5.98601e-09 0)
(5.23941e-08 -2.81517e-09 0)
(7.58447e-08 5.86757e-09 0)
(1.00807e-07 1.99488e-08 0)
(1.27107e-07 3.89577e-08 0)
(1.54916e-07 6.23535e-08 0)
(1.84052e-07 8.94845e-08 0)
(2.14778e-07 1.19781e-07 0)
(2.4652e-07 1.52424e-07 0)
(9.09277e-09 -3.95885e-09 0)
(2.8126e-08 -8.01586e-09 0)
(4.89851e-08 -6.11993e-09 0)
(7.09939e-08 1.37008e-09 0)
(9.44116e-08 1.43026e-08 0)
(1.19074e-07 3.21892e-08 0)
(1.45155e-07 5.44814e-08 0)
(1.7251e-07 8.05299e-08 0)
(2.01385e-07 1.09784e-07 0)
(2.31289e-07 1.41444e-07 0)
(8.4069e-09 -4.69682e-09 0)
(2.61252e-08 -1.01463e-08 0)
(4.56124e-08 -9.51875e-09 0)
(6.61371e-08 -3.16471e-09 0)
(8.79406e-08 8.70272e-09 0)
(1.10887e-07 2.55641e-08 0)
(1.35164e-07 4.6855e-08 0)
(1.60672e-07 7.19265e-08 0)
(1.87645e-07 1.00242e-07 0)
(2.15679e-07 1.31025e-07 0)
(7.74547e-09 -5.51969e-09 0)
(2.42123e-08 -1.2404e-08 0)
(4.2308e-08 -1.30069e-08 0)
(6.12764e-08 -7.69731e-09 0)
(8.13558e-08 3.21119e-09 0)
(1.02463e-07 1.91555e-08 0)
(1.24813e-07 3.95489e-08 0)
(1.48361e-07 6.37437e-08 0)
(1.73334e-07 9.12152e-08 0)
(1.99414e-07 1.21217e-07 0)
(7.15877e-09 -6.46833e-09 0)
(2.25176e-08 -1.48404e-08 0)
(3.91804e-08 -1.66184e-08 0)
(5.64596e-08 -1.22515e-08 0)
(7.46325e-08 -2.18652e-09 0)
(9.37082e-08 1.29493e-08 0)
(1.13946e-07 3.25454e-08 0)
(1.35361e-07 5.59561e-08 0)
(1.58179e-07 8.26701e-08 0)
(1.82169e-07 1.11974e-07 0)
(6.75381e-09 -7.72115e-09 0)
(2.1192e-08 -1.75376e-08 0)
(3.63344e-08 -2.0284e-08 0)
(5.17107e-08 -1.66485e-08 0)
(6.77248e-08 -7.26094e-09 0)
(8.45099e-08 7.19355e-09 0)
(1.02391e-07 2.60897e-08 0)
(1.21447e-07 4.8796e-08 0)
(1.41904e-07 7.48183e-08 0)
(1.63616e-07 1.03482e-07 0)
(7.05015e-09 -9.40671e-09 0)
(2.07956e-08 -2.05913e-08 0)
(3.41274e-08 -2.40712e-08 0)
(4.71556e-08 -2.09901e-08 0)
(6.05789e-08 -1.21354e-08 0)
(7.46852e-08 1.73999e-09 0)
(8.98675e-08 2.00139e-08 0)
(1.06258e-07 4.20772e-08 0)
(1.24082e-07 6.74601e-08 0)
(1.43263e-07 9.55296e-08 0)
(9.15059e-09 -1.24645e-08 0)
(2.16805e-08 -2.40817e-08 0)
(3.27276e-08 -2.75093e-08 0)
(4.2777e-08 -2.45403e-08 0)
(5.31103e-08 -1.60267e-08 0)
(6.40929e-08 -2.63489e-09 0)
(7.61975e-08 1.50563e-08 0)
(8.95788e-08 3.64914e-08 0)
(1.04468e-07 6.12313e-08 0)
(1.20828e-07 8.86915e-08 0)
)
;

boundaryField
{
    left
    {
        type            fixedDisplacement;
        value           uniform (0 0 0);
    }
    right
    {
        type            solidTraction;
        tractionSeries  
{
        file            "$FOAM_CASE/constant/timeVsTraction";
        outOfBounds     clamp;
}
        pressure        uniform 0;
        secondOrder     false;
        setEffectiveTraction false;
        relaxationFactor 1;
        value           nonuniform List<vector> 
30
(
(1.63708e-06 1.20324e-06 3.43891e-21)
(1.59894e-06 1.18939e-06 3.45586e-21)
(1.56045e-06 1.17564e-06 3.50044e-21)
(1.52152e-06 1.16173e-06 3.57255e-21)
(1.48216e-06 1.14751e-06 3.67091e-21)
(1.44244e-06 1.13284e-06 3.7943e-21)
(1.40252e-06 1.11762e-06 3.94077e-21)
(1.36255e-06 1.10182e-06 4.10834e-21)
(1.32272e-06 1.08543e-06 4.29479e-21)
(1.28319e-06 1.06849e-06 4.49749e-21)
(1.24581e-06 1.05183e-06 4.61953e-21)
(1.21036e-06 1.03546e-06 4.63552e-21)
(1.17541e-06 1.01885e-06 4.64682e-21)
(1.14104e-06 1.00208e-06 4.65374e-21)
(1.10728e-06 9.85257e-07 4.65525e-21)
(1.07404e-06 9.68502e-07 4.65163e-21)
(1.04138e-06 9.51874e-07 4.64365e-21)
(1.00924e-06 9.3549e-07 4.63139e-21)
(9.77547e-07 9.19421e-07 4.61563e-21)
(9.46214e-07 9.03731e-07 4.59699e-21)
(9.15146e-07 8.88469e-07 4.57621e-21)
(8.84239e-07 8.73664e-07 4.55427e-21)
(8.53383e-07 8.59326e-07 4.53227e-21)
(8.22469e-07 8.45444e-07 4.51119e-21)
(7.91396e-07 8.31985e-07 4.49185e-21)
(7.60077e-07 8.18892e-07 4.47545e-21)