/*--------------------------------*- C++ -*----------------------------------*\
  =========                 |
  \\      /  F ield         | OpenFOAM: The Open Source CFD Toolbox
   \\    /   O peration     | Website:  https://openfoam.org
    \\  /    A nd           | Version:  9
     \\/     M anipulation  |
\*---------------------------------------------------------------------------*/
FoamFile
{
    format      ascii;
    class       volScalarField;
    location    "1";
    object      epsilonEq;
}
// * * * * * * * * * * * * * * * * * * * * * * * * * * * * * * * * * * * * * //

dimensions      [0 0 0 0 0 0 0];

internalField   nonuniform List<scalar> 
1000
(
6.81388e-07
6.47139e-07
6.37393e-07
6.42364e-07
6.43105e-07
6.41825e-07
6.37425e-07
6.30687e-07
6.23153e-07
6.13727e-07
7.94303e-07
7.2146e-07
6.86252e-07
6.75446e-07
6.65751e-07
6.57463e-07
6.47811e-07
6.37567e-07
6.25957e-07
6.15703e-07
9.04677e-07
7.93079e-07
7.3051e-07
7.01721e-07
6.79869e-07
6.63267e-07
6.47463e-07
6.32803e-07
6.17379e-07
6.05046e-07
1.01037e-06
8.61117e-07
7.70295e-07
7.21808e-07
6.86294e-07
6.60312e-07
6.37722e-07
6.18342e-07
5.99221e-07
5.84688e-07
1.10809e-06
9.23949e-07
8.04833e-07
7.3553e-07
6.85138e-07
6.48862e-07
6.18986e-07
5.946e-07
5.71992e-07
5.55112e-07
1.19832e-06
9.81093e-07
8.33634e-07
7.42831e-07
6.76713e-07
6.2961e-07
5.92221e-07
5.62778e-07
5.36893e-07
5.17597e-07
1.27601e-06
1.0288e-06
8.5261e-07
7.40617e-07
6.59314e-07
6.02046e-07
5.57883e-07
5.23987e-07
4.9548e-07
4.73981e-07
1.34922e-06
1.06503e-06
8.58176e-07
7.27088e-07
6.32846e-07
5.67672e-07
5.18706e-07
4.81897e-07
4.52019e-07
4.29018e-07
1.40024e-06
1.06887e-06
8.31243e-07
6.88653e-07
5.91009e-07
5.24803e-07
4.76091e-07
4.39577e-07
4.10422e-07
3.87096e-07
1.44453e-06
1.00797e-06
7.67345e-07
6.33324e-07
5.48605e-07
4.89919e-07
4.46684e-07
4.12997e-07
3.85727e-07
3.62549e-07
2.10358e-09
5.60113e-09
2.51487e-08
5.17175e-08
8.08387e-08
1.10901e-07
1.40107e-07
1.67943e-07
1.93507e-07
2.17197e-07
6.73381e-09
3.42945e-08
7.32155e-08
1.11453e-07
1.45367e-07
1.75503e-07
2.01808e-07
2.25344e-07
2.4555e-07
2.64534e-07
2.79713e-08
8.14006e-08
1.30455e-07
1.74827e-07
2.11819e-07
2.42569e-07
2.67568e-07
2.88552e-07
3.04993e-07
3.20547e-07
6.44792e-08
1.39054e-07
1.94325e-07
2.41122e-07
2.78378e-07
3.08266e-07
3.31496e-07
3.50109e-07
3.63455e-07
3.76292e-07
1.16531e-07
2.0406e-07
2.62927e-07
3.10089e-07
3.45611e-07
3.73129e-07
3.93621e-07
4.09312e-07
4.19484e-07
4.29557e-07
1.83837e-07
2.73265e-07
3.32182e-07
3.77996e-07
4.10531e-07
4.34738e-07
4.51849e-07
4.64196e-07
4.71126e-07
4.78289e-07
2.64991e-07
3.45502e-07
4.00207e-07
4.42818e-07
4.71365e-07
4.91626e-07
5.04936e-07
5.13662e-07
5.17329e-07
5.21416e-07
3.58022e-07
4.19771e-07
4.6536e-07
5.025e-07
5.26031e-07
5.41826e-07
5.51144e-07
5.56133e-07
5.56818e-07
5.57655e-07
4.60319e-07
4.95365e-07
5.26895e-07
5.56022e-07
5.73357e-07
5.84157e-07
5.89217e-07
5.90466e-07
5.88313e-07
5.86343e-07
5.69126e-07
5.71464e-07
5.84286e-07
6.02631e-07
6.12355e-07
6.17382e-07
6.17868e-07
6.1501e-07
6.10964e-07
6.0453e-07
2.38538e-07
2.56888e-07
2.73905e-07
2.89295e-07
3.03209e-07
3.15729e-07
3.2697e-07
3.37016e-07
3.45968e-07
3.53895e-07
3.60869e-07
3.66937e-07
3.72139e-07
3.76502e-07
3.80036e-07
3.82759e-07
3.8466e-07
3.85801e-07
3.86166e-07
3.85946e-07
2.79235e-07
2.89956e-07
3.00775e-07
3.10826e-07
3.20254e-07
3.29016e-07
3.37113e-07
3.44542e-07
3.51328e-07
3.57477e-07
3.63016e-07
3.67957e-07
3.7232e-07
3.76114e-07
3.79342e-07
3.82005e-07
3.84064e-07
3.85496e-07
3.86108e-07
3.85774e-07
3.29266e-07
3.32729e-07
3.37153e-07
3.41416e-07
3.45749e-07
3.50064e-07
3.54329e-07
3.58471e-07
3.62476e-07
3.66287e-07
3.69897e-07
3.73276e-07
3.76414e-07
3.79292e-07
3.81882e-07
3.84148e-07
3.85987e-07
3.87284e-07
3.87645e-07
3.8684e-07
3.80049e-07
3.77453e-07
3.76358e-07
3.75495e-07
3.75123e-07
3.75181e-07
3.75663e-07
3.76457e-07
3.77552e-07
3.78849e-07
3.80322e-07
3.81907e-07
3.83568e-07
3.85254e-07
3.86907e-07
3.88454e-07
3.8974e-07
3.90615e-07
3.9061e-07
3.89516e-07
4.28931e-07
4.21342e-07
4.15501e-07
4.10228e-07
4.05712e-07
4.01903e-07
3.98871e-07
3.96457e-07
3.94697e-07
3.9346e-07
3.92726e-07
3.92405e-07
3.92449e-07
3.92785e-07
3.93331e-07
3.93991e-07
3.94589e-07
3.94962e-07
3.94657e-07
3.93503e-07
4.73795e-07
4.62227e-07
4.52453e-07
4.43481e-07
4.35494e-07
4.2833e-07
4.22226e-07
4.16928e-07
4.12547e-07
4.08922e-07
4.06053e-07
4.03838e-07
4.0223e-07
4.01146e-07
4.00501e-07
4.00191e-07
4.00054e-07
3.99938e-07
3.99483e-07
3.98535e-07
5.13562e-07
4.99e-07
4.86239e-07
4.74215e-07
4.63465e-07
4.53434e-07
4.44668e-07
4.368e-07
4.30035e-07
4.24205e-07
4.19328e-07
4.15309e-07
4.121e-07
4.09623e-07
4.07799e-07
4.06531e-07
4.05693e-07
4.05154e-07
4.047e-07
4.04176e-07
5.47127e-07
5.30467e-07
5.15884e-07
5.01344e-07
4.8857e-07
4.76312e-07
4.65434e-07
4.55471e-07
4.46668e-07
4.38892e-07
4.32177e-07
4.2646e-07
4.21711e-07
4.17871e-07
4.14882e-07
4.12672e-07
4.11169e-07
4.10274e-07
4.09947e-07
4.10018e-07
5.74383e-07
5.55851e-07
5.41286e-07
5.24988e-07
5.10662e-07
4.96589e-07
4.83841e-07
4.72074e-07
4.615e-07
4.52047e-07
4.43739e-07
4.3654e-07
4.30431e-07
4.25373e-07
4.21337e-07
4.18277e-07
4.16196e-07
4.15022e-07
4.14911e-07
4.15669e-07
5.94697e-07
5.74864e-07
5.61254e-07
5.45102e-07
5.3015e-07
5.15294e-07
5.01239e-07
4.88031e-07
4.75869e-07
4.64814e-07
4.5493e-07
4.46229e-07
4.38722e-07
4.32401e-07
4.27272e-07
4.23321e-07
4.20623e-07
4.1915e-07
4.19257e-07
4.20744e-07
6.02616e-07
5.84038e-07
5.7058e-07
5.55378e-07
5.40447e-07
5.25601e-07
5.11283e-07
4.97631e-07
4.84872e-07
4.73107e-07
4.62444e-07
4.5293e-07
4.44617e-07
4.37528e-07
4.31714e-07
4.27196e-07
4.24122e-07
4.22499e-07
4.2284e-07
4.24939e-07
5.87231e-07
5.77688e-07
5.65354e-07
5.52144e-07
5.38657e-07
5.25036e-07
5.11698e-07
4.98794e-07
4.86572e-07
4.75159e-07
4.64694e-07
4.55258e-07
4.46934e-07
4.39778e-07
4.3388e-07
4.29296e-07
4.26227e-07
4.24716e-07
4.25393e-07
4.28025e-07
5.74857e-07
5.67611e-07
5.58163e-07
5.46845e-07
5.35098e-07
5.22787e-07
5.10528e-07
4.98444e-07
4.86846e-07
4.75877e-07
4.6571e-07
4.56454e-07
4.4822e-07
4.41097e-07
4.35203e-07
4.30629e-07
4.27619e-07
4.26222e-07
4.27143e-07
4.30135e-07
5.60093e-07
5.55744e-07
5.48656e-07
5.39179e-07
5.29094e-07
5.18118e-07
5.07008e-07
4.95862e-07
4.85037e-07
4.74683e-07
4.65e-07
4.56114e-07
4.48158e-07
4.41243e-07
4.35503e-07
4.31065e-07
4.28163e-07
4.26921e-07
4.28092e-07
4.31277e-07
5.43262e-07
5.41196e-07
5.36337e-07
5.28797e-07
5.20487e-07
5.11012e-07
5.01217e-07
4.91182e-07
4.81301e-07
4.71736e-07
4.62708e-07
4.54359e-07
4.46837e-07
4.40273e-07
4.34799e-07
4.306e-07
4.27795e-07
4.26873e-07
4.27457e-07
4.31377e-07
5.25337e-07
5.2531e-07
5.22457e-07
5.16737e-07
5.101e-07
5.02111e-07
4.93649e-07
4.84786e-07
4.75938e-07
4.67273e-07
4.59026e-07
4.51346e-07
4.44398e-07
4.38309e-07
4.33245e-07
4.29333e-07
4.26847e-07
4.25921e-07
4.27134e-07
4.30202e-07
5.06639e-07
5.08291e-07
5.07191e-07
5.03172e-07
4.98126e-07
4.91613e-07
4.84503e-07
4.76868e-07
4.69128e-07
4.61455e-07
4.5409e-07
4.4719e-07
4.40922e-07
4.35417e-07
4.30837e-07
4.273e-07
4.25071e-07
4.24198e-07
4.25317e-07
4.28195e-07
4.87548e-07
4.90593e-07
4.91021e-07
4.8854e-07
4.84958e-07
4.79855e-07
4.74066e-07
4.67668e-07
4.61073e-07
4.54452e-07
4.48046e-07
4.42011e-07
4.36513e-07
4.31678e-07
4.27658e-07
4.24555e-07
4.22598e-07
4.21845e-07
4.22822e-07
4.25305e-07
4.68234e-07
4.72384e-07
4.74108e-07
4.73e-07
4.70762e-07
4.67001e-07
4.62501e-07
4.57342e-07
4.51917e-07
4.46395e-07
4.41008e-07
4.35909e-07
4.31258e-07
4.27169e-07
4.23778e-07
4.21168e-07
4.19526e-07
4.18877e-07
4.19664e-07
4.21678e-07
4.48781e-07
4.53798e-07
4.56618e-07
4.56728e-07
4.55716e-07
4.53223e-07
4.49973e-07
4.46043e-07
4.41803e-07
4.37413e-07
4.33096e-07
4.28992e-07
4.25249e-07
4.21972e-07
4.19273e-07
4.17215e-07
4.15929e-07
4.15418e-07
4.15992e-07
4.1746e-07
4.2916e-07
4.34841e-07
4.38582e-07
4.39779e-07
4.39901e-07
4.38619e-07
4.36591e-07
4.33888e-07
4.3085e-07
4.27627e-07
4.24421e-07
4.21364e-07
4.18587e-07
4.1618e-07
4.14232e-07
4.12781e-07
4.11902e-07
4.11565e-07
4.11935e-07
4.12839e-07
4.09278e-07
4.15472e-07
4.20003e-07
4.22191e-07
4.23386e-07
4.23281e-07
4.22464e-07
4.20999e-07
4.19189e-07
4.17167e-07
4.15117e-07
4.13152e-07
4.1139e-07
4.09904e-07
4.08758e-07
4.07969e-07
4.07554e-07
4.07445e-07
4.07653e-07
4.08013e-07
3.88941e-07
3.95558e-07
4.00803e-07
4.0394e-07
4.06189e-07
4.07265e-07
4.07683e-07
4.07491e-07
4.06953e-07
4.06181e-07
4.05333e-07
4.0451e-07
4.03808e-07
4.03285e-07
4.02986e-07
4.02906e-07
4.0301e-07
4.03194e-07
4.03313e-07
4.03196e-07
3.6796e-07
3.74981e-07
3.80927e-07
3.8503e-07
3.88368e-07
3.90675e-07
3.92385e-07
3.9353e-07
3.94327e-07
3.94866e-07
3.95276e-07
3.95639e-07
3.96034e-07
3.96507e-07
3.97084e-07
3.97746e-07
3.98417e-07
3.98961e-07
3.9909e-07
3.98605e-07
3.46002e-07
3.53507e-07
3.60233e-07
3.65404e-07
3.69943e-07
3.73596e-07
3.76711e-07
3.79299e-07
3.81528e-07
3.8346e-07
3.85196e-07
3.86797e-07
3.88323e-07
3.89811e-07
3.91275e-07
3.92688e-07
3.93954e-07
3.94912e-07
3.95165e-07
3.94462e-07
3.22944e-07
3.31116e-07
3.38789e-07
3.4521e-07
3.51124e-07
3.56288e-07
3.60961e-07
3.65125e-07
3.68898e-07
3.72314e-07
3.75442e-07
3.78322e-07
3.80999e-07
3.835e-07
3.85834e-07
3.87976e-07
3.89828e-07
3.91224e-07
3.91708e-07
3.90963e-07
2.98325e-07
3.07522e-07
3.16468e-07
3.24461e-07
3.32039e-07
3.38972e-07
3.45423e-07
3.5135e-07
3.56817e-07
3.61832e-07
3.66432e-07
3.70642e-07
3.74486e-07
3.77984e-07
3.81144e-07
3.83949e-07
3.8632e-07
3.88116e-07
3.88903e-07
3.88306e-07
2.72631e-07
2.83333e-07
2.93962e-07
3.03893e-07
3.13446e-07
3.22402e-07
3.30833e-07
3.38673e-07
3.45941e-07
3.52624e-07
3.58735e-07
3.64278e-07
3.69266e-07
3.7371e-07
3.77614e-07
3.80975e-07
3.83743e-07
3.85825e-07
3.86894e-07
3.86577e-07
2.45346e-07
2.5836e-07
2.71341e-07
2.83769e-07
2.95748e-07
3.07074e-07
3.1775e-07
3.27694e-07
3.369e-07
3.45339e-07
3.53012e-07
3.59909e-07
3.66033e-07
3.71381e-07
3.75948e-07
3.79725e-07
3.82679e-07
3.84792e-07
3.85912e-07
3.85885e-07
2.19652e-07
2.35636e-07
2.51424e-07
2.66607e-07
2.8117e-07
2.94911e-07
3.07811e-07
3.1978e-07
3.30812e-07
3.40876e-07
3.49973e-07
3.58095e-07
3.65235e-07
3.71379e-07
3.76498e-07
3.80568e-07
3.8353e-07
3.85407e-07
3.86148e-07
3.86029e-07
3.42962e-07
3.66526e-07
4.06406e-07
4.50155e-07
4.93591e-07
5.31761e-07
5.62626e-07
5.8473e-07
5.9841e-07
6.01208e-07
3.24801e-07
3.46768e-07
3.83589e-07
4.24963e-07
4.67481e-07
5.06438e-07
5.39752e-07
5.653e-07
5.83013e-07
5.89934e-07
3.08532e-07
3.29476e-07
3.63748e-07
4.02524e-07
4.43055e-07
4.8101e-07
5.14635e-07
5.42148e-07
5.63601e-07
5.76801e-07
2.93654e-07
3.13907e-07
3.46067e-07
3.82534e-07
4.21211e-07
4.58076e-07
4.91413e-07
5.19527e-07
5.42023e-07
5.59045e-07
2.79696e-07
2.99476e-07
3.29841e-07
3.64132e-07
4.00827e-07
4.36328e-07
4.69066e-07
4.97697e-07
5.20921e-07
5.40138e-07
2.66596e-07
2.86074e-07
3.14961e-07
3.47321e-07
3.82098e-07
4.16053e-07
4.47676e-07
4.76074e-07
4.99319e-07
5.19965e-07
2.54114e-07
2.73383e-07
3.01017e-07
3.31656e-07
3.6463e-07
3.97063e-07
4.27499e-07
4.55427e-07
4.78345e-07
4.99459e-07
2.42209e-07
2.61312e-07
2.87864e-07
3.1695e-07
3.48209e-07
3.79079e-07
4.08174e-07
4.35331e-07
4.5775e-07
4.7889e-07
2.30801e-07
2.49735e-07
2.75318e-07
3.0299e-07
3.32645e-07
3.6199e-07
3.89728e-07
4.15931e-07
4.37693e-07
4.58473e-07
2.19895e-07
2.38605e-07
2.63264e-07
2.89594e-07
3.177e-07
3.45516e-07
3.71869e-07
3.96987e-07
4.18019e-07
4.38238e-07
2.0952e-07
2.27906e-07
2.51615e-07
2.76613e-07
3.03192e-07
3.29472e-07
3.54425e-07
3.78357e-07
3.98587e-07
4.18109e-07
1.99764e-07
2.17664e-07
2.40316e-07
2.63909e-07
2.88912e-07
3.13604e-07
3.37122e-07
3.59795e-07
3.79176e-07
3.97931e-07
1.908e-07
2.0796e-07
2.29317e-07
2.51315e-07
2.74608e-07
2.97616e-07
3.19642e-07
3.40995e-07
3.59488e-07
3.77447e-07
1.82885e-07
1.98918e-07
2.18598e-07
2.38695e-07
2.60052e-07
2.81227e-07
3.01674e-07
3.21652e-07
3.39233e-07
3.56399e-07
1.76509e-07
1.90738e-07
2.08019e-07
2.2567e-07
2.44732e-07
2.63876e-07
2.82655e-07
3.01236e-07
3.17927e-07
3.34359e-07
1.72246e-07
1.83508e-07
1.97423e-07
2.12005e-07
2.28351e-07
2.45244e-07
2.62267e-07
2.7945e-07
2.95312e-07
3.11114e-07
1.71366e-07
1.77419e-07
1.85994e-07
1.9642e-07
2.0954e-07
2.24036e-07
2.3936e-07
2.55311e-07
2.70574e-07
2.86013e-07
1.74088e-07
1.71237e-07
1.7281e-07
1.78493e-07
1.88136e-07
2.00236e-07
2.14037e-07
2.29025e-07
2.44023e-07
2.59442e-07
1.83549e-07
1.63392e-07
1.53771e-07
1.53647e-07
1.60215e-07
1.7067e-07
1.83814e-07
1.98713e-07
2.14291e-07
2.30477e-07
1.87631e-07
1.4338e-07
1.27511e-07
1.2286e-07
1.27921e-07
1.37899e-07
1.51535e-07
1.67438e-07
1.84568e-07
2.02396e-07
)
;

boundaryField
{
    left
    {
        type            calculated;
        value           nonuniform List<scalar> 
30
(
3.38934e-07
3.20998e-07
3.0494e-07
2.90246e-07
2.76489e-07
2.63607e-07
2.51382e-07
2.39786e-07
2.28757e-07
2.18314e-07
2.08507e-07
1.99445e-07
1.91315e-07
1.84403e-07
1.7922e-07
1.7652e-07
1.77821e-07
1.84963e-07
2.04218e-07
2.33979e-07
1.53872e-06
9.86895e-07
7.42453e-07
6.16843e-07
5.38688e-07
4.83242e-07
4.41692e-07
4.08695e-07
3.81756e-07
3.58499e-07
)
;
    }
    right
    {
        type            calculated;
        value           nonuniform List<scalar> 
30
(
3.8588e-07
3.85775e-07
3.86806e-07
3.89463e-07
3.93439e-07
3.98475e-07
4.04131e-07
4.10001e-07
4.15683e-07
4.20804e-07
4.25015e-07
4.28151e-07
4.30274e-07
4.31424e-07
4.31414e-07
4.30324e-07
4.28325e-07
4.25412e-07
4.21759e-07
4.17511e-07
4.12859e-07
4.08006e-07
4.03169e-07
3.98564e-07
3.94417e-07
3.90922e-07
3.88283e-07
3.86573e-07
3.859e-07
3.85954e-07
)
;
    }
    down
    {
        type            calculated;
        value           nonuniform List<scalar> 
30
(
1.05088e-09
2.58538e-09
1.86821e-08
4.41983e-08
7.35998e-08
1.04342e-07
1.3438e-07
1.63021e-07
1.89298e-07
2.13642e-07
2.35561e-07
2.54661e-07
2.72208e-07
2.87986e-07
3.02218e-07
3.14975e-07
3.2641e-07
3.36604e-07
3.45675e-07
3.53695e-07
3.60742e-07
3.66865e-07
3.72108e-07
3.76498e-07
3.80045e-07
3.82771e-07
3.84664e-07
3.85797e-07
3.86162e-07
3.86039e-07
)
;
    }
    up
    {
        type            calculated;
        value           nonuniform List<scalar> 
30
(
1.84907e-07
1.41734e-07
1.26664e-07
1.21908e-07
1.26816e-07
1.36635e-07
1.50173e-07
1.66046e-07
1.83161e-07
2.01063e-07
2.18375e-07
2.34489e-07
2.50432e-07
2.65744e-07
2.80442e-07
2.94299e-07
3.07309e-07
3.19375e-07
3.30494e-07
3.40634e-07
3.49797e-07
3.57975e-07
3.65163e-07
3.71344e-07
3.7649e-07
3.80575e-07
3.8354e-07
3.85411e-07
3.86141e-07
3.86087e-07
)
;
    }
    hole
    {
        type            calculated;
        value           nonuniform List<scalar> 
20
(
6.85942e-07
8.04769e-07
9.20907e-07
1.03208e-06
1.13478e-06
1.22966e-06
1.31156e-06
1.39071e-06
1.45174e-06
1.52316e-06
1.48246e-09
1.4839e-09
1.26453e-08
4.5231e-08
9.60544e-08
1.64663e-07
2.48791e-07
3.46059e-07
4.53416e-07
5.67818e-07
)
;
    }
    frontAndBack
    {
        type            empty;
    }
}


// ************************************************************************* //
