/*--------------------------------*- C++ -*----------------------------------*\
  =========                 |
  \\      /  F ield         | OpenFOAM: The Open Source CFD Toolbox
   \\    /   O peration     | Website:  https://openfoam.org
    \\  /    A nd           | Version:  9
     \\/     M anipulation  |
\*---------------------------------------------------------------------------*/
FoamFile
{
    format      ascii;
    class       volSymmTensorField;
    location    "1";
    object      epsilon;
}
// * * * * * * * * * * * * * * * * * * * * * * * * * * * * * * * * * * * * * //

dimensions      [0 0 0 0 0 0 0];

internalField   nonuniform List<symmTensor> 
1000
(
(4.21481e-07 -5.46219e-07 7.15353e-20 8.28748e-08 7.82982e-20 2.13714e-34)
(5.81241e-07 -4.21094e-07 -8.67962e-22 -1.05525e-07 4.86087e-22 0)
(6.59533e-07 -3.22409e-07 1.01275e-21 -1.95616e-07 -1.93716e-22 0)
(7.03425e-07 -2.47991e-07 2.60025e-22 -2.58876e-07 -1.85874e-22 0)
(7.24571e-07 -1.88143e-07 -1.09979e-21 -2.93929e-07 8.00417e-23 0)
(7.31665e-07 -1.41368e-07 -1.18982e-22 -3.16376e-07 1.30608e-22 0)
(7.30837e-07 -1.03356e-07 -9.99331e-22 -3.28527e-07 -5.37625e-22 0)
(7.24199e-07 -7.31388e-08 6.8589e-22 -3.34734e-07 3.21486e-22 0)
(7.15593e-07 -4.80223e-08 -3.53787e-22 -3.37002e-07 -4.02964e-22 0)
(7.03064e-07 -2.71301e-08 0 -3.37348e-07 0 0)
(5.70273e-07 -6.0723e-07 7.04009e-20 2.15637e-08 9.03868e-20 1.22175e-35)
(6.94148e-07 -4.34596e-07 0 -1.46009e-07 0 0)
(7.47186e-07 -3.09981e-07 8.10838e-22 -2.20242e-07 3.87265e-22 0)
(7.71748e-07 -2.20435e-07 -1.39139e-21 -2.72945e-07 -7.43722e-22 0)
(7.77851e-07 -1.52167e-07 -5.9143e-22 -2.99552e-07 -3.57359e-22 0)
(7.73058e-07 -1.01111e-07 4.11684e-22 -3.16106e-07 4.20388e-22 0)
(7.62586e-07 -6.1249e-08 4.60992e-22 -3.23565e-07 3.09549e-22 0)
(7.48427e-07 -3.09529e-08 1.08393e-21 -3.26945e-07 6.34149e-22 0)
(7.32512e-07 -6.39727e-09 0 -3.25876e-07 0 0)
(7.1569e-07 1.32485e-08 0 -3.26456e-07 0 0)
(7.36988e-07 -6.45716e-07 6.72282e-20 -5.96198e-08 1.00614e-19 0)
(8.1109e-07 -4.33981e-07 0 -1.91761e-07 0 0)
(8.31317e-07 -2.88451e-07 7.72908e-22 -2.42196e-07 4.00244e-22 0)
(8.31968e-07 -1.87057e-07 -2.31911e-22 -2.79595e-07 8.18856e-23 0)
(8.20305e-07 -1.12835e-07 -1.13599e-23 -2.94922e-07 5.05771e-24 0)
(8.01996e-07 -5.93538e-08 -3.83837e-22 -3.03884e-07 -3.97708e-22 0)
(7.81023e-07 -1.9181e-08 5.24191e-22 -3.05634e-07 2.43129e-22 0)
(7.58721e-07 1.01534e-08 -3.89194e-22 -3.05428e-07 -2.87946e-22 0)
(7.36102e-07 3.29584e-08 -3.14378e-23 -3.01247e-07 5.40133e-23 0)
(7.14292e-07 5.14899e-08 -8.22373e-23 -3.00933e-07 -3.56008e-23 0)
(9.15407e-07 -6.5617e-07 5.88196e-20 -1.56096e-07 1.05839e-19 -6.75981e-36)
(9.29154e-07 -4.17533e-07 4.42586e-22 -2.41062e-07 -4.54698e-23 0)
(9.10613e-07 -2.58156e-07 -3.53299e-22 -2.61075e-07 -1.99792e-22 0)
(8.83559e-07 -1.49474e-07 -2.23887e-22 -2.79143e-07 4.32085e-23 0)
(8.5191e-07 -7.25526e-08 4.00791e-22 -2.809e-07 3.87972e-22 0)
(8.18963e-07 -1.89272e-08 -4.82518e-22 -2.81118e-07 -3.1973e-22 0)
(7.87034e-07 1.98459e-08 -4.16889e-22 -2.76782e-07 -2.97254e-22 0)
(7.56706e-07 4.7139e-08 -9.29204e-22 -2.72924e-07 -6.81153e-22 0)
(7.27818e-07 6.72642e-08 -1.33138e-22 -2.662e-07 -1.62682e-22 0)
(7.01702e-07 8.36426e-08 2.27562e-22 -2.64705e-07 2.01546e-22 0)
(1.09669e-06 -6.33663e-07 4.84858e-20 -2.61625e-07 1.05635e-19 -1.23366e-34)
(1.04452e-06 -3.83005e-07 2.315e-26 -2.91647e-07 1.11922e-27 0)
(9.83077e-07 -2.18615e-07 -1.14387e-21 -2.76083e-07 -5.61944e-22 0)
(9.25605e-07 -1.08482e-07 1.03987e-22 -2.71634e-07 -3.78754e-24 0)
(8.72445e-07 -3.3095e-08 -1.45793e-22 -2.58058e-07 1.51501e-23 0)
(8.24269e-07 1.76883e-08 3.47398e-22 -2.48771e-07 3.21334e-22 0)
(7.81464e-07 5.28971e-08 -3.90095e-23 -2.38287e-07 1.13547e-23 0)
(7.43494e-07 7.66645e-08 3.66799e-22 -2.30969e-07 2.45798e-22 0)
(7.0919e-07 9.30335e-08 -7.90697e-23 -2.22435e-07 -1.69307e-22 0)
(6.79359e-07 1.06368e-07 -1.45055e-22 -2.20006e-07 -1.17383e-22 0)
(1.27482e-06 -5.76969e-07 3.5839e-20 -3.69249e-07 9.92e-20 -1.29382e-34)
(1.15444e-06 -3.28927e-07 2.11181e-26 -3.40171e-07 4.47584e-27 0)
(1.04751e-06 -1.69247e-07 -1.14287e-26 -2.85396e-07 -1.7819e-27 0)
(9.57803e-07 -6.48488e-08 9.19259e-23 -2.5655e-07 1.1464e-23 0)
(8.82379e-07 3.84031e-09 -4.95136e-22 -2.26926e-07 -3.01895e-22 0)
(8.1911e-07 4.82172e-08 5.65345e-24 -2.08296e-07 -2.72226e-26 0)
(7.66056e-07 7.74989e-08 3.68549e-22 -1.92284e-07 2.50246e-22 0)
(7.21279e-07 9.623e-08 7.83613e-22 -1.82182e-07 5.74444e-22 0)
(6.82551e-07 1.0796e-07 1.41958e-22 -1.72727e-07 1.04426e-22 0)
(6.49776e-07 1.17531e-07 -2.47809e-22 -1.69775e-07 -1.95526e-22 0)
(1.43787e-06 -4.82463e-07 2.58719e-20 -4.70412e-07 8.7653e-20 -2.78319e-34)
(1.25248e-06 -2.51253e-07 3.3139e-22 -3.81503e-07 1.33199e-22 0)
(1.09829e-06 -1.08574e-07 3.50243e-22 -2.84871e-07 1.59759e-22 0)
(9.76324e-07 -1.90331e-08 -7.55887e-23 -2.31673e-07 -2.27423e-23 0)
(8.79864e-07 3.65479e-08 3.57865e-22 -1.87313e-07 2.40087e-22 0)
(8.03323e-07 7.03478e-08 -3.29338e-22 -1.61091e-07 -2.27398e-22 0)
(7.41947e-07 9.12321e-08 9.40095e-23 -1.41317e-07 6.47781e-24 0)
(6.92034e-07 1.03537e-07 -2.9414e-22 -1.29822e-07 -1.93402e-22 0)
(6.50369e-07 1.10079e-07 -2.04832e-23 -1.20672e-07 2.21222e-24 0)
(6.15643e-07 1.15515e-07 -1.49109e-22 -1.1784e-07 -9.77716e-23 0)
(1.59075e-06 -3.49826e-07 1.58217e-20 -5.57721e-07 7.0907e-20 -1.13815e-35)
(1.33512e-06 -1.45981e-07 -8.83397e-22 -4.0544e-07 -3.20156e-22 0)
(1.13182e-06 -3.5668e-08 6.84861e-24 -2.66232e-07 3.77066e-24 0)
(9.80199e-07 2.63764e-08 1.10573e-22 -1.93127e-07 5.64184e-23 0)
(8.66139e-07 6.15356e-08 8.18446e-22 -1.38861e-07 4.09221e-22 0)
(7.79943e-07 8.08596e-08 -4.85139e-23 -1.09247e-07 -1.55437e-23 0)
(7.13257e-07 9.17322e-08 1.20916e-27 -8.89947e-08 2.52311e-28 0)
(6.60543e-07 9.71775e-08 -2.87843e-22 -7.8308e-08 -1.52754e-22 0)
(6.17673e-07 9.89039e-08 7.0378e-24 -7.09486e-08 4.46607e-25 0)
(5.82117e-07 1.00579e-07 2.15868e-23 -6.89876e-08 1.07954e-23 0)
(1.70898e-06 -1.62522e-07 6.74461e-21 -6.08994e-07 5.00325e-20 1.17161e-34)
(1.37545e-06 -1.279e-08 -9.73313e-22 -3.85217e-07 -4.11143e-22 0)
(1.12543e-06 3.96447e-08 1.01848e-22 -2.11886e-07 8.69025e-23 0)
(9.54964e-07 5.91679e-08 9.57123e-23 -1.32911e-07 7.60379e-23 0)
(8.34959e-07 6.8884e-08 -4.00663e-23 -8.13237e-08 -2.46838e-23 0)
(7.47482e-07 7.21204e-08 3.18646e-22 -5.64221e-08 1.16685e-22 0)
(6.81313e-07 7.36623e-08 1.74899e-23 -4.08827e-08 5.60169e-24 0)
(6.29381e-07 7.35425e-08 5.13979e-22 -3.38032e-08 1.98267e-22 0)
(5.87454e-07 7.21787e-08 1.13467e-22 -2.96121e-08 4.42037e-23 0)
(5.52215e-07 7.14514e-08 6.34803e-23 -2.9058e-08 2.53629e-23 0)
(1.8146e-06 1.49412e-07 1.61637e-21 -5.61858e-07 2.84309e-20 1.22863e-34)
(1.34098e-06 1.6697e-07 -7.46798e-23 -2.53469e-07 -1.29443e-22 0)
(1.07807e-06 1.10713e-07 3.38036e-22 -1.06245e-07 1.44903e-22 0)
(9.14344e-07 7.22174e-08 1.74204e-23 -5.25414e-08 2.45589e-23 0)
(8.04248e-07 5.71085e-08 5.95523e-28 -2.482e-08 5.59237e-28 0)
(7.23094e-07 4.86132e-08 3.23071e-22 -1.3698e-08 5.90901e-23 0)
(6.61462e-07 4.5486e-08 5.03573e-24 -7.76496e-09 1.5621e-24 0)
(6.11965e-07 4.36189e-08 2.47553e-22 -5.77147e-09 4.76335e-23 0)
(5.71512e-07 4.21394e-08 -2.76272e-24 -4.88255e-09 -2.74006e-25 0)
(5.36517e-07 4.11106e-08 -4.17091e-24 -5.21225e-09 -9.18266e-25 0)
(-1.7605e-09 1.48903e-09 3.93372e-20 -1.8703e-09 2.00224e-20 1.7918e-34)
(2.11195e-09 -4.3655e-09 -2.05247e-23 -2.11744e-09 1.82348e-20 1.54423e-36)
(2.12319e-08 -1.41641e-08 -2.38607e-22 -1.13628e-08 1.75017e-20 1.92497e-35)
(5.13941e-08 -2.19981e-08 -2.14189e-24 -2.51489e-08 1.77588e-20 0)
(8.61417e-08 -2.68221e-08 -3.3676e-23 -4.04754e-08 1.73805e-20 -1.54564e-36)
(1.22472e-07 -2.95599e-08 -3.26452e-22 -5.62462e-08 1.77204e-20 3.23326e-35)
(1.5797e-07 -3.06227e-08 7.10491e-23 -7.14757e-08 1.81057e-20 1.54616e-36)
(1.91817e-07 -3.06916e-08 -2.17258e-22 -8.58602e-08 1.78784e-20 2.94195e-35)
(2.22869e-07 -2.98546e-08 1.72237e-22 -9.90998e-08 1.79518e-20 -1.27766e-35)
(2.51638e-07 -2.92056e-08 5.15112e-22 -1.11021e-07 1.78694e-20 -3.85615e-35)
(3.67075e-09 -4.71365e-09 4.02217e-20 -3.19086e-09 5.04503e-21 5.01275e-35)
(2.2613e-08 -2.64089e-08 2.6187e-22 -1.74904e-09 2.87832e-22 0)
(5.71775e-08 -5.03668e-08 -2.45077e-22 -1.61188e-08 -2.46693e-22 0)
(9.56297e-08 -6.86687e-08 2.37021e-24 -3.55151e-08 -2.03947e-22 0)
(1.34213e-07 -7.99196e-08 0 -5.48552e-08 0 0)
(1.70813e-07 -8.62209e-08 -3.71864e-22 -7.30814e-08 -5.58559e-23 0)
(2.04537e-07 -8.84851e-08 6.27033e-23 -8.94848e-08 3.20378e-22 0)
(2.35525e-07 -8.83207e-08 4.68152e-24 -1.04158e-07 1.72376e-23 0)
(2.62829e-07 -8.58603e-08 -2.00456e-22 -1.17056e-07 -5.82678e-22 0)
(2.88186e-07 -8.38981e-08 1.46871e-22 -1.28021e-07 2.31043e-23 0)
(5.76193e-09 -2.40054e-08 4.09348e-20 5.46912e-09 8.13443e-21 -2.22456e-36)
(4.2034e-08 -6.62654e-08 2.67796e-22 7.64104e-10 2.84292e-22 0)
(9.08416e-08 -9.5941e-08 2.80124e-22 -2.15762e-08 5.90954e-23 0)
(1.38767e-07 -1.15815e-07 1.43846e-23 -4.9312e-08 -1.96658e-22 0)
(1.8288e-07 -1.26759e-07 0 -7.48849e-08 0 0)
(2.21692e-07 -1.31901e-07 -4.16113e-22 -9.73259e-08 -1.09313e-22 0)
(2.55404e-07 -1.32517e-07 -5.67578e-22 -1.16181e-07 -1.59917e-22 0)
(2.85047e-07 -1.30387e-07 3.75509e-22 -1.32064e-07 2.30301e-22 0)
(3.09692e-07 -1.25753e-07 2.28051e-24 -1.45025e-07 7.33872e-24 0)
(3.32691e-07 -1.21857e-07 -3.37747e-22 -1.55569e-07 -2.14159e-22 0)
(8.91437e-09 -5.42465e-08 4.27094e-20 2.60644e-08 1.17674e-20 -3.92084e-35)
(6.86269e-08 -1.14043e-07 6.59958e-23 3.38902e-09 -2.38338e-22 0)
(1.30644e-07 -1.45239e-07 3.07806e-22 -2.89157e-08 6.05991e-23 0)
(1.87177e-07 -1.6272e-07 0 -6.48563e-08 0 0)
(2.36148e-07 -1.69949e-07 -5.24527e-22 -9.61453e-08 1.94802e-22 0)
(2.77099e-07 -1.7128e-07 6.37871e-24 -1.22629e-07 4.83955e-22 0)
(3.10976e-07 -1.68345e-07 -2.61339e-23 -1.44015e-07 -2.60017e-22 0)
(3.396e-07 -1.62924e-07 -7.52199e-23 -1.61362e-07 -4.01385e-22 0)
(3.61923e-07 -1.5539e-07 1.71336e-22 -1.74769e-07 5.58747e-23 0)
(3.82958e-07 -1.49022e-07 3.19825e-22 -1.85317e-07 1.20493e-22 0)
(1.7078e-08 -9.69619e-08 4.26569e-20 5.46933e-08 1.63416e-20 8.38822e-35)
(1.06069e-07 -1.66059e-07 -5.40282e-22 2.77302e-09 3.6154e-22 0)
(1.81329e-07 -1.94082e-07 -3.27708e-22 -4.30486e-08 -9.68442e-23 0)
(2.45184e-07 -2.05718e-07 -8.83588e-23 -8.78885e-08 3.54606e-22 0)
(2.9737e-07 -2.06462e-07 -3.46433e-24 -1.24361e-07 2.18775e-23 0)
(3.39111e-07 -2.01876e-07 5.05203e-22 -1.54092e-07 -1.35077e-22 0)
(3.72146e-07 -1.93871e-07 2.20101e-22 -1.77222e-07 5.80746e-23 0)
(3.99003e-07 -1.84069e-07 0 -1.95354e-07 0 0)
(4.18556e-07 -1.7306e-07 -2.35121e-22 -2.08674e-07 -3.09674e-22 0)
(4.37276e-07 -1.63699e-07 9.37286e-23 -2.18818e-07 2.2887e-23 0)
(3.48587e-08 -1.53084e-07 4.59397e-20 8.68984e-08 2.08099e-20 -9.58597e-35)
(1.55625e-07 -2.18791e-07 2.20394e-22 -1.19926e-09 -4.29508e-22 0)
(2.43394e-07 -2.38011e-07 -2.70674e-22 -6.24175e-08 -2.92342e-22 0)
(3.12728e-07 -2.40814e-07 5.94403e-23 -1.15959e-07 -1.65095e-22 0)
(3.6611e-07 -2.33335e-07 5.72471e-22 -1.56564e-07 1.92265e-22 0)
(4.06872e-07 -2.21782e-07 -5.52177e-22 -1.88384e-07 6.09527e-23 0)
(4.37673e-07 -2.08068e-07 -6.22074e-25 -2.12244e-07 1.46666e-23 0)
(4.6165e-07 -1.9351e-07 -4.30258e-22 -2.30312e-07 -2.96944e-22 0)
(4.77728e-07 -1.78927e-07 9.07228e-25 -2.43005e-07 5.75696e-24 0)
(4.93465e-07 -1.66424e-07 -4.69743e-22 -2.52256e-07 -2.15388e-22 0)
(6.74009e-08 -2.21994e-07 5.21702e-20 1.15825e-07 2.87654e-20 -7.86224e-35)
(2.17719e-07 -2.70141e-07 1.21991e-23 -9.91347e-09 -1.84708e-23 0)
(3.15704e-07 -2.74413e-07 -8.93673e-27 -8.65125e-08 1.52578e-26 0)
(3.88039e-07 -2.65402e-07 -5.84875e-22 -1.47961e-07 -4.10587e-22 0)
(4.40366e-07 -2.48328e-07 -9.91652e-23 -1.91489e-07 2.65532e-22 0)
(4.78209e-07 -2.29248e-07 -5.35886e-22 -2.24187e-07 -2.18726e-22 0)
(5.05256e-07 -2.09673e-07 9.63333e-22 -2.4768e-07 4.30634e-22 0)
(5.25088e-07 -1.90439e-07 -1.12827e-25 -2.64779e-07 1.15176e-23 0)
(5.3693e-07 -1.72528e-07 1.89549e-22 -2.76189e-07 -6.1527e-25 0)
(5.48838e-07 -1.56989e-07 -2.56937e-22 -2.84029e-07 -1.22685e-22 0)
(1.19471e-07 -3.01125e-07 5.98496e-20 1.35037e-07 3.88102e-20 -1.29375e-34)
(2.92135e-07 -3.18094e-07 3.14186e-22 -2.3955e-08 -3.75156e-22 0)
(3.95964e-07 -3.01553e-07 -1.21262e-22 -1.13252e-07 1.61569e-22 0)
(4.67967e-07 -2.78082e-07 7.41209e-23 -1.80631e-07 -1.15556e-22 0)
(5.16748e-07 -2.50482e-07 6.60772e-27 -2.25464e-07 -1.2982e-26 0)
(5.49723e-07 -2.23784e-07 6.21808e-22 -2.57737e-07 5.32018e-23 0)
(5.71611e-07 -1.98655e-07 4.65682e-23 -2.79892e-07 -2.02576e-22 0)
(5.86146e-07 -1.75273e-07 -1.54932e-23 -2.95188e-07 1.66713e-22 0)
(5.93217e-07 -1.54617e-07 2.21892e-24 -3.05018e-07 8.32551e-23 0)
(6.00438e-07 -1.36449e-07 1.96438e-22 -3.1089e-07 1.83763e-22 0)
(1.94836e-07 -3.85833e-07 6.53284e-20 1.38491e-07 5.15489e-20 1.51653e-34)
(3.78343e-07 -3.60667e-07 -1.01051e-22 -4.43226e-08 6.88362e-22 0)
(4.81712e-07 -3.1864e-07 -1.17213e-26 -1.41261e-07 1.22875e-26 0)
(5.49233e-07 -2.78721e-07 8.04588e-22 -2.11505e-07 1.89708e-22 0)
(5.91736e-07 -2.40101e-07 6.14576e-22 -2.55587e-07 3.07487e-22 0)
(6.17899e-07 -2.06067e-07 5.54467e-22 -2.8607e-07 2.77503e-22 0)
(6.33294e-07 -1.75948e-07 -6.04919e-23 -3.05831e-07 1.74084e-22 0)
(6.41482e-07 -1.49292e-07 -6.67713e-22 -3.18769e-07 -3.73897e-22 0)
(6.43399e-07 -1.26594e-07 4.09932e-22 -3.26531e-07 9.75763e-23 0)
(6.45379e-07 -1.063e-07 1.83892e-22 -3.30962e-07 1.09516e-22 0)
(2.95538e-07 -4.69967e-07 6.92945e-20 1.21893e-07 6.41452e-20 1.99714e-35)
(4.75226e-07 -3.95763e-07 -2.03695e-22 -7.14479e-08 1.50256e-22 0)
(5.70303e-07 -3.25535e-07 -3.95125e-22 -1.69024e-07 -1.84622e-22 0)
(6.28505e-07 -2.682e-07 1.71147e-21 -2.38071e-07 4.02618e-22 0)
(6.61738e-07 -2.18626e-07 1.04694e-23 -2.78957e-07 -1.19096e-23 0)
(6.79131e-07 -1.77787e-07 -5.45302e-22 -3.06092e-07 -3.10199e-22 0)
(6.86776e-07 -1.43449e-07 -5.84189e-22 -3.22557e-07 -9.26019e-23 0)
(6.87696e-07 -1.14487e-07 -2.20174e-22 -3.32184e-07 -1.3194e-22 0)
(6.84686e-07 -9.10064e-08 2.43496e-23 -3.38414e-07 -1.82242e-22 0)
(6.79718e-07 -7.06438e-08 1.10268e-22 -3.38959e-07 2.3055e-22 0)
(2.7754e-07 -2.70582e-08 8.13094e-22 -1.22108e-07 1.81254e-20 -1.14858e-35)
(3.00112e-07 -2.40943e-08 9.208e-22 -1.31348e-07 1.78811e-20 -2.52563e-35)
(3.20847e-07 -2.1518e-08 5.16998e-22 -1.39923e-07 1.74312e-20 -1.47429e-35)
(3.39493e-07 -1.91801e-08 5.5827e-22 -1.47682e-07 1.76684e-20 -6.47416e-37)
(3.56313e-07 -1.70123e-08 3.24989e-22 -1.54661e-07 1.76964e-20 3.84755e-35)
(3.71387e-07 -1.50714e-08 5.87374e-22 -1.60953e-07 1.77889e-20 0)
(3.84901e-07 -1.32922e-08 5.54072e-22 -1.66584e-07 1.77813e-20 0)
(3.96947e-07 -1.16882e-08 6.30969e-22 -1.71621e-07 1.79099e-20 5.00666e-37)
(4.07668e-07 -1.02169e-08 5.8452e-22 -1.76105e-07 1.78038e-20 -1.30931e-35)
(4.17145e-07 -8.87002e-09 6.84324e-22 -1.8008e-07 1.80355e-20 8.49819e-37)
(4.25472e-07 -7.61672e-09 7.14526e-22 -1.83578e-07 1.78679e-20 -3.96888e-35)
(4.32708e-07 -6.44043e-09 2.82418e-22 -1.86628e-07 1.77101e-20 1.32985e-35)
(4.38904e-07 -5.31697e-09 6.48211e-22 -1.89247e-07 1.7859e-20 -4.01035e-35)
(4.44092e-07 -4.22949e-09 -6.00611e-23 -1.9145e-07 1.731e-20 -8.05473e-37)
(4.48284e-07 -3.16484e-09 2.97181e-22 -1.93245e-07 1.78387e-20 1.37362e-35)
(4.51505e-07 -2.12124e-09 2.37969e-22 -1.94638e-07 1.77296e-20 -3.25231e-45)
(4.53743e-07 -1.11382e-09 7.46496e-23 -1.95624e-07 1.7579e-20 -1.46759e-37)
(4.55081e-07 -1.99235e-10 2.90258e-22 -1.96219e-07 1.78721e-20 1.05319e-37)
(4.55512e-07 5.02665e-10 1.87801e-22 -1.96402e-07 1.75392e-20 -4.15094e-35)
(4.55367e-07 6.68624e-10 3.37675e-20 -1.9614e-07 1.72972e-20 -8.62499e-35)
(3.09042e-07 -7.80886e-08 3.594e-22 -1.37906e-07 4.42514e-22 0)
(3.25771e-07 -7.02408e-08 2.32942e-22 -1.44964e-07 6.43135e-23 0)
(3.41772e-07 -6.33293e-08 1.74548e-23 -1.51465e-07 -1.00892e-22 0)
(3.56122e-07 -5.68822e-08 5.29221e-22 -1.57432e-07 4.78068e-22 0)
(3.69337e-07 -5.08407e-08 -1.01676e-22 -1.62756e-07 -2.4242e-23 0)
(3.81267e-07 -4.53826e-08 -4.3157e-22 -1.67645e-07 -4.38096e-22 0)
(3.92132e-07 -4.03311e-08 2.20015e-22 -1.72033e-07 8.18851e-23 0)
(4.01914e-07 -3.57441e-08 0 -1.7602e-07 0 0)
(4.10743e-07 -3.15119e-08 1.04836e-22 -1.79607e-07 3.73615e-23 0)
(4.18643e-07 -2.7618e-08 2.15545e-22 -1.82841e-07 8.35423e-23 0)
(4.25694e-07 -2.39887e-08 6.46503e-22 -1.85736e-07 3.35333e-22 0)
(4.31928e-07 -2.05809e-08 2.91856e-24 -1.88315e-07 3.34037e-24 0)
(4.37391e-07 -1.73382e-08 8.38535e-23 -1.90589e-07 -6.49208e-23 0)
(4.42113e-07 -1.42224e-08 1.23436e-22 -1.92566e-07 1.41356e-22 0)
(4.46112e-07 -1.12022e-08 1.26634e-22 -1.9424e-07 1.45391e-22 0)
(4.49414e-07 -8.27622e-09 -1.25448e-22 -1.95594e-07 -1.44758e-22 0)
(4.51995e-07 -5.47965e-09 -1.2616e-22 -1.96581e-07 -1.46398e-22 0)
(4.53887e-07 -2.93344e-09 -2.53363e-22 -1.9712e-07 -2.95725e-22 0)
(4.54941e-07 -8.21703e-10 -1.91702e-24 -1.97027e-07 -2.10079e-24 0)
(4.55204e-07 3.02027e-10 3.42062e-20 -1.96001e-07 4.86981e-22 7.5979e-35)
(3.4875e-07 -1.13157e-07 9.83515e-23 -1.63711e-07 1.34686e-22 0)
(3.59274e-07 -1.02468e-07 1.34095e-22 -1.67907e-07 4.80979e-23 0)
(3.70181e-07 -9.28805e-08 -3.11757e-22 -1.7143e-07 -3.93102e-22 0)
(3.79736e-07 -8.39806e-08 -2.78801e-23 -1.74773e-07 7.15995e-23 0)
(3.88896e-07 -7.55026e-08 5.686e-22 -1.77625e-07 4.74402e-22 0)
(3.97197e-07 -6.78081e-08 -4.51715e-22 -1.80357e-07 -4.32014e-22 0)
(4.04976e-07 -6.06094e-08 -1.20272e-22 -1.82818e-07 -1.39461e-22 0)
(4.1207e-07 -5.40335e-08 2.29868e-22 -1.8514e-07 2.61769e-22 0)
(4.18628e-07 -4.79291e-08 9.07882e-25 -1.87292e-07 -1.69564e-22 0)
(4.246e-07 -4.22931e-08 -2.43233e-22 -1.89314e-07 -2.73823e-22 0)
(4.3006e-07 -3.70334e-08 2.33074e-22 -1.91204e-07 2.61436e-22 0)
(4.35003e-07 -3.21045e-08 3.60155e-22 -1.92975e-07 4.04194e-22 0)
(4.39466e-07 -2.74381e-08 2.7557e-24 -1.94624e-07 3.04065e-24 0)
(4.43457e-07 -2.29874e-08 -1.23318e-22 -1.9614e-07 -1.39189e-22 0)
(4.46983e-07 -1.87097e-08 1.22078e-22 -1.97496e-07 1.38619e-22 0)
(4.50046e-07 -1.45899e-08 1.79956e-29 -1.98636e-07 2.0063e-29 0)
(4.52581e-07 -1.06375e-08 -1.25777e-22 -1.99451e-07 -1.44615e-22 0)
(4.54556e-07 -6.91474e-09 1.70963e-23 -1.99764e-07 1.04257e-22 0)
(4.55651e-07 -3.53616e-09 -4.13277e-22 -1.99204e-07 -5.42668e-23 0)
(4.55838e-07 -6.54341e-10 3.43057e-20 -1.97356e-07 4.88828e-22 5.66358e-38)
(3.94298e-07 -1.37887e-07 0 -1.91877e-07 0 0)
(3.98389e-07 -1.25646e-07 1.43353e-22 -1.93441e-07 5.24694e-23 0)
(4.0413e-07 -1.14358e-07 1.12281e-22 -1.94141e-07 1.28501e-22 0)
(4.08675e-07 -1.04063e-07 1.23232e-22 -1.95029e-07 1.42866e-22 0)
(4.1357e-07 -9.40441e-08 0 -1.9546e-07 0 0)
(4.17962e-07 -8.49507e-08 1.65844e-23 -1.96042e-07 -7.19515e-23 0)
(4.22382e-07 -7.63373e-08 -3.6866e-22 -1.96533e-07 -2.27066e-22 0)
(4.26496e-07 -6.84321e-08 -2.3537e-22 -1.97114e-07 -2.56104e-22 0)
(4.30499e-07 -6.10431e-08 -1.32251e-22 -1.9773e-07 -6.13068e-23 0)
(4.34264e-07 -5.41952e-08 -6.21658e-25 -1.98421e-07 1.63414e-22 0)
(4.37858e-07 -4.77885e-08 -1.16257e-22 -1.99174e-07 3.56226e-23 0)
(4.41239e-07 -4.17822e-08 2.43348e-22 -1.9999e-07 1.04888e-22 0)
(4.44425e-07 -3.61035e-08 2.30947e-22 -2.00853e-07 1.20331e-23 0)
(4.47398e-07 -3.07e-08 5.69058e-24 -2.01737e-07 8.73649e-23 0)
(4.5014e-07 -2.55186e-08 1.00368e-23 -2.02592e-07 9.26252e-23 0)
(4.52627e-07 -2.05192e-08 -1.24355e-22 -2.03338e-07 -1.40074e-22 0)
(4.54747e-07 -1.5677e-08 -2.6559e-29 -2.03829e-07 -2.99332e-29 0)
(4.56444e-07 -1.09592e-08 2.65246e-22 -2.03854e-07 3.89215e-22 0)
(4.5731e-07 -6.4065e-09 -1.35432e-23 -2.02999e-07 -1.02213e-22 0)
(4.57357e-07 -1.6891e-09 3.38133e-20 -2.00839e-07 1.23891e-22 -1.09764e-34)
(4.43697e-07 -1.50668e-07 1.11045e-23 -2.23356e-07 1.79219e-22 0)
(4.41116e-07 -1.3838e-07 -1.55764e-22 -2.22224e-07 -6.83161e-23 0)
(4.41663e-07 -1.26396e-07 -3.91853e-22 -2.19865e-07 -3.19958e-22 0)
(4.41066e-07 -1.15846e-07 2.57951e-22 -2.18193e-07 1.76018e-22 0)
(4.41624e-07 -1.05246e-07 6.71268e-22 -2.16053e-07 4.42066e-22 0)
(4.41956e-07 -9.56685e-08 -1.23356e-22 -2.14317e-07 -1.29125e-22 0)
(4.42873e-07 -8.64573e-08 0 -2.12665e-07 0 0)
(4.43827e-07 -7.79571e-08 1.20132e-22 -2.1131e-07 1.25194e-22 0)
(4.45086e-07 -6.9946e-08 -3.86406e-22 -2.10197e-07 -1.65858e-22 0)
(4.46442e-07 -6.24823e-08 -2.5074e-22 -2.09362e-07 -1.85237e-22 0)
(4.47961e-07 -5.54709e-08 1.3898e-23 -2.08792e-07 -1.42513e-22 0)
(4.49562e-07 -4.88795e-08 -1.26464e-22 -2.08476e-07 -2.13815e-22 0)
(4.51244e-07 -4.26408e-08 -1.26561e-23 -2.08389e-07 2.24216e-22 0)
(4.52967e-07 -3.66964e-08 2.47132e-22 -2.08495e-07 3.48505e-22 0)
(4.54688e-07 -3.09824e-08 1.20234e-22 -2.0873e-07 5.15114e-23 0)
(4.56361e-07 -2.54277e-08 -4.59731e-24 -2.09001e-07 -8.67562e-23 0)
(4.5785e-07 -1.99683e-08 2.33065e-22 -2.09149e-07 9.63684e-23 0)
(4.59087e-07 -1.44674e-08 1.14631e-22 -2.08965e-07 4.62617e-23 0)
(4.59657e-07 -8.92154e-09 4.70611e-22 -2.08059e-07 3.72502e-22 0)
(4.59599e-07 -2.59731e-09 3.48252e-20 -2.06041e-07 1.17455e-21 1.08691e-34)
(4.94799e-07 -1.52169e-07 9.19177e-23 -2.54595e-07 1.26364e-22 0)
(4.85486e-07 -1.4142e-07 2.21468e-24 -2.5117e-07 4.85066e-24 0)
(4.81002e-07 -1.29702e-07 -2.83261e-22 -2.45932e-07 -1.96759e-22 0)
(4.75269e-07 -1.19937e-07 -6.80287e-22 -2.41901e-07 -5.10183e-22 0)
(4.7157e-07 -1.09621e-07 2.6575e-22 -2.37385e-07 1.81484e-22 0)
(4.67849e-07 -1.00336e-07 2.50212e-22 -2.33447e-07 2.4876e-22 0)
(4.65253e-07 -9.12401e-08 -1.22592e-22 -2.29757e-07 -1.22065e-22 0)
(4.63005e-07 -8.27764e-08 -1.96067e-23 -2.26515e-07 5.45753e-23 0)
(4.61442e-07 -7.47268e-08 5.37626e-22 -2.23691e-07 3.212e-22 0)
(4.60286e-07 -6.71673e-08 -3.59507e-22 -2.21307e-07 -3.67286e-22 0)
(4.596e-07 -6.0023e-08 -1.2788e-22 -2.1936e-07 -1.32276e-22 0)
(4.59273e-07 -5.32716e-08 3.4777e-22 -2.17834e-07 5.15315e-22 0)
(4.59287e-07 -4.68558e-08 -5.07532e-22 -2.16709e-07 -1.52237e-22 0)
(4.59583e-07 -4.07157e-08 -3.61959e-22 -2.15945e-07 -3.87154e-22 0)
(4.60105e-07 -3.4781e-08 8.26317e-25 -2.15482e-07 -7.80148e-23 0)
(4.6079e-07 -2.89542e-08 -4.87608e-22 -2.15231e-07 -3.73913e-22 0)
(4.61511e-07 -2.31417e-08 -3.55001e-24 -2.15054e-07 -3.34269e-24 0)
(4.62189e-07 -1.71169e-08 4.79317e-22 -2.1477e-07 4.58846e-22 0)
(4.62482e-07 -1.08509e-08 7.60946e-24 -2.14068e-07 9.4465e-23 0)
(4.62403e-07 -3.30128e-09 3.49799e-20 -2.12615e-07 9.52288e-22 -7.8676e-37)
(5.45118e-07 -1.42388e-07 -9.63218e-23 -2.83983e-07 -1.23632e-22 0)
(5.29373e-07 -1.34895e-07 1.33047e-22 -2.78898e-07 1.21629e-22 0)
(5.20346e-07 -1.24447e-07 1.64172e-22 -2.71272e-07 8.60084e-23 0)
(5.09724e-07 -1.16454e-07 -1.29813e-22 -2.65167e-07 -1.21893e-22 0)
(5.02021e-07 -1.07346e-07 -3.07381e-22 -2.58608e-07 -1.54029e-22 0)
(4.94413e-07 -9.90957e-08 1.50058e-22 -2.52606e-07 7.48711e-23 0)
(4.88386e-07 -9.08151e-08 4.2477e-22 -2.46988e-07 2.73979e-22 0)
(4.82997e-07 -8.29618e-08 -6.83422e-22 -2.419e-07 -4.5994e-22 0)
(4.78618e-07 -7.539e-08 -4.21544e-22 -2.37382e-07 -2.78358e-22 0)
(4.7494e-07 -6.81845e-08 6.61641e-22 -2.33448e-07 4.4912e-22 0)
(4.72005e-07 -6.13158e-08 -2.69787e-22 -2.30109e-07 -1.29527e-22 0)
(4.69688e-07 -5.47735e-08 3.5765e-22 -2.27354e-07 3.66752e-22 0)
(4.67955e-07 -4.85199e-08 3.84965e-22 -2.25164e-07 2.51478e-22 0)
(4.66732e-07 -4.24988e-08 -2.24838e-22 -2.23507e-07 -3.13077e-22 0)
(4.65958e-07 -3.66384e-08 -1.4649e-22 -2.22334e-07 7.56127e-23 0)
(4.65563e-07 -3.08226e-08 6.94944e-24 -2.21575e-07 6.42023e-24 0)
(4.65444e-07 -2.49374e-08 -5.94154e-22 -2.21124e-07 -4.95336e-22 0)
(4.65516e-07 -1.86917e-08 1.18007e-22 -2.2085e-07 1.32688e-22 0)
(4.65564e-07 -1.20435e-08 2.33874e-22 -2.20552e-07 1.83371e-22 0)
(4.65531e-07 -3.74994e-09 3.50814e-20 -2.19976e-07 9.56926e-22 -3.22185e-37)
(5.92029e-07 -1.22052e-07 1.15675e-24 -3.0894e-07 3.93588e-24 0)
(5.70603e-07 -1.19489e-07 -1.37546e-22 -3.03013e-07 -1.21156e-22 0)
(5.57801e-07 -1.11393e-07 2.94506e-23 -2.94008e-07 -3.20064e-23 0)
(5.42827e-07 -1.05835e-07 0 -2.86196e-07 0 0)
(5.31525e-07 -9.87578e-08 0 -2.7823e-07 0 0)
(5.20482e-07 -9.21206e-08 -4.11852e-22 -2.70635e-07 -3.23013e-22 0)
(5.11292e-07 -8.52946e-08 3.66495e-22 -2.63513e-07 3.42164e-22 0)
(5.03007e-07 -7.86093e-08 7.72616e-22 -2.56896e-07 6.74744e-22 0)
(4.95942e-07 -7.20403e-08 -5.84479e-22 -2.50893e-07 -5.61977e-22 0)
(4.89823e-07 -6.56532e-08 -5.11922e-22 -2.4553e-07 -4.36586e-22 0)
(4.84664e-07 -5.94686e-08 2.36116e-22 -2.40849e-07 2.35065e-22 0)
(4.8035e-07 -5.34938e-08 -2.30183e-23 -2.36864e-07 4.6423e-23 0)
(4.76835e-07 -4.77174e-08 4.03828e-22 -2.3358e-07 2.00354e-22 0)
(4.74043e-07 -4.20982e-08 6.29154e-22 -2.30986e-07 4.36246e-22 0)
(4.71917e-07 -3.65746e-08 8.58948e-24 -2.29062e-07 7.85974e-24 0)
(4.70387e-07 -3.10251e-08 2.86012e-22 -2.27769e-07 -7.74767e-23 0)
(4.69391e-07 -2.53293e-08 0 -2.27056e-07 0 0)
(4.68838e-07 -1.91617e-08 -2.40946e-22 -2.26853e-07 -1.06924e-22 0)
(4.68682e-07 -1.24772e-08 1.1592e-22 -2.27083e-07 4.93078e-23 0)
(4.68753e-07 -3.93239e-09 3.55229e-20 -2.27592e-07 1.04941e-21 -8.55004e-37)
(6.3353e-07 -9.3125e-08 -9.0644e-25 -3.27653e-07 -3.44154e-24 0)
(6.07242e-07 -9.63933e-08 1.70674e-22 -3.21479e-07 1.02234e-22 0)
(5.91803e-07 -9.23288e-08 -1.6976e-22 -3.13182e-07 -1.03629e-22 0)
(5.7347e-07 -8.96827e-08 -1.67081e-22 -3.04323e-07 -1.00938e-22 0)
(5.5892e-07 -8.54841e-08 4.58767e-22 -2.95456e-07 3.1359e-22 0)
(5.44947e-07 -8.08575e-08 3.26791e-22 -2.86554e-07 1.95603e-22 0)
(5.32867e-07 -7.58151e-08 -4.34086e-22 -2.78107e-07 -2.91187e-22 0)
(5.21992e-07 -7.05482e-08 5.75683e-23 -2.70166e-07 -6.09045e-23 0)
(5.12479e-07 -6.52038e-08 9.85819e-23 -2.62874e-07 9.15336e-23 0)
(5.04129e-07 -5.98614e-08 -5.338e-23 -2.56286e-07 7.18308e-23 0)
(4.96906e-07 -5.45915e-08 -4.40667e-22 -2.50453e-07 -2.4244e-22 0)
(4.90714e-07 -4.9422e-08 3.94561e-24 -2.45407e-07 3.8105e-24 0)
(4.85496e-07 -4.43629e-08 -2.01774e-22 -2.41169e-07 -2.74586e-22 0)
(4.81182e-07 -3.93882e-08 -6.81269e-24 -2.37753e-07 -6.24043e-24 0)
(4.77727e-07 -3.44464e-08 2.5738e-22 -2.35166e-07 1.25849e-22 0)
(4.75067e-07 -2.94225e-08 -5.13616e-24 -2.3341e-07 -4.49595e-24 0)
(4.73197e-07 -2.41979e-08 3.14116e-22 -2.32497e-07 4.21305e-22 0)
(4.72017e-07 -1.84389e-08 -1.1849e-22 -2.32423e-07 -5.32743e-23 0)
(4.71672e-07 -1.21005e-08 -5.55493e-22 -2.33252e-07 -5.50474e-22 0)
(4.71862e-07 -3.83237e-09 3.50574e-20 -2.34943e-07 5.53903e-22 -6.45334e-35)
(6.66579e-07 -5.6026e-08 -2.1759e-23 -3.39825e-07 -1.10031e-23 0)
(6.39341e-07 -6.31762e-08 -1.82982e-22 -3.32259e-07 -1.08126e-22 0)
(6.21697e-07 -6.48585e-08 1.486e-22 -3.2654e-07 1.16851e-22 0)
(6.02074e-07 -6.55392e-08 -3.89001e-22 -3.18479e-07 -3.54614e-22 0)
(5.84893e-07 -6.52136e-08 -4.00186e-22 -3.1009e-07 -3.33153e-22 0)
(5.68653e-07 -6.37217e-08 2.36839e-22 -3.01106e-07 2.44754e-22 0)
(5.53972e-07 -6.14158e-08 2.05913e-22 -2.9206e-07 2.45568e-22 0)
(5.40651e-07 -5.84316e-08 3.58755e-22 -2.83228e-07 3.23736e-22 0)
(5.28757e-07 -5.49778e-08 -4.20842e-22 -2.74843e-07 -3.14819e-22 0)
(5.18192e-07 -5.12106e-08 1.04471e-24 -2.67077e-07 8.61514e-24 0)
(5.08915e-07 -4.72551e-08 -5.13003e-24 -2.60049e-07 -2.56907e-23 0)
(5.00843e-07 -4.32008e-08 -3.29205e-22 -2.53848e-07 -3.22151e-22 0)
(4.93919e-07 -3.91017e-08 0 -2.4854e-07 0 0)
(4.88075e-07 -3.49711e-08 -2.98057e-22 -2.44176e-07 -9.75335e-23 0)
(4.83277e-07 -3.07881e-08 -1.3993e-24 -2.40806e-07 -5.9353e-24 0)
(4.79466e-07 -2.64623e-08 -3.84872e-22 -2.38479e-07 -1.88194e-22 0)
(4.76693e-07 -2.1894e-08 1.05484e-22 -2.37273e-07 1.11398e-22 0)
(4.74858e-07 -1.67751e-08 2.4272e-22 -2.37263e-07 1.116e-22 0)
(4.7431e-07 -1.10647e-08 3.01593e-24 -2.38663e-07 -2.37849e-25 0)
(4.74631e-07 -3.49447e-09 3.53529e-20 -2.41552e-07 5.00292e-22 -2.73143e-37)
(6.8277e-07 -2.54683e-08 1.88312e-22 -3.40893e-07 1.65846e-22 0)
(6.57945e-07 -2.92867e-08 -1.74143e-22 -3.3453e-07 -1.09738e-22 0)
(6.38866e-07 -3.63344e-08 -1.00924e-22 -3.30522e-07 -8.38763e-23 0)
(6.19387e-07 -3.96735e-08 1.67328e-22 -3.23984e-07 1.02559e-22 0)
(6.01346e-07 -4.20249e-08 -3.30662e-22 -3.16317e-07 -1.50936e-22 0)
(5.84224e-07 -4.30834e-08 -2.23004e-22 -3.07904e-07 -1.05786e-22 0)
(5.68434e-07 -4.31216e-08 -2.7812e-22 -2.99098e-07 -2.02221e-22 0)
(5.53874e-07 -4.23188e-08 3.3446e-23 -2.90274e-07 -2.31726e-23 0)
(5.40665e-07 -4.0836e-08 5.62124e-22 -2.81695e-07 3.5929e-22 0)
(5.28754e-07 -3.88422e-08 -1.93451e-23 -2.73589e-07 -2.08116e-23 0)
(5.18144e-07 -3.64689e-08 3.00421e-22 -2.6612e-07 1.70736e-22 0)
(5.08779e-07 -3.38263e-08 -1.48327e-23 -2.59424e-07 -1.6812e-23 0)
(5.00631e-07 -3.09902e-08 1.09839e-36 -2.53605e-07 1.11653e-36 0)
(4.93648e-07 -2.80002e-08 -1.32064e-22 -2.48757e-07 -6.60819e-23 0)
(4.87828e-07 -2.48624e-08 1.29097e-22 -2.44975e-07 6.31421e-23 0)
(4.83123e-07 -2.1522e-08 -5.80263e-24 -2.42352e-07 -8.37935e-24 0)
(4.79643e-07 -1.79092e-08 2.04639e-23 -2.41035e-07 -5.43365e-23 0)
(4.77286e-07 -1.37834e-08 1.17296e-24 -2.41165e-07 3.88484e-24 0)
(4.76558e-07 -9.11645e-09 -1.19133e-24 -2.43078e-07 1.54316e-24 0)
(4.76943e-07 -2.83215e-09 3.57256e-20 -2.46975e-07 1.8807e-22 3.18179e-37)
(6.693e-07 4.52288e-09 1.74867e-22 -3.28568e-07 1.3848e-22 0)
(6.52736e-07 1.35938e-10 0 -3.30389e-07 0 0)
(6.35469e-07 -8.46531e-09 -1.36421e-22 -3.27306e-07 -1.2032e-22 0)
(6.18197e-07 -1.41056e-08 1.78311e-36 -3.22345e-07 1.44561e-36 0)
(6.01726e-07 -1.85479e-08 4.08616e-37 -3.15783e-07 2.96995e-37 0)
(5.8582e-07 -2.16969e-08 1.93792e-36 -3.0829e-07 1.44384e-36 0)
(5.70892e-07 -2.37335e-08 2.97284e-36 -3.00218e-07 2.4058e-36 0)
(5.56885e-07 -2.48387e-08 -1.19551e-22 -2.9195e-07 -1.12146e-22 0)
(5.43972e-07 -2.51574e-08 0 -2.8377e-07 0 0)
(5.32145e-07 -2.48499e-08 1.1424e-22 -2.75924e-07 1.10809e-22 0)
(5.21458e-07 -2.40427e-08 -1.63682e-37 -2.68604e-07 -2.7468e-37 0)
(5.11897e-07 -2.28488e-08 -1.09893e-22 -2.6197e-07 -1.10367e-22 0)
(5.03473e-07 -2.13509e-08 1.08085e-22 -2.56157e-07 1.10428e-22 0)
(4.96169e-07 -1.96033e-08 1.55189e-36 -2.51286e-07 1.13301e-36 0)
(4.90016e-07 -1.7627e-08 -1.05196e-22 -2.47482e-07 -1.11051e-22 0)
(4.84996e-07 -1.54055e-08 -9.32483e-37 -2.44878e-07 -8.63347e-37 0)
(4.81268e-07 -1.28889e-08 1.03318e-22 -2.43664e-07 1.12362e-22 0)
(4.78744e-07 -9.92776e-09 1.02776e-22 -2.44022e-07 1.1334e-22 0)
(4.78051e-07 -6.52492e-09 -1.10924e-36 -2.46393e-07 -9.69044e-37 0)
(4.78606e-07 -1.93086e-09 3.58538e-20 -2.51006e-07 -9.83959e-37 -2.11505e-49)