/*--------------------------------*- C++ -*----------------------------------*\
  =========                 |
  \\      /  F ield         | OpenFOAM: The Open Source CFD Toolbox
   \\    /   O peration     | Website:  https://openfoam.org
    \\  /    A nd           | Version:  9
     \\/     M anipulation  |
\*---------------------------------------------------------------------------*/
FoamFile
{
    format      ascii;
    class       pointVectorField;
    location    "1";
    object      pointD;
}
// * * * * * * * * * * * * * * * * * * * * * * * * * * * * * * * * * * * * * //

dimensions      [0 1 0 0 0 0 0];

internalField   nonuniform List<vector> 
2142
(
(7.41132e-07 2.18455e-07 -1.01995e-20)
(6.86953e-07 2.52674e-07 0)
(6.49088e-07 2.77093e-07 0)
(6.21538e-07 2.96942e-07 0)
(6.01715e-07 3.13212e-07 0)
(5.87656e-07 3.27226e-07 0)
(5.77957e-07 3.39552e-07 0)
(5.71629e-07 3.50695e-07 0)
(5.67906e-07 3.60954e-07 0)
(5.66233e-07 3.70537e-07 0)
(5.66581e-07 3.80937e-07 0)
(6.77198e-07 2.00447e-07 -1.12725e-20)
(6.19853e-07 2.27408e-07 0)
(5.80106e-07 2.4641e-07 0)
(5.51356e-07 2.61996e-07 0)
(5.30722e-07 2.74742e-07 0)
(5.16062e-07 2.8577e-07 0)
(5.05855e-07 2.95477e-07 0)
(4.99052e-07 3.04287e-07 0)
(4.94825e-07 3.124e-07 0)
(4.92596e-07 3.20064e-07 0)
(4.82769e-07 3.20417e-07 0)
(6.10671e-07 1.82734e-07 -1.20247e-20)
(5.51769e-07 2.01614e-07 0)
(5.11194e-07 2.14786e-07 0)
(4.8201e-07 2.25911e-07 0)
(4.61141e-07 2.35075e-07 0)
(4.46323e-07 2.43141e-07 0)
(4.35955e-07 2.50298e-07 0)
(4.2894e-07 2.5686e-07 0)
(4.24425e-07 2.62914e-07 0)
(4.21788e-07 2.68698e-07 0)
(4.12979e-07 2.6807e-07 0)
(5.41818e-07 1.65473e-07 -1.23279e-20)
(4.83102e-07 1.75805e-07 0)
(4.42844e-07 1.82948e-07 0)
(4.14062e-07 1.89567e-07 0)
(3.93594e-07 1.95209e-07 0)
(3.79107e-07 2.00441e-07 0)
(3.68965e-07 2.05217e-07 0)
(3.62049e-07 2.0972e-07 0)
(3.57508e-07 2.13921e-07 0)
(3.54711e-07 2.18e-07 0)
(3.47098e-07 2.16707e-07 0)
(4.70884e-07 1.48756e-07 -1.20986e-20)
(4.14135e-07 1.50464e-07 0)
(3.75391e-07 1.51619e-07 0)
(3.47906e-07 1.53861e-07 0)
(3.28521e-07 1.56177e-07 0)
(3.14891e-07 1.58811e-07 0)
(3.05384e-07 1.6146e-07 0)
(2.9889e-07 1.64161e-07 0)
(2.94586e-07 1.66766e-07 0)
(2.91852e-07 1.69378e-07 0)
(2.85492e-07 1.67713e-07 0)
(3.98201e-07 1.32575e-07 -1.13111e-20)
(3.45087e-07 1.25971e-07 0)
(3.09058e-07 1.21444e-07 0)
(2.83804e-07 1.19657e-07 0)
(2.66222e-07 1.19014e-07 0)
(2.53995e-07 1.19421e-07 0)
(2.45535e-07 1.20306e-07 0)
(2.39774e-07 1.21548e-07 0)
(2.35946e-07 1.22883e-07 0)
(2.33465e-07 1.24326e-07 0)
(2.28354e-07 1.22575e-07 0)
(3.23984e-07 1.16749e-07 -9.99593e-21)
(2.75971e-07 1.02537e-07 0)
(2.43887e-07 9.29334e-08 0)
(2.21852e-07 8.77408e-08 0)
(2.06827e-07 8.4727e-08 0)
(1.96554e-07 8.34439e-08 0)
(1.89536e-07 8.30412e-08 0)
(1.84791e-07 8.3247e-08 0)
(1.81641e-07 8.36931e-08 0)
(1.79566e-07 8.43137e-08 0)
(1.75656e-07 8.27446e-08 0)
(2.48865e-07 1.00809e-07 -8.25441e-21)
(2.06872e-07 8.00614e-08 0)
(1.79979e-07 6.64085e-08 0)
(1.62202e-07 5.88437e-08 0)
(1.50474e-07 5.43401e-08 0)
(1.42646e-07 5.20931e-08 0)
(1.37388e-07 5.0993e-08 0)
(1.33866e-07 5.06452e-08 0)
(1.3153e-07 5.06149e-08 0)
(1.29963e-07 5.07766e-08 0)
(1.27171e-07 4.96084e-08 0)
(1.73242e-07 8.33332e-08 -6.20451e-21)
(1.37465e-07 5.77094e-08 0)
(1.17333e-07 4.18538e-08 0)
(1.04907e-07 3.36186e-08 0)
(9.7123e-08 2.89159e-08 0)
(9.21038e-08 2.66197e-08 0)
(8.87924e-08 2.54744e-08 0)
(8.6592e-08 2.50468e-08 0)
(8.51233e-08 2.49105e-08 0)
(8.41087e-08 2.49282e-08 0)
(8.23297e-08 2.42788e-08 0)
(1.01882e-07 6.12936e-08 -3.99518e-21)
(6.83359e-08 3.39738e-08 0)
(5.68889e-08 1.99343e-08 0)
(5.07577e-08 1.36221e-08 0)
(4.71604e-08 1.03796e-08 0)
(4.49125e-08 8.95812e-09 0)
(4.34335e-08 8.31737e-09 0)
(4.24466e-08 8.12859e-09 0)
(4.17715e-08 8.1002e-09 0)
(4.12822e-08 8.14385e-09 0)
(4.04068e-08 7.94736e-09 0)
(3.42941e-08 2.43468e-08 -1.43986e-21)
(0 0 0)
(0 0 0)
(0 0 0)
(0 0 0)
(0 0 0)
(0 0 0)
(0 0 0)
(0 0 0)
(0 0 0)
(0 0 0)
(7.41132e-07 2.18455e-07 -1.01995e-20)
(6.86953e-07 2.52674e-07 0)
(6.49088e-07 2.77093e-07 0)
(6.21538e-07 2.96942e-07 0)
(6.01715e-07 3.13212e-07 0)
(5.87656e-07 3.27226e-07 0)
(5.77957e-07 3.39552e-07 0)
(5.71629e-07 3.50695e-07 0)
(5.67906e-07 3.60954e-07 0)
(5.66233e-07 3.70537e-07 0)
(5.66581e-07 3.80937e-07 0)
(6.77198e-07 2.00447e-07 -1.12725e-20)
(6.19853e-07 2.27408e-07 0)
(5.80106e-07 2.4641e-07 0)
(5.51356e-07 2.61996e-07 0)
(5.30722e-07 2.74742e-07 0)
(5.16062e-07 2.8577e-07 0)
(5.05855e-07 2.95477e-07 0)
(4.99052e-07 3.04287e-07 0)
(4.94825e-07 3.124e-07 0)
(4.92596e-07 3.20064e-07 0)
(4.82769e-07 3.20417e-07 0)
(6.10671e-07 1.82734e-07 -1.20247e-20)
(5.51769e-07 2.01614e-07 0)
(5.11194e-07 2.14786e-07 0)
(4.8201e-07 2.25911e-07 0)
(4.61141e-07 2.35075e-07 0)
(4.46323e-07 2.43141e-07 0)
(4.35955e-07 2.50298e-07 0)
(4.2894e-07 2.5686e-07 0)
(4.24425e-07 2.62914e-07 0)
(4.21788e-07 2.68698e-07 0)
(4.12979e-07 2.6807e-07 0)
(5.41818e-07 1.65473e-07 -1.23279e-20)
(4.83102e-07 1.75805e-07 0)
(4.42844e-07 1.82948e-07 0)
(4.14062e-07 1.89567e-07 0)
(3.93594e-07 1.95209e-07 0)
(3.79107e-07 2.00441e-07 0)
(3.68965e-07 2.05217e-07 0)
(3.62049e-07 2.0972e-07 0)
(3.57508e-07 2.13921e-07 0)
(3.54711e-07 2.18e-07 0)
(3.47098e-07 2.16707e-07 0)
(4.70884e-07 1.48756e-07 -1.20986e-20)
(4.14135e-07 1.50464e-07 0)
(3.75391e-07 1.51619e-07 0)
(3.47906e-07 1.53861e-07 0)
(3.28521e-07 1.56177e-07 0)
(3.14891e-07 1.58811e-07 0)
(3.05384e-07 1.6146e-07 0)
(2.9889e-07 1.64161e-07 0)
(2.94586e-07 1.66766e-07 0)
(2.91852e-07 1.69378e-07 0)
(2.85492e-07 1.67713e-07 0)
(3.98201e-07 1.32575e-07 -1.13111e-20)
(3.45087e-07 1.25971e-07 0)
(3.09058e-07 1.21444e-07 0)
(2.83804e-07 1.19657e-07 0)
(2.66222e-07 1.19014e-07 0)
(2.53995e-07 1.19421e-07 0)
(2.45535e-07 1.20306e-07 0)
(2.39774e-07 1.21548e-07 0)
(2.35946e-07 1.22883e-07 0)
(2.33465e-07 1.24326e-07 0)
(2.28354e-07 1.22575e-07 0)
(3.23984e-07 1.16749e-07 -9.99593e-21)
(2.75971e-07 1.02537e-07 0)
(2.43887e-07 9.29334e-08 0)
(2.21852e-07 8.77408e-08 0)
(2.06827e-07 8.4727e-08 0)
(1.96554e-07 8.34439e-08 0)
(1.89536e-07 8.30412e-08 0)
(1.84791e-07 8.3247e-08 0)
(1.81641e-07 8.36931e-08 0)
(1.79566e-07 8.43137e-08 0)
(1.75656e-07 8.27446e-08 0)
(2.48865e-07 1.00809e-07 -8.25441e-21)
(2.06872e-07 8.00614e-08 0)
(1.79979e-07 6.64085e-08 0)
(1.62202e-07 5.88437e-08 0)
(1.50474e-07 5.43401e-08 0)
(1.42646e-07 5.20931e-08 0)
(1.37388e-07 5.0993e-08 0)
(1.33866e-07 5.06452e-08 0)
(1.3153e-07 5.06149e-08 0)
(1.29963e-07 5.07766e-08 0)
(1.27171e-07 4.96084e-08 0)
(1.73242e-07 8.33332e-08 -6.20451e-21)
(1.37465e-07 5.77094e-08 0)
(1.17333e-07 4.18538e-08 0)
(1.04907e-07 3.36186e-08 0)
(9.7123e-08 2.89159e-08 0)
(9.21038e-08 2.66197e-08 0)
(8.87924e-08 2.54744e-08 0)
(8.6592e-08 2.50468e-08 0)
(8.51233e-08 2.49105e-08 0)
(8.41087e-08 2.49282e-08 0)
(8.23297e-08 2.42788e-08 0)
(1.01882e-07 6.12936e-08 -3.99518e-21)
(6.83359e-08 3.39738e-08 0)
(5.68889e-08 1.99343e-08 0)
(5.07577e-08 1.36221e-08 0)
(4.71604e-08 1.03796e-08 0)
(4.49125e-08 8.95812e-09 0)
(4.34335e-08 8.31737e-09 0)
(4.24466e-08 8.12859e-09 0)
(4.17715e-08 8.1002e-09 0)
(4.12822e-08 8.14385e-09 0)
(4.04068e-08 7.94736e-09 0)
(3.42941e-08 2.43468e-08 -1.43986e-21)
(0 0 0)
(0 0 0)
(0 0 0)
(0 0 0)
(0 0 0)
(0 0 0)
(0 0 0)
(0 0 0)
(0 0 0)
(0 0 0)
(1.20264e-06 3.58417e-07 -2.76535e-21)
(1.21122e-06 3.92963e-07 -1.52973e-21)
(1.21017e-06 4.37366e-07 -1.66925e-21)
(1.20946e-06 4.78567e-07 -1.80906e-21)
(1.21018e-06 5.16497e-07 -1.94885e-21)
(1.21273e-06 5.51538e-07 -2.08853e-21)
(1.21725e-06 5.84142e-07 -2.2281e-21)
(1.22374e-06 6.1477e-07 -2.36754e-21)
(1.23211e-06 6.43803e-07 -2.50687e-21)
(1.24218e-06 6.71604e-07 -2.64612e-21)
(1.25385e-06 6.98318e-07 -2.74742e-21)
(1.17589e-06 3.44994e-07 -4.12682e-21)
(1.17222e-06 3.91346e-07 0)
(1.16915e-06 4.35462e-07 0)
(1.16752e-06 4.76049e-07 0)
(1.16772e-06 5.13123e-07 0)
(1.1699e-06 5.47135e-07 0)
(1.17404e-06 5.78586e-07 0)
(1.18004e-06 6.07976e-07 0)
(1.18779e-06 6.35716e-07 0)
(1.1971e-06 6.62195e-07 0)
(1.20854e-06 6.87736e-07 0)
(1.13948e-06 3.3927e-07 -4.2317e-21)
(1.13184e-06 3.86633e-07 0)
(1.12562e-06 4.30335e-07 0)
(1.12164e-06 4.70066e-07 0)
(1.12005e-06 5.06048e-07 0)
(1.1208e-06 5.38845e-07 0)
(1.12371e-06 5.69002e-07 0)
(1.12857e-06 5.97051e-07 0)
(1.13521e-06 6.23417e-07 0)
(1.14337e-06 6.48515e-07 0)
(1.15451e-06 6.72935e-07 0)
(1.10091e-06 3.30046e-07 -4.35255e-21)
(1.08845e-06 3.78948e-07 0)
(1.07849e-06 4.22081e-07 0)
(1.07153e-06 4.60642e-07 0)
(1.06755e-06 4.95184e-07 0)
(1.06634e-06 5.26457e-07 0)
(1.06756e-06 5.55065e-07 0)
(1.07091e-06 5.81569e-07 0)
(1.07612e-06 6.06402e-07 0)
(1.08289e-06 6.2999e-07 0)
(1.09371e-06 6.5332e-07 0)
(1.05947e-06 3.18165e-07 -4.57787e-21)
(1.0414e-06 3.68402e-07 0)
(1.02727e-06 4.1072e-07 0)
(1.01699e-06 4.47822e-07 0)
(1.01034e-06 4.8062e-07 0)
(1.0069e-06 5.10082e-07 0)
(1.0062e-06 5.36886e-07 0)
(1.00783e-06 5.61621e-07 0)
(1.01147e-06 5.84732e-07 0)
(1.01673e-06 6.06641e-07 0)
(1.02726e-06 6.28883e-07 0)
(1.01478e-06 3.04196e-07 -4.99309e-21)
(9.90442e-07 3.55045e-07 0)
(9.71891e-07 3.96118e-07 0)
(9.58184e-07 4.31413e-07 0)
(9.48789e-07 4.62154e-07 0)
(9.43066e-07 4.8953e-07 0)
(9.40413e-07 5.14286e-07 0)
(9.40306e-07 5.3704e-07 0)
(9.4235e-07 5.58245e-07 0)
(9.46083e-07 5.78316e-07 0)
(9.56416e-07 5.99482e-07 0)
(9.66695e-07 2.88652e-07 -5.65527e-21)
(9.35708e-07 3.39e-07 0)
(9.1265e-07 3.78239e-07 0)
(8.95547e-07 4.11332e-07 0)
(8.83491e-07 4.3972e-07 0)
(8.7558e-07 4.6477e-07 0)
(8.71055e-07 4.87276e-07 0)
(8.69288e-07 5.07874e-07 0)
(8.69813e-07 5.2702e-07 0)
(8.72107e-07 5.45111e-07 0)
(8.82346e-07 5.65226e-07 0)
(9.15183e-07 2.71952e-07 -6.57438e-21)
(8.77512e-07 3.20441e-07 0)
(8.50058e-07 3.57129e-07 0)
(8.29739e-07 3.87577e-07 0)
(8.15217e-07 4.1332e-07 0)
(8.0531e-07 4.35833e-07 0)
(7.9909e-07 4.55924e-07 0)
(7.95824e-07 4.74231e-07 0)
(7.94978e-07 4.91202e-07 0)
(7.95976e-07 5.07206e-07 0)
(8.06235e-07 5.26307e-07 0)
(8.60321e-07 2.54476e-07 -7.70682e-21)
(8.16308e-07 2.9963e-07 0)
(7.84778e-07 3.32987e-07 0)
(7.61559e-07 3.60332e-07 0)
(7.44865e-07 3.83151e-07 0)
(7.33228e-07 4.02952e-07 0)
(7.2555e-07 4.20509e-07 0)
(7.21001e-07 4.36438e-07 0)
(7.1897e-07 4.51162e-07 0)
(7.18856e-07 4.65008e-07 0)
(7.29244e-07 4.8312e-07 0)
(8.02244e-07 2.36546e-07 -8.95952e-21)
(7.5261e-07 2.76904e-07 0)
(7.17542e-07 3.06149e-07 0)
(6.91871e-07 3.29944e-07 0)
(6.73383e-07 3.4959e-07 0)
(6.60342e-07 3.66542e-07 0)
(6.5149e-07 3.81493e-07 0)
(6.45906e-07 3.9501e-07 0)
(6.42909e-07 4.07468e-07 0)
(6.41905e-07 4.1911e-07 0)
(6.52472e-07 4.36225e-07 0)
(1.20264e-06 3.58417e-07 -2.76535e-21)
(1.21122e-06 3.92963e-07 -1.52973e-21)
(1.21017e-06 4.37366e-07 -1.66925e-21)
(1.20946e-06 4.78567e-07 -1.80906e-21)
(1.21018e-06 5.16497e-07 -1.94885e-21)
(1.21273e-06 5.51538e-07 -2.08853e-21)
(1.21725e-06 5.84142e-07 -2.2281e-21)
(1.22374e-06 6.1477e-07 -2.36754e-21)
(1.23211e-06 6.43803e-07 -2.50687e-21)
(1.24218e-06 6.71604e-07 -2.64612e-21)
(1.25385e-06 6.98318e-07 -2.74742e-21)
(1.17589e-06 3.44994e-07 -4.12682e-21)
(1.17222e-06 3.91346e-07 0)
(1.16915e-06 4.35462e-07 0)
(1.16752e-06 4.76049e-07 0)
(1.16772e-06 5.13123e-07 0)
(1.1699e-06 5.47135e-07 0)
(1.17404e-06 5.78586e-07 0)
(1.18004e-06 6.07976e-07 0)
(1.18779e-06 6.35716e-07 0)
(1.1971e-06 6.62195e-07 0)
(1.20854e-06 6.87736e-07 0)
(1.13948e-06 3.3927e-07 -4.2317e-21)
(1.13184e-06 3.86633e-07 0)
(1.12562e-06 4.30335e-07 0)
(1.12164e-06 4.70066e-07 0)
(1.12005e-06 5.06048e-07 0)
(1.1208e-06 5.38845e-07 0)
(1.12371e-06 5.69002e-07 0)
(1.12857e-06 5.97051e-07 0)
(1.13521e-06 6.23417e-07 0)
(1.14337e-06 6.48515e-07 0)
(1.15451e-06 6.72935e-07 0)
(1.10091e-06 3.30046e-07 -4.35255e-21)
(1.08845e-06 3.78948e-07 0)
(1.07849e-06 4.22081e-07 0)
(1.07153e-06 4.60642e-07 0)
(1.06755e-06 4.95184e-07 0)
(1.06634e-06 5.26457e-07 0)
(1.06756e-06 5.55065e-07 0)
(1.07091e-06 5.81569e-07 0)
(1.07612e-06 6.06402e-07 0)
(1.08289e-06 6.2999e-07 0)
(1.09371e-06 6.5332e-07 0)
(1.05947e-06 3.18165e-07 -4.57787e-21)
(1.0414e-06 3.68402e-07 0)
(1.02727e-06 4.1072e-07 0)
(1.01699e-06 4.47822e-07 0)
(1.01034e-06 4.8062e-07 0)
(1.0069e-06 5.10082e-07 0)
(1.0062e-06 5.36886e-07 0)
(1.00783e-06 5.61621e-07 0)
(1.01147e-06 5.84732e-07 0)
(1.01673e-06 6.06641e-07 0)
(1.02726e-06 6.28883e-07 0)
(1.01478e-06 3.04196e-07 -4.99309e-21)
(9.90442e-07 3.55045e-07 0)
(9.71891e-07 3.96118e-07 0)
(9.58184e-07 4.31413e-07 0)
(9.48789e-07 4.62154e-07 0)
(9.43066e-07 4.8953e-07 0)
(9.40413e-07 5.14286e-07 0)
(9.40306e-07 5.3704e-07 0)
(9.4235e-07 5.58245e-07 0)
(9.46083e-07 5.78316e-07 0)
(9.56416e-07 5.99482e-07 0)
(9.66695e-07 2.88652e-07 -5.65527e-21)
(9.35708e-07 3.39e-07 0)
(9.1265e-07 3.78239e-07 0)
(8.95547e-07 4.11332e-07 0)
(8.83491e-07 4.3972e-07 0)
(8.7558e-07 4.6477e-07 0)
(8.71055e-07 4.87276e-07 0)
(8.69288e-07 5.07874e-07 0)
(8.69813e-07 5.2702e-07 0)
(8.72107e-07 5.45111e-07 0)
(8.82346e-07 5.65226e-07 0)
(9.15183e-07 2.71952e-07 -6.57438e-21)
(8.77512e-07 3.20441e-07 0)
(8.50058e-07 3.57129e-07 0)
(8.29739e-07 3.87577e-07 0)
(8.15217e-07 4.1332e-07 0)
(8.0531e-07 4.35833e-07 0)
(7.9909e-07 4.55924e-07 0)
(7.95824e-07 4.74231e-07 0)
(7.94978e-07 4.91202e-07 0)
(7.95976e-07 5.07206e-07 0)
(8.06235e-07 5.26307e-07 0)
(8.60321e-07 2.54476e-07 -7.70682e-21)
(8.16308e-07 2.9963e-07 0)
(7.84778e-07 3.32987e-07 0)
(7.61559e-07 3.60332e-07 0)
(7.44865e-07 3.83151e-07 0)
(7.33228e-07 4.02952e-07 0)
(7.2555e-07 4.20509e-07 0)
(7.21001e-07 4.36438e-07 0)
(7.1897e-07 4.51162e-07 0)
(7.18856e-07 4.65008e-07 0)
(7.29244e-07 4.8312e-07 0)
(8.02244e-07 2.36546e-07 -8.95952e-21)
(7.5261e-07 2.76904e-07 0)
(7.17542e-07 3.06149e-07 0)
(6.91871e-07 3.29944e-07 0)
(6.73383e-07 3.4959e-07 0)
(6.60342e-07 3.66542e-07 0)
(6.5149e-07 3.81493e-07 0)
(6.45906e-07 3.9501e-07 0)
(6.42909e-07 4.07468e-07 0)
(6.41905e-07 4.1911e-07 0)
(6.52472e-07 4.36225e-07 0)
(1.26711e-06 7.24277e-07 -2.77214e-21)
(1.28175e-06 7.4983e-07 -2.75821e-21)
(1.29752e-06 7.75e-07 -2.74426e-21)
(1.31433e-06 7.99908e-07 -2.73029e-21)
(1.33205e-06 8.24657e-07 -2.7163e-21)
(1.3506e-06 8.49326e-07 -2.70231e-21)
(1.36988e-06 8.73987e-07 -2.68831e-21)
(1.3898e-06 8.98699e-07 -2.67432e-21)
(1.4103e-06 9.23511e-07 -2.66033e-21)
(1.43131e-06 9.48465e-07 -2.64634e-21)
(1.45276e-06 9.73598e-07 -2.63236e-21)
(1.47459e-06 9.98939e-07 -2.61839e-21)
(1.49675e-06 1.02451e-06 -2.60442e-21)
(1.51919e-06 1.05034e-06 -2.59047e-21)
(1.54184e-06 1.07642e-06 -2.57652e-21)
(1.56464e-06 1.10277e-06 -2.56261e-21)
(1.58754e-06 1.12937e-06 -2.54873e-21)
(1.61048e-06 1.15619e-06 -2.53487e-21)
(1.63336e-06 1.18317e-06 -2.52107e-21)
(1.64094e-06 1.19996e-06 4.55025e-22)
(1.22269e-06 7.12914e-07 0)
(1.23857e-06 7.37927e-07 0)
(1.25538e-06 7.62609e-07 0)
(1.27302e-06 7.8709e-07 0)
(1.29141e-06 8.11468e-07 0)
(1.31049e-06 8.3582e-07 0)
(1.33018e-06 8.60213e-07 0)
(1.35043e-06 8.84702e-07 0)
(1.37117e-06 9.09334e-07 0)
(1.39235e-06 9.34147e-07 0)
(1.41391e-06 9.59177e-07 0)
(1.43582e-06 9.8445e-07 0)
(1.45803e-06 1.00999e-06 0)
(1.48048e-06 1.03581e-06 0)
(1.50314e-06 1.06193e-06 0)
(1.52597e-06 1.08834e-06 0)
(1.54893e-06 1.11504e-06 0)
(1.57196e-06 1.14199e-06 0)
(1.59503e-06 1.16913e-06 0)
(1.61801e-06 1.19631e-06 3.44739e-21)
(1.17003e-06 6.97602e-07 0)
(1.18783e-06 7.22436e-07 0)
(1.2063e-06 7.46958e-07 0)
(1.22537e-06 7.71305e-07 0)
(1.24501e-06 7.9558e-07 0)
(1.26515e-06 8.19858e-07 0)
(1.28576e-06 8.44207e-07 0)
(1.30679e-06 8.68681e-07 0)
(1.32822e-06 8.93328e-07 0)
(1.34999e-06 9.18184e-07 0)
(1.37208e-06 9.43284e-07 0)
(1.39445e-06 9.68654e-07 0)
(1.41708e-06 9.94319e-07 0)
(1.43992e-06 1.0203e-06 0)
(1.46296e-06 1.0466e-06 0)
(1.48616e-06 1.07322e-06 0)
(1.50949e-06 1.10017e-06 0)
(1.53292e-06 1.12741e-06 0)
(1.5564e-06 1.15491e-06 0)
(1.57969e-06 1.18251e-06 3.47815e-21)
(1.11093e-06 6.77782e-07 0)
(1.13113e-06 7.02848e-07 0)
(1.15173e-06 7.27595e-07 0)
(1.17268e-06 7.52158e-07 0)
(1.19398e-06 7.76649e-07 0)
(1.21558e-06 8.01142e-07 0)
(1.23749e-06 8.25712e-07 0)
(1.25968e-06 8.50414e-07 0)
(1.28214e-06 8.75298e-07 0)
(1.30483e-06 9.00404e-07 0)
(1.32776e-06 9.25766e-07 0)
(1.35089e-06 9.51414e-07 0)
(1.37422e-06 9.77372e-07 0)
(1.39772e-06 1.00366e-06 0)
(1.42139e-06 1.0303e-06 0)
(1.44519e-06 1.05729e-06 0)
(1.46912e-06 1.08465e-06 0)
(1.49313e-06 1.11236e-06 0)
(1.5172e-06 1.14041e-06 0)
(1.54099e-06 1.16869e-06 3.53649e-21)
(1.04645e-06 6.53423e-07 0)
(1.06944e-06 6.79108e-07 0)
(1.09255e-06 7.04448e-07 0)
(1.11573e-06 7.29563e-07 0)
(1.13904e-06 7.5458e-07 0)
(1.16244e-06 7.79573e-07 0)
(1.18597e-06 8.04628e-07 0)
(1.20962e-06 8.298e-07 0)
(1.23338e-06 8.55146e-07 0)
(1.25728e-06 8.80708e-07 0)
(1.28129e-06 9.06527e-07 0)
(1.30543e-06 9.32633e-07 0)
(1.32969e-06 9.59058e-07 0)
(1.35407e-06 9.85825e-07 0)
(1.37856e-06 1.01296e-06 0)
(1.40315e-06 1.04047e-06 0)
(1.42784e-06 1.06839e-06 0)
(1.4526e-06 1.09673e-06 0)
(1.4774e-06 1.1255e-06 0)
(1.50184e-06 1.15462e-06 3.62173e-21)
(9.77812e-07 6.24396e-07 0)
(1.00386e-06 6.51101e-07 0)
(1.02976e-06 6.77414e-07 0)
(1.05545e-06 7.03425e-07 0)
(1.08102e-06 7.29291e-07 0)
(1.10648e-06 7.5508e-07 0)
(1.13187e-06 7.80891e-07 0)
(1.1572e-06 8.06785e-07 0)
(1.18251e-06 8.32825e-07 0)
(1.20781e-06 8.59061e-07 0)
(1.23311e-06 8.85536e-07 0)
(1.25844e-06 9.12289e-07 0)
(1.28381e-06 9.39355e-07 0)
(1.30922e-06 9.66764e-07 0)
(1.33468e-06 9.94548e-07 0)
(1.36021e-06 1.02274e-06 0)
(1.38579e-06 1.05136e-06 0)
(1.41142e-06 1.08046e-06 0)
(1.43706e-06 1.11008e-06 0)
(1.4623e-06 1.14018e-06 3.73261e-21)
(9.06097e-07 5.90807e-07 0)
(9.35395e-07 6.18912e-07 0)
(9.64274e-07 6.46564e-07 0)
(9.92663e-07 6.73808e-07 0)
(1.0207e-06 7.00831e-07 0)
(1.0484e-06 7.27704e-07 0)
(1.07583e-06 7.54536e-07 0)
(1.10303e-06 7.81399e-07 0)
(1.13004e-06 8.08362e-07 0)
(1.1569e-06 8.35484e-07 0)
(1.18364e-06 8.62816e-07 0)
(1.2103e-06 8.90401e-07 0)
(1.23691e-06 9.18282e-07 0)
(1.26347e-06 9.46496e-07 0)
(1.29003e-06 9.75082e-07 0)
(1.31658e-06 1.00408e-06 0)
(1.34315e-06 1.03354e-06 0)
(1.36973e-06 1.06352e-06 0)
(1.39632e-06 1.09409e-06 0)
(1.42248e-06 1.12523e-06 3.86753e-21)
(8.32411e-07 5.52841e-07 0)
(8.6504e-07 5.82703e-07 0)
(8.97002e-07 6.12035e-07 0)
(9.28198e-07 6.40832e-07 0)
(9.58818e-07 6.69309e-07 0)
(9.88877e-07 6.97545e-07 0)
(1.01847e-06 7.25658e-07 0)
(1.04766e-06 7.5373e-07 0)
(1.0765e-06 7.81842e-07 0)
(1.10504e-06 8.10059e-07 0)
(1.13333e-06 8.38441e-07 0)
(1.16142e-06 8.6704e-07 0)
(1.18935e-06 8.95903e-07 0)
(1.21716e-06 9.25077e-07 0)
(1.24487e-06 9.54609e-07 0)
(1.27253e-06 9.84549e-07 0)
(1.30015e-06 1.01496e-06 0)
(1.32775e-06 1.04591e-06 0)
(1.35534e-06 1.07748e-06 0)
(1.38254e-06 1.10972e-06 4.02455e-21)
(7.57833e-07 5.10855e-07 0)
(7.93761e-07 5.42793e-07 0)
(8.28816e-07 5.74096e-07 0)
(8.62856e-07 6.04733e-07 0)
(8.96103e-07 6.34923e-07 0)
(9.28584e-07 6.64769e-07 0)
(9.60414e-07 6.94395e-07 0)
(9.91656e-07 7.23899e-07 0)
(1.02239e-06 7.53369e-07 0)
(1.05268e-06 7.82881e-07 0)
(1.08259e-06 8.12501e-07 0)
(1.11218e-06 8.42289e-07 0)
(1.1415e-06 8.723e-07 0)
(1.1706e-06 9.02585e-07 0)
(1.19953e-06 9.33197e-07 0)
(1.22832e-06 9.64196e-07 0)
(1.25703e-06 9.95648e-07 0)
(1.28568e-06 1.02765e-06 0)
(1.31432e-06 1.06028e-06 0)
(1.34264e-06 1.09362e-06 4.20156e-21)
(6.83333e-07 4.65353e-07 0)
(7.22389e-07 4.99597e-07 0)
(7.6042e-07 5.33077e-07 0)
(7.97275e-07 5.65808e-07 0)
(8.33145e-07 5.9795e-07 0)
(8.68075e-07 6.29636e-07 0)
(9.02172e-07 6.60991e-07 0)
(9.35515e-07 6.92128e-07 0)
(9.68189e-07 7.23145e-07 0)
(1.00027e-06 7.5413e-07 0)
(1.03184e-06 7.85157e-07 0)
(1.06296e-06 8.16293e-07 0)
(1.09369e-06 8.47599e-07 0)
(1.12411e-06 8.79131e-07 0)
(1.15427e-06 9.10948e-07 0)
(1.18423e-06 9.43113e-07 0)
(1.21404e-06 9.75697e-07 0)
(1.24376e-06 1.0088e-06 0)
(1.27345e-06 1.04251e-06 0)
(1.30296e-06 1.07696e-06 4.39614e-21)
(6.17194e-07 4.23952e-07 0)
(6.58582e-07 4.60181e-07 0)
(6.98836e-07 4.95437e-07 0)
(7.37873e-07 5.29939e-07 0)
(7.75811e-07 5.63779e-07 0)
(8.12706e-07 5.97093e-07 0)
(8.48644e-07 6.30001e-07 0)
(8.83704e-07 6.62615e-07 0)
(9.17973e-07 6.95036e-07 0)
(9.51531e-07 7.27356e-07 0)
(9.8446e-07 7.59652e-07 0)
(1.01684e-06 7.91995e-07 0)
(1.04873e-06 8.24447e-07 0)
(1.08022e-06 8.57066e-07 0)
(1.11138e-06 8.89911e-07 0)
(1.14226e-06 9.23044e-07 0)
(1.17294e-06 9.56535e-07 0)
(1.2035e-06 9.90475e-07 0)
(1.23401e-06 1.02496e-06 0)
(1.26449e-06 1.06016e-06 4.55856e-21)
(1.26711e-06 7.24277e-07 -2.77214e-21)
(1.28175e-06 7.4983e-07 -2.75821e-21)
(1.29752e-06 7.75e-07 -2.74426e-21)
(1.31433e-06 7.99908e-07 -2.73029e-21)
(1.33205e-06 8.24657e-07 -2.7163e-21)
(1.3506e-06 8.49326e-07 -2.70231e-21)
(1.36988e-06 8.73987e-07 -2.68831e-21)
(1.3898e-06 8.98699e-07 -2.67432e-21)
(1.4103e-06 9.23511e-07 -2.66033e-21)
(1.43131e-06 9.48465e-07 -2.64634e-21)
(1.45276e-06 9.73598e-07 -2.63236e-21)
(1.47459e-06 9.98939e-07 -2.61839e-21)
(1.49675e-06 1.02451e-06 -2.60442e-21)
(1.51919e-06 1.05034e-06 -2.59047e-21)
(1.54184e-06 1.07642e-06 -2.57652e-21)
(1.56464e-06 1.10277e-06 -2.56261e-21)
(1.58754e-06 1.12937e-06 -2.54873e-21)
(1.61048e-06 1.15619e-06 -2.53487e-21)
(1.63336e-06 1.18317e-06 -2.52107e-21)
(1.64094e-06 1.19996e-06 4.55025e-22)
(1.22269e-06 7.12914e-07 0)
(1.23857e-06 7.37927e-07 0)
(1.25538e-06 7.62609e-07 0)
(1.27302e-06 7.8709e-07 0)
(1.29141e-06 8.11468e-07 0)
(1.31049e-06 8.3582e-07 0)
(1.33018e-06 8.60213e-07 0)
(1.35043e-06 8.84702e-07 0)
(1.37117e-06 9.09334e-07 0)
(1.39235e-06 9.34147e-07 0)
(1.41391e-06 9.59177e-07 0)
(1.43582e-06 9.8445e-07 0)
(1.45803e-06 1.00999e-06 0)
(1.48048e-06 1.03581e-06 0)
(1.50314e-06 1.06193e-06 0)
(1.52597e-06 1.08834e-06 0)
(1.54893e-06 1.11504e-06 0)
(1.57196e-06 1.14199e-06 0)
(1.59503e-06 1.16913e-06 0)
(1.61801e-06 1.19631e-06 3.44739e-21)
(1.17003e-06 6.97602e-07 0)
(1.18783e-06 7.22436e-07 0)
(1.2063e-06 7.46958e-07 0)
(1.22537e-06 7.71305e-07 0)
(1.24501e-06 7.9558e-07 0)
(1.26515e-06 8.19858e-07 0)
(1.28576e-06 8.44207e-07 0)
(1.30679e-06 8.68681e-07 0)
(1.32822e-06 8.93328e-07 0)
(1.34999e-06 9.18184e-07 0)
(1.37208e-06 9.43284e-07 0)
(1.39445e-06 9.68654e-07 0)
(1.41708e-06 9.94319e-07 0)
(1.43992e-06 1.0203e-06 0)
(1.46296e-06 1.0466e-06 0)
(1.48616e-06 1.07322e-06 0)
(1.50949e-06 1.10017e-06 0)
(1.53292e-06 1.12741e-06 0)
(1.5564e-06 1.15491e-06 0)
(1.57969e-06 1.18251e-06 3.47815e-21)
(1.11093e-06 6.77782e-07 0)
(1.13113e-06 7.02848e-07 0)
(1.15173e-06 7.27595e-07 0)
(1.17268e-06 7.52158e-07 0)
(1.19398e-06 7.76649e-07 0)
(1.21558e-06 8.01142e-07 0)
(1.23749e-06 8.25712e-07 0)
(1.25968e-06 8.50414e-07 0)
(1.28214e-06 8.75298e-07 0)
(1.30483e-06 9.00404e-07 0)
(1.32776e-06 9.25766e-07 0)
(1.35089e-06 9.51414e-07 0)
(1.37422e-06 9.77372e-07 0)
(1.39772e-06 1.00366e-06 0)
(1.42139e-06 1.0303e-06 0)
(1.44519e-06 1.05729e-06 0)
(1.46912e-06 1.08465e-06 0)
(1.49313e-06 1.11236e-06 0)
(1.5172e-06 1.14041e-06 0)
(1.54099e-06 1.16869e-06 3.53649e-21)
(1.04645e-06 6.53423e-07 0)
(1.06944e-06 6.79108e-07 0)
(1.09255e-06 7.04448e-07 0)
(1.11573e-06 7.29563e-07 0)
(1.13904e-06 7.5458e-07 0)
(1.16244e-06 7.79573e-07 0)
(1.18597e-06 8.04628e-07 0)
(1.20962e-06 8.298e-07 0)
(1.23338e-06 8.55146e-07 0)
(1.25728e-06 8.80708e-07 0)
(1.28129e-06 9.06527e-07 0)
(1.30543e-06 9.32633e-07 0)
(1.32969e-06 9.59058e-07 0)
(1.35407e-06 9.85825e-07 0)
(1.37856e-06 1.01296e-06 0)
(1.40315e-06 1.04047e-06 0)
(1.42784e-06 1.06839e-06 0)
(1.4526e-06 1.09673e-06 0)
(1.4774e-06 1.1255e-06 0)
(1.50184e-06 1.15462e-06 3.62173e-21)
(9.77812e-07 6.24396e-07 0)
(1.00386e-06 6.51101e-07 0)
(1.02976e-06 6.77414e-07 0)
(1.05545e-06 7.03425e-07 0)
(1.08102e-06 7.29291e-07 0)
(1.10648e-06 7.5508e-07 0)
(1.13187e-06 7.80891e-07 0)
(1.1572e-06 8.06785e-07 0)
(1.18251e-06 8.32825e-07 0)
(1.20781e-06 8.59061e-07 0)
(1.23311e-06 8.85536e-07 0)
(1.25844e-06 9.12289e-07 0)
(1.28381e-06 9.39355e-07 0)
(1.30922e-06 9.66764e-07 0)
(1.33468e-06 9.94548e-07 0)
(1.36021e-06 1.02274e-06 0)
(1.38579e-06 1.05136e-06 0)
(1.41142e-06 1.08046e-06 0)
(1.43706e-06 1.11008e-06 0)
(1.4623e-06 1.14018e-06 3.73261e-21)
(9.06097e-07 5.90807e-07 0)
(9.35395e-07 6.18912e-07 0)
(9.64274e-07 6.46564e-07 0)
(9.92663e-07 6.73808e-07 0)
(1.0207e-06 7.00831e-07 0)
(1.0484e-06 7.27704e-07 0)
(1.07583e-06 7.54536e-07 0)
(1.10303e-06 7.81399e-07 0)
(1.13004e-06 8.08362e-07 0)
(1.1569e-06 8.35484e-07 0)
(1.18364e-06 8.62816e-07 0)
(1.2103e-06 8.90401e-07 0)
(1.23691e-06 9.18282e-07 0)
(1.26347e-06 9.46496e-07 0)
(1.29003e-06 9.75082e-07 0)
(1.31658e-06 1.00408e-06 0)
(1.34315e-06 1.03354e-06 0)
(1.36973e-06 1.06352e-06 0)
(1.39632e-06 1.09409e-06 0)
(1.42248e-06 1.12523e-06 3.86753e-21)
(8.32411e-07 5.52841e-07 0)
(8.6504e-07 5.82703e-07 0)
(8.97002e-07 6.12035e-07 0)
(9.28198e-07 6.40832e-07 0)
(9.58818e-07 6.69309e-07 0)
(9.88877e-07 6.97545e-07 0)
(1.01847e-06 7.25658e-07 0)
(1.04766e-06 7.5373e-07 0)
(1.0765e-06 7.81842e-07 0)
(1.10504e-06 8.10059e-07 0)
(1.13333e-06 8.38441e-07 0)
(1.16142e-06 8.6704e-07 0)
(1.18935e-06 8.95903e-07 0)
(1.21716e-06 9.25077e-07 0)
(1.24487e-06 9.54609e-07 0)
(1.27253e-06 9.84549e-07 0)
(1.30015e-06 1.01496e-06 0)
(1.32775e-06 1.04591e-06 0)
(1.35534e-06 1.07748e-06 0)
(1.38254e-06 1.10972e-06 4.02455e-21)
(7.57833e-07 5.10855e-07 0)
(7.93761e-07 5.42793e-07 0)
(8.28816e-07 5.74096e-07 0)
(8.62856e-07 6.04733e-07 0)
(8.96103e-07 6.34923e-07 0)
(9.28584e-07 6.64769e-07 0)
(9.60414e-07 6.94395e-07 0)
(9.91656e-07 7.23899e-07 0)
(1.02239e-06 7.53369e-07 0)
(1.05268e-06 7.82881e-07 0)
(1.08259e-06 8.12501e-07 0)
(1.11218e-06 8.42289e-07 0)
(1.1415e-06 8.723e-07 0)
(1.1706e-06 9.02585e-07 0)
(1.19953e-06 9.33197e-07 0)
(1.22832e-06 9.64196e-07 0)
(1.25703e-06 9.95648e-07 0)
(1.28568e-06 1.02765e-06 0)
(1.31432e-06 1.06028e-06 0)
(1.34264e-06 1.09362e-06 4.20156e-21)
(6.83333e-07 4.65353e-07 0)
(7.22389e-07 4.99597e-07 0)
(7.6042e-07 5.33077e-07 0)
(7.97275e-07 5.65808e-07 0)
(8.33145e-07 5.9795e-07 0)
(8.68075e-07 6.29636e-07 0)
(9.02172e-07 6.60991e-07 0)
(9.35515e-07 6.92128e-07 0)
(9.68189e-07 7.23145e-07 0)
(1.00027e-06 7.5413e-07 0)
(1.03184e-06 7.85157e-07 0)
(1.06296e-06 8.16293e-07 0)
(1.09369e-06 8.47599e-07 0)
(1.12411e-06 8.79131e-07 0)
(1.15427e-06 9.10948e-07 0)
(1.18423e-06 9.43113e-07 0)
(1.21404e-06 9.75697e-07 0)
(1.24376e-06 1.0088e-06 0)
(1.27345e-06 1.04251e-06 0)
(1.30296e-06 1.07696e-06 4.39614e-21)
(6.17194e-07 4.23952e-07 0)
(6.58582e-07 4.60181e-07 0)
(6.98836e-07 4.95437e-07 0)
(7.37873e-07 5.29939e-07 0)
(7.75811e-07 5.63779e-07 0)
(8.12706e-07 5.97093e-07 0)
(8.48644e-07 6.30001e-07 0)
(8.83704e-07 6.62615e-07 0)
(9.17973e-07 6.95036e-07 0)
(9.51531e-07 7.27356e-07 0)
(9.8446e-07 7.59652e-07 0)
(1.01684e-06 7.91995e-07 0)
(1.04873e-06 8.24447e-07 0)
(1.08022e-06 8.57066e-07 0)
(1.11138e-06 8.89911e-07 0)
(1.14226e-06 9.23044e-07 0)
(1.17294e-06 9.56535e-07 0)
(1.2035e-06 9.90475e-07 0)
(1.23401e-06 1.02496e-06 0)
(1.26449e-06 1.06016e-06 4.55856e-21)
(5.19204e-07 3.5483e-07 0)
(5.69039e-07 3.95541e-07 0)
(6.1123e-07 4.32606e-07 0)
(6.52273e-07 4.68664e-07 0)
(6.92153e-07 5.04031e-07 0)
(7.30939e-07 5.38768e-07 0)
(7.68675e-07 5.7299e-07 0)
(8.05433e-07 6.06797e-07 0)
(8.41281e-07 6.40286e-07 0)
(8.76295e-07 6.73548e-07 0)
(9.10551e-07 7.06664e-07 0)
(9.44126e-07 7.39704e-07 0)
(9.77095e-07 7.72735e-07 0)
(1.00953e-06 8.05814e-07 0)
(1.04151e-06 8.38996e-07 0)
(1.07311e-06 8.72332e-07 0)
(1.10439e-06 9.05879e-07 0)
(1.13545e-06 9.39697e-07 0)
(1.16634e-06 9.73865e-07 0)
(1.1972e-06 1.00846e-06 0)
(1.22808e-06 1.04365e-06 4.62752e-21)
(4.83915e-07 3.34023e-07 0)
(5.3211e-07 3.74213e-07 0)
(5.74007e-07 4.11348e-07 0)
(6.14904e-07 4.47666e-07 0)
(6.54749e-07 4.83405e-07 0)
(6.9359e-07 5.18596e-07 0)
(7.31443e-07 5.53321e-07 0)
(7.68363e-07 5.87656e-07 0)
(8.04398e-07 6.21678e-07 0)
(8.39613e-07 6.55458e-07 0)
(8.74072e-07 6.89063e-07 0)
(9.07842e-07 7.22555e-07 0)
(9.40994e-07 7.55988e-07 0)
(9.73598e-07 7.89413e-07 0)
(1.00573e-06 8.22874e-07 0)
(1.03745e-06 8.56418e-07 0)
(1.06884e-06 8.90088e-07 0)
(1.09999e-06 9.23934e-07 0)
(1.13097e-06 9.58014e-07 0)
(1.16191e-06 9.92381e-07 0)
(1.19289e-06 1.02716e-06 4.64117e-21)
(4.52588e-07 3.1398e-07 0)
(4.99e-07 3.53622e-07 0)
(5.40165e-07 3.90671e-07 0)
(5.80543e-07 4.27102e-07 0)
(6.20012e-07 4.63093e-07 0)
(6.58601e-07 4.98638e-07 0)
(6.96295e-07 5.33784e-07 0)
(7.33129e-07 5.68583e-07 0)
(7.69133e-07 6.03085e-07 0)
(8.04356e-07 6.37346e-07 0)
(8.3885e-07 6.71414e-07 0)
(8.72673e-07 7.05339e-07 0)
(9.05886e-07 7.39162e-07 0)
(9.38555e-07 7.72924e-07 0)
(9.70745e-07 8.06661e-07 0)
(1.00253e-06 8.40406e-07 0)
(1.03397e-06 8.74193e-07 0)
(1.06517e-06 9.08056e-07 0)
(1.0962e-06 9.4203e-07 0)
(1.12719e-06 9.76145e-07 0)
(1.15823e-06 1.01046e-06 4.65028e-21)
(4.24648e-07 2.94863e-07 0)
(4.6917e-07 3.33826e-07 0)
(5.09343e-07 3.70647e-07 0)
(5.48929e-07 4.07071e-07 0)
(5.87759e-07 4.4321e-07 0)
(6.25846e-07 4.79017e-07 0)
(6.63149e-07 5.14509e-07 0)
(6.99685e-07 5.49705e-07 0)
(7.35465e-07 5.84634e-07 0)
(7.70524e-07 6.1933e-07 0)
(8.04901e-07 6.53826e-07 0)
(8.38644e-07 6.88154e-07 0)
(8.71804e-07 7.22346e-07 0)
(9.0444e-07 7.56428e-07 0)
(9.36612e-07 7.90427e-07 0)
(9.68387e-07 8.24363e-07 0)
(9.99835e-07 8.58256e-07 0)
(1.03103e-06 8.92125e-07 0)
(1.06208e-06 9.25979e-07 0)
(1.0931e-06 9.59822e-07 0)
(1.12416e-06 9.93667e-07 4.6545e-21)
(3.99615e-07 2.7673e-07 0)
(4.42204e-07 3.14945e-07 0)
(4.81194e-07 3.51429e-07 0)
(5.1978e-07 3.87736e-07 0)
(5.57764e-07 4.23916e-07 0)
(5.95149e-07 4.5989e-07 0)
(6.31868e-07 4.9564e-07 0)
(6.67926e-07 5.31159e-07 0)
(7.03316e-07 5.66451e-07 0)
(7.38061e-07 6.01528e-07 0)
(7.72186e-07 6.36405e-07 0)
(8.05729e-07 6.71099e-07 0)
(8.38733e-07 7.05628e-07 0)
(8.71248e-07 7.40006e-07 0)
(9.03328e-07 7.74246e-07 0)
(9.35034e-07 8.08357e-07 0)
(9.66431e-07 8.42343e-07 0)
(9.97595e-07 8.76206e-07 0)
(1.02861e-06 9.09927e-07 0)
(1.05962e-06 9.43497e-07 0)
(1.09066e-06 9.7688e-07 4.65344e-21)
(3.76989e-07 2.59585e-07 0)
(4.17658e-07 2.96994e-07 0)
(4.55343e-07 3.33055e-07 0)
(4.92786e-07 3.69155e-07 0)
(5.29774e-07 4.05287e-07 0)
(5.66299e-07 4.41341e-07 0)
(6.02282e-07 4.77271e-07 0)
(6.37713e-07 5.1304e-07 0)
(6.72574e-07 5.4863e-07 0)
(7.06875e-07 5.8403e-07 0)
(7.40631e-07 6.19238e-07 0)
(7.7387e-07 6.54255e-07 0)
(8.06626e-07 6.89083e-07 0)
(8.38941e-07 7.23725e-07 0)