/*--------------------------------*- C++ -*----------------------------------*\
  =========                 |
  \\      /  F ield         | OpenFOAM: The Open Source CFD Toolbox
   \\    /   O peration     | Website:  https://openfoam.org
    \\  /    A nd           | Version:  9
     \\/     M anipulation  |
\*---------------------------------------------------------------------------*/
FoamFile
{
    format      ascii;
    class       volScalarField;
    location    "1";
    object      sigmaEq;
}
// * * * * * * * * * * * * * * * * * * * * * * * * * * * * * * * * * * * * * //

dimensions      [1 -1 -2 0 0 0 0];

internalField   nonuniform List<scalar> 
1000
(
171018
161753
158829
158767
158166
157112
155529
153465
151328
148701
199608
181360
172530
168583
165368
162465
159477
156406
153185
150152
227514
200341
185283
177024
170848
165812
161226
156940
152696
148976
254198
218439
197066
184197
174777
167392
161067
155499
150241
145833
278830
235224
207647
190024
177172
167279
159128
152223
145993
140866
301575
250632
216970
194527
178132
165662
155663
147426
140271
134421
321193
263813
224123
197006
177257
162404
150755
141344
133416
126910
340076
274783
228758
197376
174722
157950
145058
134805
126373
119387
354404
279360
226936
192703
169000
151667
138546
128124
119638
112463
372589
274053
219482
185854
163600
147061
134511
124362
116047
108826
3355.09
3031.1
5755.12
11673.9
18650.4
26002.2
33204.2
40098.1
46438
52334.3
3063.44
7730.52
16928.3
26061.6
34247.7
41577.5
48028.5
53839.6
58848.8
63596.5
6527.47
18930.5
30687.3
41246
50104.1
57500.7
63566.6
68705.1
72764.5
76663.8
15022.2
32796.1
46083.1
57191.9
66077.2
73214.3
78802.2
83321.7
86589.7
89806.1
27881
48586.3
62671.7
73796.6
82221.1
88740.8
93625.6
97403.5
99867.7
102397
44811.2
65658.7
79628.9
90315.5
97961.6
103630
107655
110588
112231
114038
65355.3
83751.4
96540.3
106295
112895
117538
120592
122605
123416
124455
88965.5
102635
113069
121312
126590
130061
132079
133130
133160
133380
114940
122101
129039
135143
138798
140943
141847
141909
141188
140644
142554
141903
144316
147627
149311
149927
149621
148605
147320
145668
57633.6
62217.1
66461.3
70295.9
73763.3
76880.8
79680
82180.4
84408.3
86379.8
88114
89622.1
90914.8
91997.8
92874.1
93548.5
94018
94299.4
94389.7
94347.1
67265
70008.6
72772
75323.4
77720.2
79935.8
81983.4
83856.2
85565.3
87110.3
88499.9
89737.6
90828.7
91775.8
92581
93246.9
93765.7
94137.1
94322.1
94309.1
78879.3
79875.3
81132.1
82312.4
83516.5
84689.2
85843.5
86949.8
88011.4
89012.9
89954
90828.4
91634.1
92368.9
93027.4
93604.7
94080.1
94435.7
94588.5
94506.9
90798.8
90302.9
90239.9
90180.4
90265.7
90423.7
90683.9
90998.8
91376.2
91786.4
92226.6
92680.1
93140.3
93596.7
94037.3
94448.8
94798.5
95061.7
95136.1
94996.7
102310
100559
99357.3
98219.3
97313.5
96544.7
95970
95525
95229
95042.8
94964.6
94971.2
95052.5
95191.4
95371.4
95572.9
95759
95899.8
95896
95728.7
112989
110198
108042
105980
104231
102646
101331
100194
99272.9
98519.3
97934.8
97493.6
97183.7
96987
96883.2
96852
96856.9
96869.7
96809.7
96658.9
122564
118941
116045
113205
110769
108480
106517
104760
103266
101985
100921
100050
99359.6
98829.4
98441.7
98175.3
98002
97895.2
97806.4
97710.6
130795
126533
123150
119657
116694
113843
111350
109076
107084
105332
103827
102550
101491
100634
99965.6
99466.4
99121.8
98907
98815.8
98809.4
137664
132810
129314
125349
121959
118647
115682
112962
110533
108372
106479
104842
103453
102299
101372
100660
100160
99854
99779.1
99882.6
142935
137797
134335
130326
126686
123122
119796
116699
113870
111315
109040
107042
105320
103864
102674
101742
101082
100683
100628
100853
145268
140439
136884
133029
129334
125720
122286
119046
116046
113296
110816
108609
106681
105031
103666
102586
101821
101363
101334
101663
141829
138984
135709
132318
128960
125629
122418
119345
116460
113783
111339
109140
107198
105523
104128
103020
102244
101797
101829
102258
139152
136798
134192
131217
128246
125200
122222
119323
116569
113981
111595
109426
107496
105819
104415
103301
102527
102096
102172
102669
135787
134087
132041
129492
126907
124166
121451
118763
116182
113730
111448
109358
107486
105851
104477
103388
102634
102232
102358
102891
131889
130730
129222
127125
124954
122560
120147
117713
115346
113072
110938
108969
107194
105636
104320
103284
102547
102220
102204
102920
127670
127008
125989
124327
122555
120512
118412
116252
114125
112060
110106
108291
106648
105200
103980
103010
102351
102022
102165
102682
123222
122988
122405
121157
119769
118078
116299
114430
112564
110732
108985
107353
105869
104558
103453
102575
101981
101674
101804
102289
118637
118773
118575
117709
116681
115333
113874
112301
110708
109127
107607
106180
104880
103729
102760
101989
101468
101200
101313
101728
113961
114408
114546
114030
113337
112321
111176
109904
108594
107276
106002
104799
103702
102731
101915
101269
100833
100606
100694
101028
109220
109927
110358
110159
109779
109081
108246
107275
106254
105212
104195
103233
102355
101582
100937
100430
100092
99915.8
99978
100218
104412
105337
106023
106116
106031
105640
105112
104445
103720
102962
102216
101508
100865
100304
99844.6
99492.1
99263.9
99149.2
99190.5
99337.2
99520.8
100632
101546
101911
102109
102021
101800
101442
101021
100558
100094
99652.8
99257.1
98922.1
98660.9
98475.9
98372
98332.2
98363.6
98424.3
94508.7
95787.6
96913.8
97544.7
98023
98242.6
98334.6
98296.9
98191
98036.2
97867.9
97704.4
97567.3
97468.1
97415.8
97409.3
97442
97491.5
97530.1
97520.1
89331.9
90776.9
92114.8
93017
93787.2
94327.6
94749.2
95047.6
95273.5
95442.4
95582.2
95709.5
95840.2
95984.5
96147.3
96326.1
96504.9
96657.3
96723.4
96665.2
83928.8
85558.9
87127.4
88326.2
89414.7
90302.7
91081.1
91740.7
92321.7
92833.6
93298.3
93727.1
94133.7
94525.1
94905.4
95269.6
95598.7
95862.2
95977
95899.3
78255.9
80116.7
81956.9
83496.8
84946.3
86222.9
87394.3
88447.9
89410.8
90287.7
91092.9
91834.5
92521.1
93159.6
93751.8
94294.3
94768.4
95143.1
95324
95256.8
72247.5
74419.1
76604.3
78557.5
80432.5
82155.1
83769.2
85257.8
86636.3
87902.7
89066.6
90130
91099.8
91979.6
92772.1
93475.8
94075.1
94546.3
94799.6
94770.5
65950.3
68549.6
71178.3
73634
76010.7
78241.8
80348.7
82310.1
84131
85806.2
87338.6
88727.3
89975.9
91086.6
92060.3
92897.9
93591.1
94124.6
94434.4
94454.6
59370.6
62572.5
65789.9
68866.7
71839.7
74651.1
77303.7
79775.3
82064.2
84162.9
86070.4
87785.6
89307.7
90636.9
91770.9
92709
93444.9
93977.5
94277.9
94327.6
52998.7
56969.1
60894.7
64668.4
68289.7
71706.2
74913.8
77890.4
80633.5
83136.3
85398.6
87418.1
89193.1
90720.4
91992.5
93003.1
93737.5
94202.4
94384.9
94363.4
102724
106258
112941
120405
128066
134821
140210
143857
145797
145552
97110.1
100441
106729
113962
121696
128886
135062
139691
142668
143287
92049
95214.7
101100
107926
115371
122467
128825
134014
137975
140247
87410.2
90474.3
96057.3
102561
109778
116799
123236
128679
132941
136153
83057
86036
91334.5
97491.6
104401
111243
117658
123335
127868
131720
78965.7
81890.8
86966.4
92827.2
99445.1
106067
112340
118062
122669
126943
75055.7
77936.4
82815.6
88400.4
94729.7
101121
107227
112942
117557
122036
71308.6
74153.7
78866.4
84205.6
90258.7
96403.5
102301
107927
112501
117065
67687.5
70495.3
75057.3
80169.3
85961.2
91859.7
97540.7
103035
107535
112087
64182.9
66945.8
71363.5
76259.3
81797.1
87443.1
92896.1
98222.8
102629
107114
60786.9
63488.2
67754.9
72433
77717.4
83105.1
88325.2
93457.7
97753.5
102134
57509.2
60120.8
64214.2
68658.1
73675.9
78791.5
83767.9
88687.3
92861.1
97116.6
54376.7
56854.3
60724.6
64895.1
69616
74437.1
79156.7
83847
87889.9
92011
51439.4
53708.9
57275.3
61106.4
65480.9
69973
74415.8
78863.9
82770.7
86756.8
48797.8
50728.5
53839
57218
61168.1
65288
69433.3
73633.1
77408.5
81272.5
46591.9
47935.1
50369.6
53154.7
56585.9
60283.7
64112.6
68065.2
71724.9
75491.8
45099.9
45383.4
46715
48678.3
51478.8
54722.1
58245.4
61986.1
65580
69309.8
44490.5
42824.3
42630.9
43612.3
45718.6
48504.4
51763.6
55357.2
58966.3
62743
45474.3
39896.9
37294.2
37090.3
38596.2
41092.3
44276.2
47914.8
51722.9
55718.4
45873.7
34234.7
30230.2
29047.8
30286.6
32745.2
36114.7
40051.8
44293
48718.8
)
;

boundaryField
{
    left
    {
        type            calculated;
        value           nonuniform List<scalar> 
30
(
101795
96204.5
91162.9
86534.9
82195.8
78120.8
74235.2
70523
66950.8
63512.5
60203.9
57039.2
54049.8
51292.5
48875
46982.5
45970
46425.9
50081.6
57893
396470
266878
212264
181302
161003
145402
133353
123405
115179
107926
)
;
    }
    right
    {
        type            calculated;
        value           nonuniform List<scalar> 
30
(
94328.4
94309.3
94496.6
94980.6
95709.6
96641.3
97697
98804.3
99885.9
100869
101684
102293
102707
102932
102931
102717
102327
101761
101054
100236
99347.4
98427
97517
96657.7
95889.8
95247.7
94765.4
94454.2
94332
94341.7
)
;
    }
    down
    {
        type            calculated;
        value           nonuniform List<scalar> 
30
(
3160.87
2819.01
4151.67
9870.72
17007.2
24569.5
31988.3
39074.8
45581.8
51613.2
57045.2
61779.8
66129.9
70041.9
73571
76734
79569.6
82097.8
84348
86336.7
88084.4
89603
90903.6
91992.1
92872.1
93548
94017.8
94298.7
94389.1
94358.5
)
;
    }
    up
    {
        type            calculated;
        value           nonuniform List<scalar> 
30
(
44494.1
33807.1
30081.3
28905.7
30118.7
32546.2
35894.9
39823.5
44061.9
48496.1
52785.9
56779.5
60731.4
64527.4
68171.2
71607.4
74833
77825.2
80582.7
83097.3
85370.1
87398.5
89180.8
90713.9
91990.5
93003.4
93738.9
94203
94384.2
94370.4
)
;
    }
    hole
    {
        type            calculated;
        value           nonuniform List<scalar> 
20
(
170045
199493
228225
255683
281008
304371
324505
343965
358945
376538
3009.58
3009.25
3415.94
10646.8
23191.7
40292.9
61285.3
85539.4
112275
140721
)
;
    }
    frontAndBack
    {
        type            empty;
    }
}


// ************************************************************************* //
