/*--------------------------------*- C++ -*----------------------------------*\
  =========                 |
  \\      /  F ield         | OpenFOAM: The Open Source CFD Toolbox
   \\    /   O peration     | Website:  https://openfoam.org
    \\  /    A nd           | Version:  9
     \\/     M anipulation  |
\*---------------------------------------------------------------------------*/
FoamFile
{
    format      ascii;
    class       volSymmTensorField;
    location    "1";
    object      sigma;
}
// * * * * * * * * * * * * * * * * * * * * * * * * * * * * * * * * * * * * * //

dimensions      [1 -1 -2 0 0 0 0];

internalField   nonuniform List<symmTensor> 
1000
(
(122948 -84149.5 -7.82479e-11 71433.4 -7.66863e-11 19645.6)
(144226 -64907 -6.94637e-11 39024.5 -6.31443e-11 19342.9)
(154925 -49722.5 -6.14053e-11 23751.8 -5.26319e-11 19303.4)
(159457 -38271 -5.5578e-11 11747.4 -4.46974e-11 18897.6)
(161120 -29059.7 -5.06232e-11 4730.82 -3.83596e-11 18581.9)
(160452 -21859.1 -4.68169e-11 -506.471 -3.34108e-11 18165.4)
(158839 -16007.2 -4.36549e-11 -3878.98 -2.94038e-11 17791.5)
(156346 -11354.4 -4.11698e-11 -6319.15 -2.62226e-11 17396.6)
(153777 -7486.49 -3.90705e-11 -7923.29 -2.35858e-11 17052.9)
(150372 -4269.03 -3.74174e-11 -9462.02 -2.13892e-11 16630)
(155891 -93556.1 -8.24369e-11 72064 -8.30309e-11 22790.9)
(169933 -66994.3 -6.91693e-11 41140 -6.45744e-11 21954.1)
(175676 -47814.5 -5.86366e-11 27235.8 -5.13884e-11 21568.9)
(176230 -34031.6 -5.1447e-11 15850.7 -4.18921e-11 20843.8)
(174823 -23522.1 -4.57493e-11 9377.91 -3.46885e-11 20283.4)
(171638 -15661.8 -4.16232e-11 4358.89 -2.92989e-11 19646.5)
(167972 -9523.66 -3.83645e-11 1139.14 -2.51026e-11 19089.3)
(163782 -4858.1 -3.59736e-11 -1406.53 -2.19121e-11 18523.7)
(159631 -1076.15 -3.40019e-11 -2954.18 -1.93348e-11 18032.2)
(155043 1949.67 -3.26101e-11 -5053.37 -1.72591e-11 17452.1)
(191369 -99497 -8.47541e-11 69401.8 -8.69788e-11 25950.9)
(196123 -66908.2 -6.76029e-11 42301.1 -6.45203e-11 24552.6)
(195791 -44504.4 -5.49658e-11 31035.9 -4.9204e-11 23806.3)
(191682 -28894.4 -4.66646e-11 21022.5 -3.8499e-11 22750.2)
(186798 -17466.3 -4.04236e-11 15544.1 -3.06931e-11 21938.1)
(180854 -9230.99 -3.61337e-11 11013.8 -2.506e-11 21076.2)
(175021 -3044.24 -3.29091e-11 8121.86 -2.08374e-11 20336.5)
(169053 1473.92 -3.06997e-11 5603.48 -1.77481e-11 19601.7)
(163456 4986.72 -2.89642e-11 4120.98 -1.53543e-11 18974.9)
(157629 7841.35 -2.77916e-11 1686.75 -1.33897e-11 18249.5)
(228241 -101123 -8.46476e-11 63965.2 -8.79665e-11 29060.8)
(222210 -64384.9 -6.46089e-11 42635.7 -6.28066e-11 27094)
(214964 -39843.8 -5.04481e-11 35109 -4.61124e-11 25982.7)
(205634 -23108.7 -4.1418e-11 27116 -3.46836e-11 24587)
(196939 -11262.7 -3.49187e-11 22993.3 -2.66205e-11 23515.4)
(188065 -3003.61 -3.0671e-11 19132.8 -2.09841e-11 22423.8)
(179986 2968.66 -2.76454e-11 16618.4 -1.69138e-11 21496.3)
(172279 7172.9 -2.5717e-11 14157.8 -1.40382e-11 20597.2)
(165288 10273.7 -2.43199e-11 12637.6 -1.1923e-11 19831.3)
(158437 12796.9 -2.34364e-11 10024 -1.01797e-11 18992.1)
(264850 -97674.8 -8.16266e-11 56419.3 -8.5492e-11 32017.2)
(247428 -59077.2 -5.99833e-11 42313.7 -5.92022e-11 29519.7)
(232748 -33759 -4.50611e-11 39439.1 -4.20641e-11 28054.6)
(217832 -16797.2 -3.58157e-11 34012.9 -3.05275e-11 26320.1)
(205119 -5184.84 -2.94412e-11 31545.3 -2.26518e-11 24987.8)
(193244 2637.9 -2.55116e-11 28491.5 -1.73249e-11 23667.1)
(182946 8062.39 -2.28923e-11 26379.9 -1.36327e-11 22554.2)
(173580 11724.3 -2.13859e-11 23969.9 -1.11252e-11 21496.5)
(165339 14247.3 -2.04406e-11 22311.7 -9.3987e-12 20596.8)
(157596 16301.7 -1.9925e-11 19520.4 -7.96962e-12 19655.5)
(300381 -88962.2 -7.54469e-11 47948.3 -7.94478e-11 34833.4)
(271426 -50758.6 -5.35178e-11 41922 -5.35638e-11 31842.3)
(249033 -26159.8 -3.87037e-11 44381.7 -3.70038e-11 30039)
(228256 -10077.3 -2.99192e-11 41817.8 -2.61122e-11 27954.9)
(211403 505.714 -2.41648e-11 41110.8 -1.89626e-11 26353.1)
(196542 7343.69 -2.09056e-11 38835.2 -1.43154e-11 24799.2)
(184123 11856.2 -1.89319e-11 37030.9 -1.12452e-11 23500.5)
(173245 14743.2 -1.80011e-11 34585.7 -9.26128e-12 22290.4)
(163917 16551.9 -1.76012e-11 32663.6 -8.01333e-12 21262)
(155441 18027.2 -1.75201e-11 29673 -6.97279e-12 20231.6)
(332610 -74425.6 -6.57377e-11 39483.7 -6.94723e-11 37370.6)
(293066 -38805.3 -4.47855e-11 42103.4 -4.54814e-11 34005.5)
(262781 -16818.4 -3.12204e-11 50403.9 -3.07863e-11 31873.4)
(236132 -3020.18 -2.379e-11 50687.9 -2.14875e-11 29428.5)
(215314 5546.79 -1.93039e-11 51527.8 -1.57273e-11 27551.6)
(197755 10757.2 -1.71453e-11 49766.8 -1.21894e-11 25768)
(183527 13977.3 -1.6079e-11 48015.5 -9.99396e-12 24291.8)
(171426 15875.2 -1.587e-11 45351.7 -8.67532e-12 22941.7)
(161270 16885 -1.60793e-11 43006.9 -7.96055e-12 21796.6)
(152253 17723.5 -1.6466e-11 39757.4 -7.34576e-12 20690.8)
(363719 -54015 -5.19959e-11 33593.2 -5.55729e-11 40033.1)
(312580 -22599.6 -3.3053e-11 45208 -3.45767e-11 36214.2)
(273986 -5590.57 -2.22628e-11 59329 -2.3344e-11 33696.7)
(241644 3976.68 -1.75417e-11 61557.2 -1.6938e-11 30827.3)
(217227 9400.5 -1.51479e-11 63035.2 -1.3313e-11 28634)
(197455 12382.2 -1.45474e-11 61072.1 -1.12784e-11 26608.9)
(181850 14060.8 -1.45988e-11 58834.7 -1.01167e-11 24954.1)
(168899 14902.5 -1.51805e-11 55627.3 -9.5031e-12 23474.4)
(158211 15170.3 -1.59753e-11 52658.9 -9.27918e-12 22226.3)
(148868 15429.8 -1.67939e-11 49077.5 -9.05061e-12 21060.3)
(389685 -25181.4 -3.23655e-11 33441 -3.6082e-11 42692.3)
(325820 -2088.73 -1.79241e-11 55356.4 -2.08839e-11 38384.2)
(278571 6012.65 -1.27046e-11 73284.6 -1.57347e-11 35270.3)
(241820 9033.4 -1.24517e-11 74913.5 -1.37427e-11 31891.4)
(215485 10539.1 -1.28437e-11 74976.2 -1.27419e-11 29381.9)
(194818 11043.2 -1.40623e-11 71589.5 -1.23573e-11 27147.2)
(178805 11284.4 -1.52174e-11 68136.9 -1.21469e-11 25351.7)
(165645 11268.6 -1.64782e-11 64044.7 -1.20978e-11 23779.4)
(154844 11060.5 -1.76866e-11 60328.5 -1.21832e-11 22460.6)
(145423 10949.8 -1.87918e-11 56403.4 -1.2199e-11 21258.7)
(423668 22855.1 3.39248e-12 58436.4 -4.03208e-12 48152.9)
(331826 25607.7 4.40311e-12 86993.1 -2.69601e-12 41539.8)
(278055 16969.6 -2.54392e-12 96361.4 -8.71531e-12 37044.3)
(240178 11052.9 -8.87263e-12 91932.5 -1.26598e-11 33040.4)
(213742 8732.85 -1.2442e-11 86689.4 -1.41556e-11 30093.9)
(193182 7428.68 -1.52227e-11 80309.1 -1.49432e-11 27630.3)
(177278 6949.99 -1.71194e-11 74784.9 -1.51848e-11 25683.3)
(164185 6664.27 -1.87008e-11 69599.7 -1.52996e-11 24032.7)
(153399 6437.89 -2.00208e-11 65161.9 -1.53854e-11 22660.3)
(143942 6280.6 -2.11871e-11 61026.2 -1.54292e-11 21438.7)
(-564.289 197.813 -4.10786e-11 -319.419 -1.86096e-11 2888.96)
(447.512 -703.707 -4.15459e-11 60.7372 -1.92244e-11 3009.08)
(4522.21 -2214.35 -4.23363e-11 -227.672 -2.02375e-11 3368.08)
(11044.9 -3423.37 -4.28008e-11 -465.8 -2.10462e-11 3967.4)
(18624.6 -4168.8 -4.29015e-11 -589.511 -2.15433e-11 4679.67)
(26580.1 -4593.36 -4.27693e-11 -650.038 -2.18245e-11 5434.78)
(34374.2 -4759.88 -4.24746e-11 -660.02 -2.19323e-11 6179.86)
(41822.5 -4773.11 -4.20956e-11 -632.783 -2.19375e-11 6895.63)
(48650.9 -4646.69 -4.16616e-11 -619.084 -2.18484e-11 7551.85)
(55017.1 -4549.13 -4.12568e-11 -513.001 -2.17805e-11 8170.58)
(742.762 -757.696 -4.15802e-11 -48.9559 -1.92586e-11 3028.74)
(6000.18 -4099.04 -4.30716e-11 2527.45 -2.15547e-11 3707.24)
(13634.7 -7790.91 -4.50074e-11 2638.42 -2.40457e-11 4423.91)
(21736.7 -10612.7 -4.64933e-11 1841.37 -2.59336e-11 5121.91)
(29883.1 -12348.6 -4.72835e-11 1075.85 -2.70888e-11 5833.4)
(37626.2 -13322 -4.75997e-11 382.702 -2.77303e-11 6516.56)
(44806.6 -13673.6 -4.75268e-11 -149.782 -2.79547e-11 7161.98)
(51452.2 -13651.1 -4.72237e-11 -531.107 -2.79293e-11 7769.99)
(57312 -13274.3 -4.67287e-11 -858.328 -2.76663e-11 8309.04)
(62870.4 -12974.3 -4.62555e-11 -888.592 -2.74599e-11 8841.33)
(2299.33 -3727.53 -4.30261e-11 2529.63 -2.13062e-11 3355.1)
(11503.6 -10236.9 -4.62782e-11 5446 -2.5745e-11 4417.64)
(22048.7 -14810.6 -4.8695e-11 5049.44 -2.88213e-11 5369.12)
(31736.1 -17875.6 -5.04153e-11 3094.61 -3.08535e-11 6129.46)
(40651.3 -19565.2 -5.12828e-11 1284.46 -3.19599e-11 6835.47)
(48502.9 -20360.7 -5.16041e-11 -291.544 -3.24665e-11 7463.1)
(55397.9 -20458.7 -5.14785e-11 -1487.6 -3.25091e-11 8032.33)
(61542 -20133.4 -5.10763e-11 -2350.97 -3.22717e-11 8557.54)
(66679.5 -19422.1 -5.04504e-11 -3002.02 -3.17776e-11 9004.89)
(71653.3 -18824.2 -4.98402e-11 -3190.77 -3.13676e-11 9470.97)
(5516.74 -8382.13 -4.49879e-11 8454.12 -2.45454e-11 4084.34)
(18947.4 -17594.8 -5.0039e-11 9222.93 -3.07721e-11 5371.52)
(31896.5 -22404.2 -5.2645e-11 7661.37 -3.39872e-11 6463.29)
(42953.4 -25101.8 -5.4233e-11 4485.31 -3.57504e-11 7264.4)
(52516.6 -26219.9 -5.48412e-11 1693.18 -3.64545e-11 7961.51)
(60478.3 -26429.2 -5.49022e-11 -727.078 -3.6551e-11 8539.19)
(67126.8 -25980.9 -5.45351e-11 -2587.35 -3.62139e-11 9037.76)
(72828.4 -25148.7 -5.39053e-11 -3963.4 -3.56258e-11 9484.85)
(77290.7 -23991 -5.30854e-11 -5003.41 -3.48243e-11 9840.71)
(81736 -23012.2 -5.22929e-11 -5419.73 -3.4154e-11 10241.2)
(11005.9 -14957.1 -4.76674e-11 17126.2 -2.91254e-11 5227.94)
(28935.4 -25606.1 -5.40319e-11 13378.1 -3.62457e-11 6593.83)
(43887.7 -29928.8 -5.65215e-11 9696.32 -3.90958e-11 7719.5)
(55889.9 -31727.8 -5.77073e-11 4963.32 -4.0226e-11 8498.47)
(65721.9 -31848 -5.78118e-11 1143.6 -4.02384e-11 9149.6)
(73523.4 -31146.5 -5.74124e-11 -2061.66 -3.97073e-11 9658.04)
(79745.1 -29917.2 -5.66509e-11 -4489.78 -3.88335e-11 10077.5)
(84882.4 -28410.8 -5.56797e-11 -6281.77 -3.77837e-11 10443.1)
(88610 -26717.5 -5.45994e-11 -7617.84 -3.66161e-11 10709.5)
(92480.1 -25277.7 -5.35662e-11 -8192.32 -3.56321e-11 11045.8)
(19492.7 -23596.6 -5.12134e-11 27874.9 -3.51326e-11 6803.58)
(41796 -33728.5 -5.78774e-11 18027.1 -4.18005e-11 8128.24)
(58339.6 -36697.7 -5.98046e-11 11633.2 -4.36908e-11 9208.82)
(70813.7 -37137.3 -6.03436e-11 5184.25 -4.38744e-11 9911.24)
(80493.1 -35991.9 -5.97883e-11 387.427 -4.30161e-11 10481.5)
(87792.4 -34217.6 -5.88288e-11 -3494.41 -4.17499e-11 10897.1)
(93330.9 -32109.2 -5.76077e-11 -6377.28 -4.02753e-11 11222)
(97701.8 -29870.3 -5.62546e-11 -8484.12 -3.87259e-11 11495)
(100568 -27626.5 -5.49015e-11 -10052 -3.71831e-11 11664.6)
(103739 -25702.9 -5.36112e-11 -10730.1 -3.58709e-11 11929.1)
(31568.9 -34206.1 -5.5712e-11 39442.5 -4.24816e-11 8773.02)
(57483.3 -41638.9 -6.14191e-11 22844.7 -4.72133e-11 9947.74)
(75004.9 -42308.3 -6.2252e-11 13479 -4.75011e-11 10910.6)
(87377.8 -40929.8 -6.18904e-11 5242.38 -4.64272e-11 11479)
(96439.1 -38307.1 -6.05562e-11 -464.739 -4.45567e-11 11930.1)
(102854 -35373.5 -5.89859e-11 -4920 -4.24983e-11 12224.7)
(107426 -32362.6 -5.72878e-11 -8136.67 -4.04092e-11 12437.5)
(110795 -29403.2 -5.556e-11 -10460.4 -3.83703e-11 12602.4)
(112671 -26646.8 -5.39521e-11 -12170.9 -3.64794e-11 12669.6)
(114976 -24255.2 -5.24177e-11 -12910 -3.48508e-11 12849.4)
(47775.2 -46391.2 -6.10489e-11 50642.2 -5.08863e-11 11100.3)
(75873.6 -49027.4 -6.44927e-11 27648.6 -5.22719e-11 12028.5)
(93508.1 -46493.3 -6.36694e-11 15531 -5.03505e-11 12813.4)
(105112 -42888.6 -6.21633e-11 5656.15 -4.77468e-11 13197.5)
(113072 -38644.9 -5.99622e-11 -811.976 -4.47695e-11 13495.5)
(118228 -34538 -5.77744e-11 -5714.08 -4.19122e-11 13642.9)
(121568 -30671.4 -5.56294e-11 -9165.38 -3.92421e-11 13725.2)
(123721 -27073.2 -5.35753e-11 -11613.8 -3.67703e-11 13768.2)
(124496 -23893.7 -5.17724e-11 -13448.9 -3.45923e-11 13723.1)
(125768 -21096.8 -5.00354e-11 -14197.5 -3.26902e-11 13805.7)
(68429.1 -59437.9 -6.69227e-11 60277 -5.98445e-11 13729.4)
(96708.1 -55588.3 -6.69616e-11 32107.4 -5.67641e-11 14322.5)
(113345 -49130.4 -6.39938e-11 17876.4 -5.21589e-11 14875.9)
(123418 -42992.9 -6.11386e-11 6711.67 -4.78241e-11 15031.3)
(129778 -37051.9 -5.80152e-11 -277.846 -4.3693e-11 15147.1)
(133310 -31815.1 -5.52355e-11 -5483.17 -4.00684e-11 15123.1)
(135181 -27179.9 -5.26921e-11 -9037.53 -3.68782e-11 15061.6)
(135900 -23076.8 -5.04049e-11 -11582 -3.40649e-11 14963)
(135527 -19582.4 -4.84662e-11 -13454 -3.16741e-11 14807.1)
(135556 -16457.8 -4.66163e-11 -14419.2 -2.95481e-11 14756.2)
(93585.3 -72398.8 -7.28589e-11 67423.6 -6.87012e-11 16601.3)
(119638 -60999 -6.86755e-11 35976.5 -6.04691e-11 16779.7)
(133980 -50198.1 -6.32247e-11 20618.5 -5.29133e-11 17055)
(141688 -41378.5 -5.88929e-11 8702.02 -4.67559e-11 16943.7)
(145927 -33749.9 -5.48359e-11 1505.7 -4.14829e-11 16851.2)
(147488 -27464.6 -5.15075e-11 -3808.1 -3.71496e-11 16636.6)
(147655 -22178.9 -4.86394e-11 -7367.34 -3.3521e-11 16415.6)
(146801 -17720.1 -4.61999e-11 -9857.09 -3.04692e-11 16172.7)
(145279 -14104.9 -4.42653e-11 -11885 -2.79949e-11 15895.6)
(143886 -10969.2 -4.24464e-11 -12603.7 -2.58662e-11 15727.3)
(60708.8 -4220.52 -4.07547e-11 -513.214 -2.15554e-11 8718.06)
(65717.5 -3765.75 -4.01923e-11 -398.955 -2.12471e-11 9209.64)
(70308.6 -3370.71 -3.96927e-11 -317.614 -2.0979e-11 9658.31)
(74431.4 -3012.16 -3.92442e-11 -257.723 -2.07356e-11 10060.2)
(78153 -2679.54 -3.88328e-11 -197.833 -2.05098e-11 10423.5)
(81483.8 -2382.06 -3.84664e-11 -154.72 -2.03075e-11 10747.9)
(84471.1 -2108.91 -3.81329e-11 -113.041 -2.01222e-11 11039)
(87132 -1863.01 -3.78351e-11 -81.025 -1.99552e-11 11298)
(89500.3 -1637.17 -3.75659e-11 -52.6194 -1.98017e-11 11528.5)
(91592 -1430.56 -3.73239e-11 -30.5321 -1.96613e-11 11732)
(93429.7 -1238.26 -3.71044e-11 -12.5331 -1.95306e-11 11910.7)
(95025.3 -1057.71 -3.69059e-11 0.687404 -1.94081e-11 12065.8)
(96391 -885.053 -3.67243e-11 9.87274 -1.92909e-11 12198.4)
(97532.8 -718.14 -3.65588e-11 14.2796 -1.91774e-11 12309.2)
(98454.3 -554.434 -3.64073e-11 14.3858 -1.90665e-11 12398.6)
(99160.8 -394.068 -3.62695e-11 10.6692 -1.89577e-11 12467)
(99649.3 -239.049 -3.61475e-11 3.02356 -1.88526e-11 12514.2)
(99941.1 -98.4619 -3.60435e-11 -2.86993 -1.87573e-11 12542.6)
(100036 9.78462 -3.597e-11 -2.33898 -1.86842e-11 12552.5)
(100027 35.1758 -3.59464e-11 51.8174 -1.86677e-11 12555.9)
(67344 -12081.3 -4.54943e-11 -1146.68 -2.685e-11 9256.08)
(71034 -10874.2 -4.45333e-11 -1117.85 -2.60331e-11 9619.49)
(74591.8 -9811.25 -4.36615e-11 -1023.13 -2.53148e-11 9974.38)
(77767 -8819.39 -4.28613e-11 -975.136 -2.4644e-11 10288.6)
(80711.3 -7890.34 -4.21067e-11 -884.556 -2.40162e-11 10583.5)
(83359.2 -7050.69 -4.14284e-11 -824.931 -2.34486e-11 10847.1)
(85778.4 -6273.59 -4.08004e-11 -753.201 -2.29236e-11 11089.3)
(87952.2 -5567.98 -4.02324e-11 -698.779 -2.24467e-11 11306.2)
(89915.9 -4916.9 -3.97107e-11 -646.428 -2.20068e-11 11502.5)
(91669.9 -4318.2 -3.92338e-11 -606.129 -2.16019e-11 11677.4)
(93234.4 -3759.73 -3.87939e-11 -572.096 -2.12243e-11 11833.5)
(94615.5 -3235.34 -3.83866e-11 -547.725 -2.087e-11 11971)
(95824.5 -2736.6 -3.80047e-11 -530.151 -2.05326e-11 12091.3)
(96868.1 -2256.84 -3.7645e-11 -517.461 -2.02084e-11 12195.4)
(97752.1 -1792.32 -3.73022e-11 -506.736 -1.98941e-11 12283.9)
(98485.5 -1341.83 -3.69766e-11 -490.224 -1.95899e-11 12358.2)
(99067.3 -911.513 -3.66687e-11 -457.996 -1.92993e-11 12419.1)
(99514.7 -519.287 -3.63867e-11 -384.938 -1.90356e-11 12470.1)
(99810.1 -194.414 -3.61439e-11 -237.441 -1.88184e-11 12511.6)
(99999.5 -21.2193 -3.59812e-11 70.188 -1.87063e-11 12554.3)
(75038 -17485.8 -4.88639e-11 -3532.48 -3.04561e-11 9777.79)
(77389.3 -15840.4 -4.76859e-11 -3447.59 -2.93452e-11 10020)
(79921.3 -14364.8 -4.65749e-11 -3136.5 -2.83523e-11 10295.6)
(82110 -12995 -4.55637e-11 -2933.63 -2.74292e-11 10529.5)
(84248.9 -11690.1 -4.45841e-11 -2643.79 -2.65516e-11 10764.7)
(86169.9 -10505.8 -4.37016e-11 -2421 -2.57543e-11 10973.3)
(87982.1 -9397.64 -4.28715e-11 -2184.89 -2.50086e-11 11171.9)
(89625.5 -8385.73 -4.21172e-11 -1991.26 -2.43276e-11 11350.5)
(91143.9 -7445.99 -4.14172e-11 -1813.18 -2.36951e-11 11515.5)
(92520.3 -6578.69 -4.07747e-11 -1667.97 -2.31105e-11 11663.9)
(93772.8 -5769.11 -4.0179e-11 -1546.96 -2.25653e-11 11798.3)
(94901 -5010.45 -3.96261e-11 -1452.93 -2.20537e-11 11918.3)
(95912.9 -4292.15 -3.91077e-11 -1381.52 -2.15694e-11 12025.3)
(96813.8 -3606.99 -3.86187e-11 -1329.12 -2.11069e-11 12119.9)
(97607.6 -2948.69 -3.8154e-11 -1286.96 -2.06625e-11 12203.4)
(98301.9 -2314.31 -3.7709e-11 -1240.24 -2.02345e-11 12277.5)
(98891.4 -1705.99 -3.72817e-11 -1166.65 -1.98243e-11 12343.4)
(99388 -1132.82 -3.68716e-11 -1022.34 -1.94395e-11 12405.6)
(99748.7 -612.566 -3.64836e-11 -743.856 -1.90923e-11 12464.6)
(100014 -168.622 -3.61152e-11 -222.469 -1.88012e-11 12532.4)
(84034.2 -21298.3 -5.11503e-11 -5879.26 -3.29874e-11 10437.4)
(84959 -19413.6 -4.98981e-11 -5826.85 -3.17148e-11 10542)
(86427.5 -17675.7 -4.86521e-11 -5350.49 -3.0548e-11 10729.9)
(87551.7 -16090.7 -4.75476e-11 -5063.14 -2.94819e-11 10869.5)
(88823.1 -14548 -4.64389e-11 -4612.16 -2.84465e-11 11035.4)
(89940.9 -13147.9 -4.5443e-11 -4259.93 -2.75064e-11 11178.1)
(91077 -11822 -4.44888e-11 -3880.41 -2.66163e-11 11324.2)
(92119.9 -10604.5 -4.36177e-11 -3560.36 -2.57987e-11 11456.2)
(93128.8 -9466.86 -4.28013e-11 -3262.82 -2.50349e-11 11582.7)
(94064.8 -8412.73 -4.20483e-11 -3013.11 -2.43264e-11 11698)
(94947.3 -7426.48 -4.13468e-11 -2800.36 -2.36632e-11 11805)
(95765.5 -6501.58 -4.06931e-11 -2628.71 -2.3041e-11 11902.3)
(96525 -5627.32 -4.00794e-11 -2492.52 -2.24523e-11 11991)
(97225.1 -4795.42 -3.95002e-11 -2386.76 -2.18919e-11 12071.4)
(97866.2 -3997.74 -3.89485e-11 -2299.95 -2.13541e-11 12144.5)
(98451.4 -3227.99 -3.84176e-11 -2213.03 -2.08355e-11 12212)
(98966.8 -2482.56 -3.79015e-11 -2099.62 -2.03335e-11 12274.8)
(99422.4 -1756.1 -3.73897e-11 -1909.65 -1.98457e-11 12337.5)
(99755.9 -1055.04 -3.68812e-11 -1577.86 -1.93776e-11 12399.1)
(100020 -328.586 -3.63237e-11 -987.984 -1.88963e-11 12473.8)
(93688.5 -23271.8 -5.22975e-11 -8673.99 -3.42686e-11 11137.7)
(93129.1 -21379.2 -5.11228e-11 -8664.8 -3.29909e-11 11096.7)
(93553.4 -19533.5 -4.983e-11 -7962.21 -3.17557e-11 11202.4)
(93589.5 -17908.9 -4.87426e-11 -7577.86 -3.06647e-11 11245.4)
(93990.5 -16276.2 -4.75949e-11 -6933.82 -2.95726e-11 11343.1)
(94284.1 -14801.1 -4.65721e-11 -6424.91 -2.85846e-11 11419.3)
(94724.7 -13382.6 -4.55714e-11 -5870.98 -2.76354e-11 11512.6)
(95141.2 -12073.5 -4.4651e-11 -5393.12 -2.67588e-11 11597.1)
(95611.5 -10839.9 -4.37802e-11 -4945.75 -2.59327e-11 11684)
(96075.4 -9690.57 -4.29727e-11 -4562.46 -2.51625e-11 11764.9)
(96552.8 -8610.65 -4.22163e-11 -4231.58 -2.44385e-11 11842.6)
(97022.7 -7595.94 -4.15095e-11 -3960 -2.37574e-11 11914.7)
(97487.8 -6635.21 -4.08444e-11 -3741.25 -2.31119e-11 11981.9)
(97941.2 -5719.8 -4.02164e-11 -3569.54 -2.24962e-11 12044.3)
(98379.3 -4840.06 -3.96156e-11 -3433.2 -2.1904e-11 12102.2)
(98799.8 -3984.65 -3.90337e-11 -3312.19 -2.13283e-11 12157.1)
(99185.9 -3143.93 -3.84616e-11 -3178.93 -2.07625e-11 12209.5)
(99541.7 -2297.07 -3.78781e-11 -2985.72 -2.01935e-11 12263.7)
(99802 -1442.99 -3.72781e-11 -2673.95 -1.96213e-11 12317.7)
(100021 -468.905 -3.65726e-11 -2134.56 -1.89721e-11 12385.9)
(103833 -23507.9 -5.22787e-11 -11205.6 -3.43804e-11 11915.9)
(101726 -21852.1 -5.13565e-11 -11355.4 -3.32611e-11 11713.1)
(101129 -20046.8 -5.01155e-11 -10456.7 -3.20571e-11 11735.5)
(100055 -18542.5 -4.91547e-11 -10028.9 -3.10484e-11 11674.7)
(99584.5 -16953.1 -4.80592e-11 -9234.93 -2.99885e-11 11700)
(99041.6 -15522.8 -4.70892e-11 -8599.92 -2.90333e-11 11705.3)
(98771.8 -14121.7 -4.6116e-11 -7901.68 -2.80988e-11 11741.4)
(98544.6 -12818.1 -4.52129e-11 -7284.4 -2.72285e-11 11774.8)
(98453 -11578.2 -4.43484e-11 -6700.95 -2.64007e-11 11818.2)
(98420.2 -10413.7 -4.35397e-11 -6189.44 -2.56229e-11 11861.3)
(98462.8 -9313.45 -4.27752e-11 -5741.64 -2.4887e-11 11906.4)
(98553.5 -8273.61 -4.20579e-11 -5366.26 -2.41911e-11 11950.2)
(98689.3 -7285.36 -4.13801e-11 -5059.53 -2.35286e-11 11992.8)
(98859.7 -6339.74 -4.07371e-11 -4817.85 -2.28936e-11 12033.5)
(99055.4 -5425.79 -4.01206e-11 -4631.64 -2.22795e-11 12072.2)
(99271.1 -4528.55 -3.95183e-11 -4483.94 -2.16756e-11 12109.8)
(99488 -3633.31 -3.89208e-11 -4351.31 -2.10734e-11 12146.3)
(99705.3 -2705.73 -3.82981e-11 -4195.58 -2.04491e-11 12184.8)
(99867.4 -1740.73 -3.76457e-11 -3970.83 -1.98013e-11 12223.6)
(100017 -578.087 -3.68461e-11 -3586.59 -1.90221e-11 12274.4)
(113985 -22006.5 -5.10982e-11 -13325.6 -3.33257e-11 12737.1)
(110337 -20851.7 -5.06154e-11 -13770.8 -3.25407e-11 12361)
(108792 -19241.5 -4.953e-11 -12752.8 -3.14709e-11 12300.5)
(106642 -18009.8 -4.87988e-11 -12330.4 -3.0647e-11 12134.3)
(105329 -16606.2 -4.7852e-11 -11447.4 -2.97144e-11 12084.6)
(103978 -15334.9 -4.70099e-11 -10704.3 -2.8869e-11 12019.6)
(103008 -14058.9 -4.61348e-11 -9882.47 -2.80214e-11 11997.1)
(102148 -12849 -4.53047e-11 -9129.49 -2.72169e-11 11979.7)
(101494 -11682.4 -4.44974e-11 -8414.04 -2.64412e-11 11978.8)
(100961 -10572.3 -4.37309e-11 -7775.26 -2.57025e-11 11983.3)
(100559 -9513.9 -4.30007e-11 -7211.5 -2.49972e-11 11994.3)
(100256 -8506.01 -4.23089e-11 -6734.19 -2.43245e-11 12007.9)
(100045 -7542.88 -4.16534e-11 -6341.76 -2.36807e-11 12023.6)
(99909.5 -6615.3 -4.1028e-11 -6034.67 -2.30592e-11 12039.9)
(99838.7 -5712.85 -4.04267e-11 -5806.31 -2.24537e-11 12056.1)
(99822.4 -4817.34 -3.98366e-11 -5645.85 -2.18514e-11 12072.4)
(99844.4 -3911.01 -3.92442e-11 -5537.12 -2.12411e-11 12088.5)
(99897.7 -2949.09 -3.8619e-11 -5454.13 -2.05928e-11 12106)
(99947.5 -1925.29 -3.79541e-11 -5366.58 -1.99029e-11 12123.9)
(100008 -648.114 -3.71182e-11 -5213.77 -1.90426e-11 12149.4)
(123735 -18879.1 -4.87939e-11 -14640.5 -3.11865e-11 13591.3)
(118654 -18483.1 -4.89267e-11 -15516.5 -3.09075e-11 13040.3)
(116251 -17235.4 -4.8124e-11 -14562.6 -3.00818e-11 12890.4)
(113125 -16377.8 -4.76877e-11 -14182.9 -2.95107e-11 12625.2)
(111006 -15286.8 -4.69857e-11 -13336.2 -2.8789e-11 12493.4)
(108914 -14263.5 -4.63346e-11 -12560.2 -2.81119e-11 12358.3)
(107266 -13211.3 -4.56311e-11 -11697.5 -2.74164e-11 12272.6)
(105803 -12180.9 -4.49355e-11 -10866.9 -2.67351e-11 12202.1)
(104597 -11168.6 -4.42417e-11 -10060.9 -2.60654e-11 12154.2)
(103572 -10184 -4.35656e-11 -9318.19 -2.54132e-11 12118.7)
(102726 -9230.99 -4.29102e-11 -8649.51 -2.47812e-11 12094.5)
(102028 -8310.36 -4.22807e-11 -8070.36 -2.41692e-11 12077.4)
(101463 -7420.47 -4.16771e-11 -7588.58 -2.35765e-11 12065.6)
(101013 -6554.76 -4.10969e-11 -7210.07 -2.29982e-11 12056.6)
(100665 -5703.89 -4.05363e-11 -6935.09 -2.24283e-11 12049.6)
(100405 -4849.01 -3.99828e-11 -6761.79 -2.18542e-11 12043.2)
(100221 -3971.95 -3.94239e-11 -6683.59 -2.12631e-11 12037.1)
(100098 -3021.92 -3.88285e-11 -6691.5 -2.06216e-11 12030.7)
(100032 -1992.64 -3.81891e-11 -6770.34 -1.99252e-11 12024.9)
(99995.2 -677.113 -3.73732e-11 -6898.62 -1.90344e-11 12020)
(132753 -14428.3 -4.5537e-11 -14893.3 -2.81709e-11 14464.5)
(126390 -14930.1 -4.63758e-11 -16265.5 -2.84911e-11 13747.2)
(123195 -14302.7 -4.60781e-11 -15808.2 -2.80767e-11 13479.7)
(119284 -13893.5 -4.59817e-11 -15534.4 -2.7807e-11 13128.4)
(116394 -13245.7 -4.56189e-11 -14820.8 -2.73829e-11 12909.7)
(113664 -12531.8 -4.51958e-11 -14030.7 -2.69155e-11 12712.6)
(111390 -11753.8 -4.4695e-11 -13144.4 -2.64061e-11 12567.1)
(109382 -10941.4 -4.41583e-11 -12255.4 -2.58731e-11 12447.4)
(107666 -10117.4 -4.36012e-11 -11384.4 -2.53318e-11 12354.4)
(106182 -9293.94 -4.30403e-11 -10569.2 -2.47898e-11 12279.3)
(104914 -8481.42 -4.24863e-11 -9827.68 -2.42543e-11 12219.3)
(103832 -7684.8 -4.19456e-11 -9179.61 -2.37274e-11 12169.9)
(102919 -6905.03 -4.14216e-11 -8637.25 -2.32105e-11 12128.6)
(102154 -6138.35 -4.09143e-11 -8212.28 -2.26999e-11 12092.4)
(101525 -5377.02 -4.04211e-11 -7912.08 -2.21911e-11 12059.8)
(101013 -4603.12 -3.99324e-11 -7744.47 -2.16715e-11 12028.4)
(100617 -3798.22 -3.94374e-11 -7713.3 -2.11287e-11 11997.9)
(100311 -2911.53 -3.89063e-11 -7828.67 -2.05281e-11 11965.3)
(100124 -1935.71 -3.83325e-11 -8091.65 -1.98648e-11 11933.7)
(99982.6 -662.546 -3.75916e-11 -8525.59 -1.89979e-11 11895.2)
(140255 -8717.96 -4.14482e-11 -14354.7 -2.4319e-11 15260.5)
(133796 -9816.99 -4.26348e-11 -15461.2 -2.5047e-11 14550.4)
(129707 -10074.9 -4.3078e-11 -15956.5 -2.52151e-11 14119.2)
(125356 -10178.2 -4.3381e-11 -16047.7 -2.5286e-11 13694.8)
(121702 -10126.8 -4.3497e-11 -15767.7 -2.52579e-11 13366.1)
(118369 -9895.3 -4.34446e-11 -15218.1 -2.51126e-11 13090)
(115464 -9538.76 -4.32636e-11 -14471.4 -2.48856e-11 12870.6)
(112900 -9077.84 -4.29847e-11 -13625.3 -2.45898e-11 12692.1)
(110668 -8544.76 -4.26363e-11 -12734.2 -2.42457e-11 12549.4)
(108723 -7963.31 -4.22448e-11 -11857.2 -2.38688e-11 12433.3)
(107040 -7352.98 -4.18283e-11 -11030.6 -2.34712e-11 12338.7)
(105585 -6727.96 -4.14022e-11 -10288.1 -2.30619e-11 12259.7)
(104336 -6096.12 -4.09766e-11 -9653.9 -2.26464e-11 12192.2)
(103269 -5459.34 -4.05563e-11 -9149.98 -2.22253e-11 12132.3)
(102368 -4814.53 -4.0144e-11 -8793.67 -2.17961e-11 12077.1)
(101613 -4147.95 -3.97331e-11 -8604.6 -2.13496e-11 12023.4)
(101007 -3444.35 -3.93161e-11 -8598.76 -2.08748e-11 11970.2)
(100517 -2655.89 -3.88704e-11 -8807.68 -2.03391e-11 11912.3)
(100210 -1776.68 -3.83889e-11 -9248.26 -1.9738e-11 11855)
(99964.5 -611.363 -3.77657e-11 -9990.63 -1.89393e-11 11782.4)
(144500 -4012.98 -3.8019e-11 -12766.4 -2.11653e-11 15817.8)
(138552 -4599.24 -3.88593e-11 -13918.5 -2.15457e-11 15156.5)
(133878 -5683.45 -3.99464e-11 -15042.8 -2.22623e-11 14616.2)
(129390 -6196.21 -4.05711e-11 -15529.1 -2.26029e-11 14145.9)
(125419 -6557.04 -4.10069e-11 -15543.9 -2.28485e-11 13762)
(121782 -6718.47 -4.12558e-11 -15251.2 -2.29643e-11 13434.7)
(118549 -6722.88 -4.13483e-11 -14697.9 -2.29785e-11 13166.9)
(115650 -6597.66 -4.13199e-11 -13997.1 -2.29071e-11 12943.2)
(113087 -6368.07 -4.11958e-11 -13206.7 -2.27664e-11 12759)
(110818 -6059.64 -4.10031e-11 -12393.3 -2.25732e-11 12605.4)
(108826 -5693.2 -4.0762e-11 -11602 -2.23397e-11 12477)
(107080 -5285.21 -4.04913e-11 -10875.3 -2.20772e-11 12367.4)
(105560 -4847.68 -4.02035e-11 -10245.1 -2.17928e-11 12272.5)
(104242 -4386.36 -3.99083e-11 -9742.09 -2.14903e-11 12187.3)
(103114 -3902.59 -3.961e-11 -9392.62 -2.11699e-11 12108.8)
(102151 -3387.82 -3.93098e-11 -9227.55 -2.08258e-11 12032.4)
(101368 -2831.08 -3.90029e-11 -9273.8 -2.04493e-11 11957.4)
(100720 -2195.77 -3.86757e-11 -9580.58 -2.00154e-11 11876)
(100305 -1477.2 -3.83248e-11 -10181 -1.95206e-11 11795.1)
(99960.8 -510.066 -3.78695e-11 -11188.2 -1.88512e-11 11691.6)
(142310 607.412 -3.49492e-11 -10989.2 -1.80755e-11 15772.2)
(137640 -67.7252 -3.59555e-11 -13397.2 -1.84943e-11 15137.4)
(133345 -1391.41 -3.71805e-11 -14562.5 -1.93713e-11 14628.8)
(129268 -2258.85 -3.80337e-11 -15220 -1.99489e-11 14182.6)
(125591 -2941.6 -3.86749e-11 -15352.2 -2.041e-11 13815.9)
(122174 -3425.37 -3.91323e-11 -15167.5 -2.07416e-11 13499.5)
(119088 -3737.42 -3.94262e-11 -14713.1 -2.09618e-11 13236.3)
(116273 -3906.2 -3.95928e-11 -14099.3 -2.10874e-11 13012.1)
(113743 -3954.04 -3.96533e-11 -13382.4 -2.11329e-11 12823.8)
(111466 -3905.4 -3.96345e-11 -12630 -2.11139e-11 12663.2)
(109436 -3780.05 -3.95551e-11 -11888.1 -2.10425e-11 12525.7)
(107629 -3595.36 -3.94349e-11 -11201.3 -2.09299e-11 12406)
(106034 -3363.63 -3.92866e-11 -10604.6 -2.07842e-11 12300)
(104631 -3093.68 -3.91214e-11 -10132.5 -2.06107e-11 12203.1)
(103416 -2788.72 -3.89462e-11 -9816.05 -2.04105e-11 12112.6)
(102366 -2446.07 -3.87657e-11 -9692.4 -2.01819e-11 12023.6)
(101504 -2058.39 -3.85781e-11 -9795.29 -1.99187e-11 11935.6)
(100784 -1602.29 -3.838e-11 -10183.5 -1.96048e-11 11840)
(100325 -1078.69 -3.81715e-11 -10903.6 -1.92395e-11 11744.6)
(99942.9 -371.617 -3.79074e-11 -12084.9 -1.87426e-11 11622.7)
(140655 5241.03 -3.17978e-11 -8890.62 -1.49813e-11 15802.4)
(136354 4178.34 -3.30858e-11 -11687.5 -1.56554e-11 15170.9)
(132717 2617.46 -3.44666e-11 -13131.7 -1.6688e-11 14702.7)
(128961 1463.9 -3.55266e-11 -14090.2 -1.74535e-11 14262.6)
(125579 509.322 -3.63615e-11 -14477.5 -1.80936e-11 13903.1)
(122341 -249.873 -3.7017e-11 -14522.5 -1.86075e-11 13584.6)
(119386 -829.46 -3.75001e-11 -14260.2 -1.90049e-11 13317.7)
(116647 -1259.64 -3.78514e-11 -13808.3 -1.93044e-11 13086.8)
(114156 -1557.92 -3.80876e-11 -13223.3 -1.95169e-11 12890.7)
(111888 -1747.68 -3.82341e-11 -12576.3 -1.96571e-11 12721.3)
(109842 -1846.98 -3.83108e-11 -11917.1 -1.97364e-11 12574.8)
(108004 -1872.77 -3.83347e-11 -11294.6 -1.9765e-11 12445.7)
(106364 -1838.69 -3.83213e-11 -10749.2 -1.97518e-11 12330.3)
(104909 -1754.63 -3.82834e-11 -10320.1 -1.97032e-11 12224)
(103636 -1627.14 -3.82287e-11 -10043.7 -1.96222e-11 12123.9)
(102531 -1458.63 -3.81674e-11 -9962.38 -1.95104e-11 12025.1)
(101615 -1246.14 -3.81013e-11 -10118.9 -1.93648e-11 11926.8)
(100847 -983.143 -3.80373e-11 -10572.3 -1.918e-11 11820.4)
(100360 -667.224 -3.7974e-11 -11374.9 -1.89537e-11 11714.7)
(99939.4 -230.63 -3.7902e-11 -12687.9 -1.86375e-11 11577.4)
(137744 8832.01 -2.94209e-11 -7129.15 -1.2587e-11 15680.1)
(134018 7746.07 -3.07378e-11 -10242 -1.32711e-11 15079.6)
(130995 6112.35 -3.21573e-11 -11861.3 -1.43496e-11 14656.4)
(127659 4823.68 -3.33101e-11 -13018.8 -1.52029e-11 14240.6)
(124651 3691.37 -3.42632e-11 -13581.8 -1.596e-11 13902.4)
(121692 2735.06 -3.50519e-11 -13789.6 -1.66041e-11 13596.9)
(118961 1944.99 -3.56786e-11 -13674.5 -1.71412e-11 13339)
(116389 1300.72 -3.61754e-11 -13353.4 -1.75833e-11 13112.8)
(114022 788.224 -3.6557e-11 -12882.9 -1.79383e-11 12918.5)
(111841 388.915 -3.68461e-11 -12334.6 -1.82183e-11 12748.7)
(109854 87.1608 -3.70594e-11 -11758.7 -1.84327e-11 12600.1)
(108050 -132.807 -3.7215e-11 -11206.4 -1.85915e-11 12467.8)
(106427 -283.951 -3.73267e-11 -10719.6 -1.87021e-11 12348.4)
(104976 -378.566 -3.7408e-11 -10340.7 -1.87733e-11 12237.5)
(103696 -424.003 -3.74708e-11 -10107.6 -1.88086e-11 12132.3)
(102579 -431.353 -3.75273e-11 -10067.9 -1.88147e-11 12028.3)
(101647 -394.87 -3.75794e-11 -10262.7 -1.87875e-11 11924.4)
(100871 -335.134 -3.76508e-11 -10759.5 -1.87396e-11 11812.6)
(100375 -225.15 -3.77284e-11 -11633.6 -1.8651e-11 11699.3)
(99937 -74.0062 -3.78481e-11 -13014.4 -1.85264e-11 11553.3)
(134080 11816 -2.747e-11 -5384.47 -1.06025e-11 15480.5)
(130939 10715.2 -2.87847e-11 -8625.52 -1.12945e-11 14926.2)
(128527 9091.8 -3.01823e-11 -10361.4 -1.23636e-11 14552.8)
(125651 7743.93 -3.1374e-11 -11696.6 -1.32535e-11 14167.2)
(123058 6509.52 -3.23938e-11 -12428.8 -1.40766e-11 13855.2)
(120426 5423.58 -3.32719e-11 -12806.9 -1.48051e-11 13567.4)
(117972 4482.24 -3.40019e-11 -12847.4 -1.54417e-11 13323.2)